Title
82307
    1SAPS     N    1   2.967   5.773  11.422  0.8561  0.1195  0.1678
    1SAPS   HN1    2   3.023   5.724  11.349  0.1572 -1.3937  0.6011
    1SAPS   HN2    3   2.992   5.872  11.438 -1.0491  0.5598  0.6721
    1SAPS   HN3    4   2.965   5.715  11.508 -4.1566 -1.7077 -0.8509
    1SAPS   C12    5   2.821   5.767  11.385 -0.9564 -0.2726  0.2226
    1SAPS  H12A    6   2.780   5.679  11.431  0.2628 -0.2577  1.3983
    1SAPS   C13    7   2.734   5.878  11.443  0.2494  0.1287  0.6889
    1SAPS  O13A    8   2.778   5.962  11.521 -0.0567 -0.0704  0.3811
    1SAPS  O13B    9   2.618   5.883  11.394 -0.2085 -0.6556  0.1025
    1SAPS   C11   10   2.799   5.767  11.231 -0.2623 -0.4755  0.3185
    1SAPS  H11A   11   2.830   5.864  11.188  0.1434 -1.0747 -0.7639
    1SAPS  H11B   12   2.692   5.742  11.213  0.0048 -1.3007 -0.1659
    1SAPS     P   13   2.850   5.630  11.024  0.0584  0.1368  0.5773
    1SAPS   O13   14   2.964   5.543  10.985 -0.2431 -0.1197 -0.0998
    1SAPS   O14   15   2.717   5.578  11.013  0.3101 -0.1451  0.1497
    1SAPS   O12   16   2.877   5.664  11.170 -0.6007  0.5407  0.4643
    1SAPS   O11   17   2.874   5.769  10.955 -0.2505  0.0858 -0.5705
    1SAPS    C1   18   2.777   5.828  10.862  1.0095 -0.4921 -0.2422
    1SAPS    HA   19   2.677   5.782  10.877  1.4805 -1.8868 -1.1261
    1SAPS    HB   20   2.763   5.936  10.882 -2.0105 -0.6754 -0.9589
    1SAPS    C2   21   2.809   5.803  10.712  0.0977 -0.5513  0.0031
    1SAPS    HS   22   2.751   5.876  10.652  1.1121  0.3599  0.1014
    1SAPS   O21   23   2.783   5.668  10.685 -0.1828  0.8209 -0.1833
    1SAPS   C21   24   2.667   5.642  10.630 -0.2292 -0.2621 -0.2054
    1SAPS   O22   25   2.579   5.717  10.602 -0.6822 -0.9588  0.0911
    1SAPS   C22   26   2.663   5.498  10.582 -0.1412  0.3780 -0.5103
    1SAPS   H2R   27   2.745   5.481  10.509 -0.4379 -0.6198 -0.6302
    1SAPS   H2S   28   2.685   5.439  10.673  1.7064  2.6661  0.6170
    1SAPS    C3   29   2.953   5.838  10.683 -0.6119 -0.1342 -0.0640
    1SAPS    HX   30   3.020   5.787  10.756 -2.1112 -1.0577  0.7003
    1SAPS    HY   31   2.958   5.948  10.695 -1.6445  0.4376 -3.6089
    1SAPS   O31   32   2.987   5.821  10.545  0.2621 -0.1681 -0.0041
    1SAPS   C31   33   3.075   5.733  10.505  0.5122 -0.0831 -0.2397
    1SAPS   O32   34   3.145   5.668  10.579 -0.3929 -0.4298 -0.2232
    1SAPS   C32   35   3.086   5.725  10.357  0.1442  0.1544  0.0764
    1SAPS   H2X   36   3.190   5.762  10.343  0.7815 -0.3160  2.8366
    1SAPS   H2Y   37   3.016   5.798  10.312  1.2813  0.8158 -0.6869
    1SAPS   C23   38   2.528   5.458  10.518  0.1906 -0.6790  0.6555
    1SAPS   H3R   39   2.537   5.484  10.411 -0.4640 -1.2321  0.4572
    1SAPS   H3S   40   2.445   5.507  10.573 -0.5944 -0.2505 -0.8572
    1SAPS   C24   41   2.500   5.309  10.511 -0.0777 -1.3151  0.3575
    1SAPS   H4R   42   2.400   5.277  10.474 -0.9732 -0.1263  1.6333
    1SAPS   H4S   43   2.504   5.276  10.616  0.9817 -0.3012  0.6581
    1SAPS   C25   44   2.618   5.236  10.450  0.0198  0.3131  0.7058
    1SAPS   H5R   45   2.712   5.236  10.509 -0.3868  1.7625  1.4218
    1SAPS   C26   46   2.618   5.193  10.328 -0.1543 -0.9425 -0.1284
    1SAPS   H6R   47   2.714   5.150  10.297  1.3335  1.7146  0.4655
    1SAPS   C27   48   2.509   5.219  10.221  0.2741  0.2255  0.3085
    1SAPS   H7R   49   2.548   5.261  10.126  0.1777 -1.1570 -0.3544
    1SAPS   H7S   50   2.446   5.305  10.251  0.7596  1.4521 -1.9391
    1SAPS   C28   51   2.422   5.091  10.220 -0.0359 -0.5443 -0.5868
    1SAPS   H8R   52   2.409   5.046  10.319  3.2360  0.9685  0.6520
    1SAPS   C29   53   2.343   5.045  10.121 -0.2096 -0.0600  0.3540
    1SAPS   H9R   54   2.281   4.955  10.134  1.2598 -1.3779 -1.3532
    1SAPS  C210   55   2.336   5.106   9.992  0.8752 -0.7151  0.0295
    1SAPS  H10R   56   2.384   5.207   9.993  0.8944 -0.6128  3.6623
    1SAPS  H10S   57   2.233   5.133   9.960  1.1083  0.4527  0.2047
    1SAPS  C211   58   2.384   5.011   9.885  0.6943 -0.0339  0.0359
    1SAPS  H11R   59   2.371   4.903   9.897  0.8353  0.0378  0.8711
    1SAPS  C212   60   2.446   5.055   9.773  0.4342  0.2423  0.1680
    1SAPS  H12R   61   2.481   4.984   9.696 -0.1585  1.7524 -1.5658
    1SAPS  C213   62   2.478   5.195   9.730 -0.1121 -0.5528  0.1552
    1SAPS  H13R   63   2.525   5.256   9.809 -0.9834  0.5667 -0.1651
    1SAPS  H13S   64   2.381   5.249   9.722  0.1578 -0.0373  0.3784
    1SAPS  C214   65   2.566   5.197   9.611 -0.3045  0.3086 -0.1190
    1SAPS  H14R   66   2.673   5.198   9.636 -0.4491  0.0851  0.5389
    1SAPS  C215   67   2.538   5.194   9.478 -0.2534  0.6264 -0.0798
    1SAPS  H15R   68   2.624   5.195   9.410  0.2457 -0.7062  0.4906
    1SAPS  C216   69   2.402   5.180   9.413 -0.0170 -0.3368 -0.6051
    1SAPS  H16R   70   2.363   5.279   9.381 -0.2846  0.1908  1.2130
    1SAPS  H16S   71   2.332   5.124   9.480 -1.8816 -1.0878 -3.0418
    1SAPS  C217   72   2.419   5.083   9.301  0.1850 -0.3204  0.4377
    1SAPS  H17R   73   2.439   4.982   9.342 -0.5641 -0.4564  0.4795
    1SAPS  H17S   74   2.509   5.111   9.241 -1.8953  0.3129 -2.6505
    1SAPS  C218   75   2.299   5.059   9.209 -0.5298  0.0002  0.0177
    1SAPS  H18R   76   2.274   5.149   9.149  2.2196 -0.3364 -1.8470
    1SAPS  H18S   77   2.220   5.034   9.283  1.2933 -3.2288  1.0787
    1SAPS  C219   78   2.312   4.931   9.113  0.3149 -0.2875  0.1287
    1SAPS  H19R   79   2.230   4.934   9.038 -0.0109  1.0864  0.5238
    1SAPS  H19S   80   2.297   4.836   9.168  0.2600 -1.1488 -1.3125
    1SAPS  C220   81   2.442   4.934   9.036 -0.5592  0.8936  0.6745
    1SAPS  H20R   82   2.529   4.944   9.104  0.9191  0.6071 -1.1156
    1SAPS  H20S   83   2.458   5.032   8.987 -1.5566  0.4039 -0.6939
    1SAPS  H20T   84   2.457   4.850   8.965  2.7330  0.5346  1.6194
    1SAPS   C33   85   3.072   5.586  10.283 -0.3429 -1.1698  0.2182
    1SAPS   H3X   86   3.128   5.514  10.347  0.6862 -1.6591 -1.1925
    1SAPS   H3Y   87   3.116   5.599  10.182 -0.3504  0.8010  0.4293
    1SAPS   C34   88   2.917   5.557  10.272 -0.0169  0.0335  0.1966
    1SAPS   H4X   89   2.869   5.646  10.226  1.1627  0.4657 -0.2220
    1SAPS   H4Y   90   2.871   5.557  10.373  0.8823 -1.2812  0.6300
    1SAPS   C35   91   2.887   5.433  10.188  1.1065  0.1256  0.0900
    1SAPS   H5X   92   2.796   5.391  10.235  0.6874  0.5951 -0.2799
    1SAPS   H5Y   93   2.961   5.355  10.217  0.8292 -0.2198 -0.1318
    1SAPS   C36   94   2.856   5.453  10.035 -0.3298  0.2913 -0.4154
    1SAPS   H6X   95   2.777   5.528  10.014 -0.1757  0.6087  0.1095
    1SAPS   H6Y   96   2.813   5.357  10.002 -0.4003  1.0463 -2.7395
    1SAPS   C37   97   2.973   5.470   9.933  0.2125 -0.2856  0.2703
    1SAPS   H7X   98   3.033   5.379   9.956  0.4433 -0.3458 -0.5527
    1SAPS   H7Y   99   3.012   5.572   9.955 -1.2032  0.1937  0.6256
    1SAPS   C38  100   2.920   5.448   9.787 -0.6952 -0.3383  0.2059
    1SAPS   H8X  101   2.863   5.536   9.748 -0.2253 -0.0409  0.1774
    1SAPS   H8Y  102   2.853   5.360   9.788 -1.9580  0.5891  0.2608
    1SAPS   C39  103   3.035   5.423   9.684  0.3545 -0.5860  0.0218
    1SAPS   H9X  104   3.109   5.355   9.732  0.4244 -1.4412 -1.2500
    1SAPS   H9Y  105   3.087   5.520   9.675  1.5980 -1.1301  0.9891
    1SAPS  C310  106   2.987   5.366   9.554  0.0206  0.4544 -0.2991
    1SAPS  H10X  107   2.896   5.421   9.521  0.7547  1.7868 -0.1863
    1SAPS  H10Y  108   2.946   5.265   9.572  0.6789  0.2120 -0.1437
    1SAPS  C311  109   3.091   5.363   9.445  0.5278 -0.5061 -0.0377
    1SAPS  H11X  110   3.149   5.270   9.467 -0.6812 -0.7227  2.5345
    1SAPS  H11Y  111   3.165   5.446   9.454  1.1461 -1.2513  3.3326
    1SAPS  C312  112   3.015   5.359   9.312 -0.0592 -0.4786  0.7491
    1SAPS  H12X  113   3.079   5.387   9.226 -2.0879 -0.3007 -0.7703
    1SAPS  H12Y  114   2.945   5.444   9.328  0.9754  0.7715 -0.9943
    1SAPS  C313  115   2.950   5.226   9.273  0.0318 -0.2298  0.4242
    1SAPS  H13X  116   2.913   5.178   9.366  0.4155  0.0552  0.7232
    1SAPS  H13Y  117   3.039   5.174   9.232 -0.0065  0.4670 -0.5830
    1SAPS  C314  118   2.847   5.233   9.156  0.3852 -0.1383  0.3843
    1SAPS  H14X  119   2.882   5.310   9.085  0.0681 -1.9349 -1.8226
    1SAPS  H14Y  120   2.751   5.261   9.204  1.2399 -0.5302  2.4323
    1SAPS  C315  121   2.839   5.100   9.068 -0.3139 -0.1243 -0.4045
    1SAPS  H15X  122   2.750   5.100   9.001 -0.4433  1.6906 -0.2856
    1SAPS  H15Y  123   2.824   5.019   9.143  0.1319  0.6541  0.5534
    1SAPS  C316  124   2.964   5.084   8.979 -0.0407  0.0280  0.1077
    1SAPS  H16X  125   2.983   4.986   8.929 -1.3162  0.9071 -2.2857
    1SAPS  H16Y  126   3.052   5.111   9.042 -0.6709  1.0645  0.5641
    1SAPS  C317  127   2.946   5.178   8.858  0.0763 -0.0001 -0.4177
    1SAPS  H17X  128   2.955   5.282   8.894  2.9378 -1.0866  2.4781
    1SAPS  H17Y  129   2.838   5.185   8.830 -0.8827 -1.8205  2.3540
    1SAPS  C318  130   3.039   5.153   8.742 -0.0808 -0.2097  0.7245
    1SAPS  H18X  131   3.047   5.044   8.722  2.1941  0.1440 -0.7154
    1SAPS  H18Y  132   3.143   5.189   8.759 -0.0894  0.3458 -0.2816
    1SAPS  H18Z  133   2.993   5.201   8.653 -1.5761 -3.7234 -0.5624
    2SAPS     N  134   0.600   5.327  11.198 -0.2701 -0.2697  0.0164
    2SAPS   HN1  135   0.599   5.224  11.210 -1.5641 -0.0645  2.1190
    2SAPS   HN2  136   0.674   5.343  11.126 -1.2638  0.1408 -0.9493
    2SAPS   HN3  137   0.626   5.365  11.291  0.5164 -0.3609 -0.1596
    2SAPS   C12  138   0.466   5.382  11.160 -0.1845  0.2822 -0.9007
    2SAPS  H12A  139   0.407   5.296  11.133  1.7628 -1.7398  0.9271
    2SAPS   C13  140   0.388   5.458  11.266 -0.3904  0.0588  0.6798
    2SAPS  O13A  141   0.436   5.458  11.381  0.2552  0.1133  0.5009
    2SAPS  O13B  142   0.281   5.515  11.231 -0.3850 -0.2908  0.0915
    2SAPS   C11  143   0.494   5.481  11.043 -0.2409 -0.6437 -0.4964
    2SAPS  H11A  144   0.548   5.569  11.084 -0.2080 -0.7127 -0.3915
    2SAPS  H11B  145   0.393   5.512  11.009 -0.8406 -0.8865  0.9953
    2SAPS     P  146   0.680   5.507  10.872  0.3388 -0.4091 -0.2264
    2SAPS   O13  147   0.750   5.571  10.985  0.2025 -0.2550 -0.0566
    2SAPS   O14  148   0.761   5.422  10.781  0.5262  0.2552  0.1724
    2SAPS   O12  149   0.569   5.414  10.939 -0.2179 -0.2698  0.6071
    2SAPS   O11  150   0.591   5.617  10.802  0.9390  0.1382  0.2897
    2SAPS    C1  151   0.586   5.627  10.661  0.6052 -0.0304  0.3831
    2SAPS    HA  152   0.587   5.528  10.610 -2.0066  0.9159 -1.7724
    2SAPS    HB  153   0.498   5.679  10.616  1.3369 -1.4234 -2.9806
    2SAPS    C2  154   0.700   5.726  10.614 -0.4557  0.1470  0.3374
    2SAPS    HS  155   0.796   5.698  10.663 -0.2343  0.3416  0.0188
    2SAPS   O21  156   0.648   5.856  10.658  0.3168  0.1276 -0.2273
    2SAPS   C21  157   0.754   5.943  10.664  0.4277  0.0984  0.0936
    2SAPS   O22  158   0.868   5.910  10.674 -0.9452  0.4777  0.6267
    2SAPS   C22  159   0.709   6.091  10.659 -0.1168 -0.1231 -0.3237
    2SAPS   H2R  160   0.605   6.100  10.698  1.0700  0.8868  2.9915
    2SAPS   H2S  161   0.776   6.142  10.732 -1.7516  1.8077 -0.0918
    2SAPS    C3  162   0.716   5.722  10.458 -0.2211 -0.3753  0.5252
    2SAPS    HX  163   0.626   5.750  10.400  1.0231  0.8709 -0.8927
    2SAPS    HY  164   0.753   5.622  10.427  0.6548 -0.4860  1.8465
    2SAPS   O31  165   0.826   5.815  10.425  0.2531  0.2744  0.0850
    2SAPS   C31  166   0.882   5.806  10.304 -0.2118 -0.1105  0.3709
    2SAPS   O32  167   0.849   5.729  10.218  0.2615 -0.7078  0.1046
    2SAPS   C32  168   1.007   5.896  10.293  0.2524  0.1866  0.6759
    2SAPS   H2X  169   1.079   5.847  10.361  0.4554  0.6015  0.7609
    2SAPS   H2Y  170   0.982   5.990  10.348  4.0587  0.6286  1.9406
    2SAPS   C23  171   0.730   6.156  10.514  0.4359 -0.9039 -0.5228
    2SAPS   H3R  172   0.836   6.139  10.485  0.9412 -0.6074  1.0627
    2SAPS   H3S  173   0.710   6.265  10.523 -0.2575 -0.9674 -1.2178
    2SAPS   C24  174   0.641   6.097  10.399  0.5826 -0.0216 -0.3965
    2SAPS   H4R  175   0.655   5.987  10.396 -1.9260 -0.4730  1.3311
    2SAPS   H4S  176   0.656   6.134  10.296  0.2633  0.7333 -0.1793
    2SAPS   C25  177   0.502   6.115  10.440 -0.3955  0.5925 -0.9376
    2SAPS   H5R  178   0.487   6.187  10.522 -3.2965  2.4559 -2.9328
    2SAPS   C26  179   0.400   6.045  10.405  0.7485  0.2104  0.2507
    2SAPS   H6R  180   0.309   6.042  10.466 -0.4323  0.8080 -1.4114
    2SAPS   C27  181   0.405   5.929  10.305 -0.2516 -0.0432 -0.3328
    2SAPS   H7R  182   0.335   5.852  10.345 -0.9006  1.5126  1.7614
    2SAPS   H7S  183   0.507   5.884  10.308  0.3954  1.3841  0.9642
    2SAPS   C28  184   0.375   5.973  10.168 -0.5750 -0.0697  0.0826
    2SAPS   H8R  185   0.269   6.002  10.157 -0.5292  0.9621  1.9897
    2SAPS   C29  186   0.457   5.989  10.062  0.1897 -0.0225  0.7967
    2SAPS   H9R  187   0.418   6.014   9.962  1.9923 -0.2850 -0.0285
    2SAPS  C210  188   0.604   5.969  10.062 -0.8266  0.6201 -0.3062
    2SAPS  H10R  189   0.617   5.883   9.993  1.0387  0.4142  0.2680
    2SAPS  H10S  190   0.643   5.922  10.155  0.8510 -0.5417 -1.5619
    2SAPS  C211  191   0.685   6.089  10.035  0.0406  0.8143  1.4206
    2SAPS  H11R  192   0.698   6.159  10.119  3.0871  0.8403  1.0442
    2SAPS  C212  193   0.759   6.108   9.922 -0.7433 -0.3145  0.8438
    2SAPS  H12R  194   0.810   6.205   9.909 -0.1997 -0.4099  2.0561
    2SAPS  C213  195   0.761   6.006   9.804 -0.5413 -0.2441  0.2607
    2SAPS  H13R  196   0.823   6.044   9.720  1.6104 -2.5697  0.6790
    2SAPS  H13S  197   0.655   5.993   9.772 -0.5621 -1.1202  0.6599
    2SAPS  C214  198   0.822   5.870   9.829 -0.0539  0.3730 -0.3221
    2SAPS  H14R  199   0.863   5.856   9.930 -0.0071  0.0071 -0.3904
    2SAPS  C215  200   0.837   5.761   9.754  0.0320  0.1231  0.3971
    2SAPS  H15R  201   0.868   5.664   9.797  0.1512  0.2443  0.5836
    2SAPS  C216  202   0.786   5.758   9.609  0.1814  0.1332  0.1653
    2SAPS  H16R  203   0.826   5.853   9.568 -1.7853  1.0283  0.2215
    2SAPS  H16S  204   0.675   5.754   9.612  0.0637  2.4980  2.0708
    2SAPS  C217  205   0.845   5.642   9.529 -0.2288  0.1968 -0.5146
    2SAPS  H17R  206   0.799   5.550   9.569 -0.7772  0.7966  0.2681
    2SAPS  H17S  207   0.955   5.635   9.544 -0.6519 -0.0841  3.2737
    2SAPS  C218  208   0.825   5.639   9.375 -0.5792  0.1582 -0.1263
    2SAPS  H18R  209   0.888   5.711   9.317 -1.2127  1.0539  0.2733
    2SAPS  H18S  210   0.719   5.666   9.357 -0.9994 -0.8471  0.7773
    2SAPS  C219  211   0.856   5.500   9.320 -0.1477  0.1529  0.2437
    2SAPS  H19R  212   0.783   5.430   9.366  0.6040 -0.5050  0.4547
    2SAPS  H19S  213   0.954   5.473   9.363 -0.0377  0.2921  0.0789
    2SAPS  C220  214   0.858   5.490   9.170 -0.0730  0.2418 -0.2740
    2SAPS  H20R  215   0.781   5.556   9.124 -1.0613 -0.7478 -0.0788
    2SAPS  H20S  216   0.842   5.384   9.142 -0.7153  0.6522 -1.5396
    2SAPS  H20T  217   0.949   5.527   9.118 -0.6546  0.6285 -1.0434
    2SAPS   C33  218   1.072   5.923  10.154 -0.3813  0.6605  0.1063
    2SAPS   H3X  219   1.152   5.998  10.176 -1.5282  1.0760  3.4612
    2SAPS   H3Y  220   1.004   5.976  10.084  0.6355  4.4851  1.7449
    2SAPS   C34  221   1.147   5.807  10.083 -0.1678  0.0572  0.0897
    2SAPS   H4X  222   1.072   5.725  10.077 -1.1603  0.8477  1.1726
    2SAPS   H4Y  223   1.232   5.785  10.151 -0.9686 -1.9493  0.5527
    2SAPS   C35  224   1.203   5.844   9.941 -0.2378 -0.0642  0.5192
    2SAPS   H5X  225   1.312   5.864   9.952 -0.0227 -0.6066 -0.4485
    2SAPS   H5Y  226   1.160   5.935   9.893 -0.8091 -0.5952  0.0098
    2SAPS   C36  227   1.211   5.736   9.835  0.0797  0.1562 -0.0793
    2SAPS   H6X  228   1.114   5.685   9.820  0.0884  0.1103  0.0203
    2SAPS   H6Y  229   1.280   5.656   9.871  0.8644  0.2072 -1.4275
    2SAPS   C37  230   1.246   5.792   9.698  0.1737  0.7372 -0.3310
    2SAPS   H7X  231   1.346   5.839   9.690  0.4262 -0.0089 -2.0969
    2SAPS   H7Y  232   1.172   5.865   9.657 -0.7243 -0.3058 -0.6221
    2SAPS   C38  233   1.254   5.687   9.591 -0.5192  0.1658 -0.4410
    2SAPS   H8X  234   1.153   5.643   9.583 -1.6120  1.7861  2.5790
    2SAPS   H8Y  235   1.322   5.605   9.622 -0.4739 -0.3768 -1.9248
    2SAPS   C39  236   1.305   5.741   9.455  0.1347 -0.7215  0.3968
    2SAPS   H9X  237   1.398   5.800   9.463  0.6367 -1.5218  0.5949
    2SAPS   H9Y  238   1.236   5.806   9.398  1.3922 -0.3271 -0.7299
    2SAPS  C310  239   1.331   5.617   9.360 -0.2193  0.3159  0.2529
    2SAPS  H10X  240   1.229   5.573   9.357  0.1106 -0.4140 -2.1127
    2SAPS  H10Y  241   1.400   5.541   9.401 -0.7409 -0.4407 -0.2504
    2SAPS  C311  242   1.380   5.654   9.219  0.2190  0.0411  0.3957
    2SAPS  H11X  243   1.483   5.695   9.221  1.3644 -2.5932 -0.0795
    2SAPS  H11Y  244   1.308   5.725   9.172 -0.2464 -2.1755 -2.4757
    2SAPS  C312  245   1.393   5.536   9.118  0.2164  0.4926 -0.6445
    2SAPS  H12X  246   1.293   5.492   9.093  0.8751 -1.0113 -0.7496
    2SAPS  H12Y  247   1.454   5.452   9.157  0.2333  0.1077 -1.4600
    2SAPS  C313  248   1.435   5.580   8.973  0.8067  0.5966  0.3936
    2SAPS  H13X  249   1.528   5.640   8.969  1.4000 -0.1478  2.1270
    2SAPS  H13Y  250   1.350   5.645   8.942 -1.5864 -1.0649  2.9700
    2SAPS  C314  251   1.441   5.465   8.883  0.4521 -1.4331 -0.4655
    2SAPS  H14X  252   1.346   5.408   8.886  0.1969 -0.9808  0.2860
    2SAPS  H14Y  253   1.526   5.404   8.921  0.4296 -0.7004  0.8127
    2SAPS  C315  254   1.465   5.493   8.738  0.1911  0.2701 -0.3149
    2SAPS  H15X  255   1.556   5.550   8.709 -0.2251  0.0249 -2.1651
    2SAPS  H15Y  256   1.387   5.561   8.699  0.9856  0.4983 -1.5449
    2SAPS  C316  257   1.463   5.360   8.650 -0.4652  0.0736  0.3750
    2SAPS  H16X  258   1.375   5.297   8.676  0.6618 -2.2094 -0.9984
    2SAPS  H16Y  259   1.551   5.300   8.679 -1.3082 -0.5971  1.6279
    2SAPS  C317  260   1.461   5.392   8.504  0.1726 -0.0767 -0.0932
    2SAPS  H17X  261   1.372   5.452   8.477 -1.0758 -0.0501  3.5802
    2SAPS  H17Y  262   1.466   5.308   8.432 -0.4035  0.0674 -0.3063
    2SAPS  C318  263   1.576   5.489   8.454 -1.0907  0.0880 -0.0658
    2SAPS  H18X  264   1.676   5.443   8.460 -1.2311  0.0237  2.9823
    2SAPS  H18Y  265   1.596   5.579   8.515  2.8902 -1.3452  1.0235
    2SAPS  H18Z  266   1.561   5.511   8.346 -0.7637  0.9435  0.0544
    3SAPS     N  267   1.082   0.839  11.181 -0.2664  0.4680 -0.3326
    3SAPS   HN1  268   1.146   0.762  11.153 -1.0768  0.0453 -1.0834
    3SAPS   HN2  269   1.084   0.903  11.099 -2.8053 -0.2179 -1.0353
    3SAPS   HN3  270   1.110   0.885  11.270 -1.4146  0.9922 -0.2274
    3SAPS   C12  271   0.947   0.774  11.203  1.0660  0.8083  0.0962
    3SAPS  H12A  272   0.963   0.691  11.270  3.3599  1.1392  0.0669
    3SAPS   C13  273   0.850   0.876  11.269 -0.8258 -0.6856  0.0699
    3SAPS  O13A  274   0.864   0.997  11.245 -0.6382 -0.3329 -0.6650
    3SAPS  O13B  275   0.742   0.825  11.312  0.0862  0.0079 -0.4699
    3SAPS   C11  276   0.889   0.708  11.077 -1.1919 -0.0823  0.7222
    3SAPS  H11A  277   0.868   0.791  11.006 -0.1708 -0.9140 -0.5925
    3SAPS  H11B  278   0.791   0.661  11.101 -1.6337 -1.4536 -3.0121
    3SAPS     P  279   0.941   0.528  10.900 -0.3058  0.2684  0.4965
    3SAPS   O13  280   1.066   0.533  10.808 -0.0436 -0.0518 -0.1639
    3SAPS   O14  281   0.885   0.397  10.939  0.2326 -0.1671 -0.5207
    3SAPS   O12  282   0.986   0.608  11.024  0.0057 -0.5058 -0.1088
    3SAPS   O11  283   0.831   0.624  10.833  0.4125  0.6434 -0.1548
    3SAPS    C1  284   0.855   0.732  10.745 -0.4619  0.3139  0.2072
    3SAPS    HA  285   0.804   0.821  10.788  1.6661  1.3692  0.6602
    3SAPS    HB  286   0.961   0.767  10.748 -0.1812 -0.5989  1.4593
    3SAPS    C2  287   0.795   0.706  10.610 -0.2970  0.0664 -0.5373
    3SAPS    HS  288   0.844   0.617  10.566 -1.6342 -1.4365  0.9151
    3SAPS   O21  289   0.797   0.822  10.525 -0.4805  0.7470  0.5095
    3SAPS   C21  290   0.909   0.853  10.471  0.1260 -0.2519 -0.5412
    3SAPS   O22  291   1.018   0.813  10.510 -0.4447 -0.6602 -1.0641
    3SAPS   C22  292   0.888   0.963  10.368  0.2877  0.6304 -0.0939
    3SAPS   H2R  293   0.835   1.051  10.410 -0.9773  1.1909 -2.6354
    3SAPS   H2S  294   0.989   0.983  10.326  0.5876 -1.8880 -0.7250
    3SAPS    C3  295   0.650   0.661  10.627 -0.5316 -0.2355 -0.4437
    3SAPS    HX  296   0.605   0.759  10.655  0.7447  0.5063 -0.8806
    3SAPS    HY  297   0.639   0.588  10.709 -0.0976 -0.0568 -0.2228
    3SAPS   O31  298   0.596   0.608  10.502 -0.5818  0.2375 -0.7066
    3SAPS   C31  299   0.597   0.472  10.500  0.3698 -0.2302 -0.6720
    3SAPS   O32  300   0.655   0.401  10.576 -0.5325 -0.7433  0.0924
    3SAPS   C32  301   0.506   0.415  10.385 -0.3706  0.3359  0.3261
    3SAPS   H2X  302   0.534   0.483  10.302  1.3464 -1.1417 -0.3644
    3SAPS   H2Y  303   0.397   0.434  10.395 -0.5771  1.8694 -3.3698
    3SAPS   C23  304   0.802   0.917  10.254 -0.2716  0.1655 -0.5756
    3SAPS   H3R  305   0.786   1.004  10.187  1.6837  0.2619 -0.9828
    3SAPS   H3S  306   0.706   0.876  10.293 -0.8235  2.5345  0.7747
    3SAPS   C24  307   0.869   0.811  10.165  0.1084  0.5841 -0.6763
    3SAPS   H4R  308   0.797   0.774  10.090 -0.9751  3.4935 -1.2039
    3SAPS   H4S  309   0.893   0.723  10.228 -0.1481 -0.2093 -1.6833
    3SAPS   C25  310   1.002   0.852  10.103 -0.4505 -0.5108 -0.3738
    3SAPS   H5R  311   1.085   0.856  10.175 -2.1103 -0.9953  1.6520
    3SAPS   C26  312   1.031   0.879   9.972  0.5788 -0.3585  0.1879
    3SAPS   H6R  313   1.134   0.900   9.941  0.6386 -1.6497 -0.5576
    3SAPS   C27  314   0.941   0.869   9.855 -0.0680 -0.3356  0.0537
    3SAPS   H7R  315   0.840   0.858   9.898  0.0260  0.2822  0.4398
    3SAPS   H7S  316   0.963   0.778   9.795 -0.9751 -0.6461  0.1748
    3SAPS   C28  317   0.955   0.988   9.759  0.1133  0.9629 -0.3987
    3SAPS   H8R  318   0.907   1.079   9.799 -0.9380  0.1496  0.2544
    3SAPS   C29  319   1.009   0.975   9.635 -0.1399 -0.0684  0.4350
    3SAPS   H9R  320   1.025   1.058   9.564  0.0712 -3.2133 -3.5345
    3SAPS  C210  321   1.056   0.846   9.563  0.4235  0.2322 -0.9313
    3SAPS  H10R  322   0.994   0.758   9.591  1.4533  0.0778  0.9981
    3SAPS  H10S  323   1.153   0.819   9.609  1.0185  1.1513 -1.6160
    3SAPS  C211  324   1.066   0.864   9.413  0.4078  0.5983 -0.5488
    3SAPS  H11R  325   0.993   0.806   9.354 -0.1887 -0.2320  0.9490
    3SAPS  C212  326   1.173   0.923   9.352  0.2033 -0.1715  0.5339
    3SAPS  H12R  327   1.172   0.922   9.242  0.1417  0.3715  0.5243
    3SAPS  C213  328   1.290   0.987   9.427 -0.0639  0.6335  0.8455
    3SAPS  H13R  329   1.382   0.925   9.418  0.8379  1.6636  2.3620
    3SAPS  H13S  330   1.266   0.992   9.536  0.5034 -1.5405  1.1193
    3SAPS  C214  331   1.318   1.122   9.372 -0.2895  0.4970 -0.2313
    3SAPS  H14R  332   1.257   1.209   9.401 -0.9330  0.0174 -0.1250
    3SAPS  C215  333   1.410   1.151   9.273  0.1362 -0.0840 -0.5392
    3SAPS  H15R  334   1.411   1.255   9.239 -0.2781  0.4762  1.0721
    3SAPS  C216  335   1.494   1.055   9.197 -0.0262 -0.0539 -0.4548
    3SAPS  H16R  336   1.471   0.949   9.219 -1.6792  0.1703 -0.9294
    3SAPS  H16S  337   1.600   1.078   9.223 -0.4852  2.7305 -0.7193
    3SAPS  C217  338   1.476   1.081   9.043  0.1678  0.6124 -0.0934
    3SAPS  H17R  339   1.554   1.028   8.985 -1.2750 -2.3818  0.5350
    3SAPS  H17S  340   1.475   1.187   9.008  0.9883  0.7011  0.1323
    3SAPS  C218  341   1.339   1.030   8.992  0.4438 -0.1880 -0.5378
    3SAPS  H18R  342   1.258   1.047   9.066 -0.3340 -2.0339 -0.9104
    3SAPS  H18S  343   1.340   0.923   8.964  1.1437 -0.3756  0.1720
    3SAPS  C219  344   1.292   1.108   8.867 -0.4936  0.0423 -0.3438
    3SAPS  H19R  345   1.376   1.088   8.797 -1.0892  0.2547 -1.1427
    3SAPS  H19S  346   1.287   1.219   8.879 -2.1491  0.2062 -2.0833
    3SAPS  C220  347   1.151   1.056   8.803 -0.5400  0.2391 -0.4682
    3SAPS  H20R  348   1.073   1.077   8.879 -1.2174 -0.0904 -1.0660
    3SAPS  H20S  349   1.158   0.947   8.780 -1.2329 -0.2289  1.3345
    3SAPS  H20T  350   1.135   1.113   8.710 -1.0476  0.1152 -0.4568
    3SAPS   C33  351   0.530   0.260  10.339 -0.1712 -0.8678 -0.5070
    3SAPS   H3X  352   0.519   0.200  10.432 -0.0419 -0.4679 -0.2347
    3SAPS   H3Y  353   0.634   0.246  10.303  0.8433  3.1089  0.4282
    3SAPS   C34  354   0.431   0.227  10.223 -0.2097  0.6993  0.2346
    3SAPS   H4X  355   0.328   0.253  10.255 -0.2386 -0.4012  1.0822
    3SAPS   H4Y  356   0.420   0.117  10.235  2.3776  0.3081 -0.3089
    3SAPS   C35  357   0.473   0.273  10.083  0.2665  0.0845  0.0018
    3SAPS   H5X  358   0.572   0.228  10.063  0.8441  1.3301 -0.0394
    3SAPS   H5Y  359   0.478   0.384  10.075 -1.7414  0.1460 -0.9283
    3SAPS   C36  360   0.400   0.216   9.964  0.2501  0.0770 -0.1048
    3SAPS   H6X  361   0.293   0.246   9.964  0.6803  1.8079 -1.3346
    3SAPS   H6Y  362   0.406   0.106   9.951  4.1824 -0.3021  3.0140
    3SAPS   C37  363   0.444   0.272   9.830 -0.1971  0.2161 -0.0102
    3SAPS   H7X  364   0.549   0.235   9.826  0.1264  0.7142  2.1546
    3SAPS   H7Y  365   0.453   0.383   9.828  0.7734  0.1319 -2.0550
    3SAPS   C38  366   0.362   0.233   9.707 -0.6411  0.1045  0.1936
    3SAPS   H8X  367   0.257   0.269   9.718 -0.9242  0.2973 -2.4532
    3SAPS   H8Y  368   0.355   0.124   9.725  1.1106  0.1113  1.2055
    3SAPS   C39  369   0.420   0.268   9.568  0.0946 -0.0881 -0.5417
    3SAPS   H9X  370   0.512   0.205   9.565  1.1122  0.7811  4.0366
    3SAPS   H9Y  371   0.446   0.376   9.570  0.8439 -0.2641  0.3266
    3SAPS  C310  372   0.320   0.243   9.459 -0.0557  0.0657 -0.4656
    3SAPS  H10X  373   0.227   0.293   9.495 -1.2899 -0.9852 -2.0488
    3SAPS  H10Y  374   0.296   0.136   9.444  0.1025  0.2763 -2.4834
    3SAPS  C311  375   0.371   0.300   9.332 -0.5882 -0.3467 -0.6398
    3SAPS  H11X  376   0.411   0.402   9.351 -2.5796  0.2532  0.5443
    3SAPS  H11Y  377   0.290   0.315   9.259 -1.3335  0.2456  0.2907
    3SAPS  C312  378   0.472   0.206   9.267 -0.4026  0.7940  0.2975
    3SAPS  H12X  379   0.423   0.112   9.232 -1.6489  1.7585 -0.6256
    3SAPS  H12Y  380   0.541   0.173   9.347 -1.7335 -0.8699  0.8241
    3SAPS  C313  381   0.543   0.271   9.150 -0.4713  0.4860  0.5647
    3SAPS  H13X  382   0.631   0.207   9.132  0.4850  1.9590 -0.2377
    3SAPS  H13Y  383   0.577   0.375   9.172 -2.8594  1.2263  1.0321
    3SAPS  C314  384   0.450   0.283   9.021  0.5723  0.3173 -0.6881
    3SAPS  H14X  385   0.356   0.335   9.049  1.0840  1.6602 -1.3573
    3SAPS  H14Y  386   0.421   0.183   8.983 -0.1072  0.6249 -0.9862
    3SAPS  C315  387   0.526   0.355   8.902 -0.0809  0.0840  0.4761
    3SAPS  H15X  388   0.609   0.284   8.884  0.9838  1.0181  1.5797
    3SAPS  H15Y  389   0.557   0.451   8.947 -0.7555  1.2550 -1.4483
    3SAPS  C316  390   0.450   0.381   8.774  0.1820  0.1056  0.1503
    3SAPS  H16X  391   0.511   0.434   8.698 -0.4894  1.6627  0.6697
    3SAPS  H16Y  392   0.383   0.461   8.811  2.2728  0.6668  3.0741
    3SAPS  C317  393   0.382   0.262   8.698  0.1149  0.7786  0.7641
    3SAPS  H17X  394   0.322   0.197   8.766 -0.2706  1.9432  1.5640
    3SAPS  H17Y  395   0.469   0.203   8.659 -1.1665 -0.5037 -0.2603
    3SAPS  C318  396   0.298   0.308   8.587  0.3621  0.5707  0.1690
    3SAPS  H18X  397   0.355   0.347   8.499  0.0303  0.1152 -0.2516
    3SAPS  H18Y  398   0.224   0.381   8.625  0.9999  0.9590  0.6934
    3SAPS  H18Z  399   0.237   0.226   8.544 -0.2181  0.6042  0.9179
    4SAPS     N  400   3.726   1.995  11.105 -0.6167 -0.4619 -0.3896
    4SAPS   HN1  401   3.818   1.960  11.072  1.3937  0.9799  3.2006
    4SAPS   HN2  402   3.730   2.098  11.117  1.6856 -0.6814  1.3779
    4SAPS   HN3  403   3.714   1.957  11.201 -1.6587  1.8108  0.4573
    4SAPS   C12  404   3.605   1.970  11.022  0.2391  0.6642  0.8393
    4SAPS  H12A  405   3.582   1.865  11.016  1.9483  0.2246  1.2063
    4SAPS   C13  406   3.477   2.038  11.080  0.4658  0.7797  0.3055
    4SAPS  O13A  407   3.496   2.119  11.175  0.6719  0.5705 -0.0053
    4SAPS  O13B  408   3.365   2.028  11.023  0.2666  0.2163  0.2981
    4SAPS   C11  409   3.638   2.023  10.877 -0.0459 -0.7140  0.1351
    4SAPS  H11A  410   3.663   2.131  10.882  2.3362 -1.2576  1.6737
    4SAPS  H11B  411   3.549   2.020  10.810  1.8435  1.8620 -2.7863
    4SAPS     P  412   3.740   1.836  10.725  0.3296  0.0942  0.5258
    4SAPS   O13  413   3.876   1.827  10.660 -0.3859 -0.4870  0.3950
    4SAPS   O14  414   3.700   1.721  10.809 -0.1950  0.3637  0.1600
    4SAPS   O12  415   3.750   1.954  10.816 -0.3288  0.7824 -0.3164
    4SAPS   O11  416   3.622   1.862  10.628  0.0615 -0.2493  0.6669
    4SAPS    C1  417   3.599   1.978  10.541 -0.2521  0.5340 -0.1143
    4SAPS    HA  418   3.599   2.076  10.593  2.9199  0.1515  0.7929
    4SAPS    HB  419   3.685   1.983  10.471  0.3633  1.0297  0.6547
    4SAPS    C2  420   3.471   1.962  10.461 -0.1207  0.8322  0.3273
    4SAPS    HS  421   3.390   1.920  10.524 -1.0592  0.0370 -1.3473
    4SAPS   O21  422   3.495   1.884  10.349  0.1774  0.0085  0.5969
    4SAPS   C21  423   3.391   1.838  10.297  0.5856  0.6508  0.7289
    4SAPS   O22  424   3.279   1.823  10.346  0.2431 -0.2269 -0.0790
    4SAPS   C22  425   3.426   1.809  10.148  0.7694  0.0253  0.5397
    4SAPS   H2R  426   3.396   1.904  10.100 -0.4687 -0.2238  0.7991
    4SAPS   H2S  427   3.534   1.792  10.129  0.3035 -1.9425 -0.6876
    4SAPS    C3  428   3.432   2.108  10.410  0.9388  0.5254 -0.4230
    4SAPS    HX  429   3.435   2.163  10.506 -1.7557  0.5118 -0.2715
    4SAPS    HY  430   3.326   2.102  10.378  0.4402  0.8931  1.0794
    4SAPS   O31  431   3.530   2.176  10.325  0.0565  1.0126 -1.2074
    4SAPS   C31  432   3.494   2.191  10.205  0.4273 -0.3016  0.7988
    4SAPS   O32  433   3.391   2.147  10.158  0.0088 -0.1133 -0.0581
    4SAPS   C32  434   3.589   2.286  10.141 -0.5247  0.1286  0.2060
    4SAPS   H2X  435   3.688   2.249  10.175 -1.0609 -1.0306  0.5629
    4SAPS   H2Y  436   3.571   2.387  10.181 -0.5842  0.2274 -0.0684
    4SAPS   C23  437   3.340   1.685  10.094  0.2701  0.1471  0.1130
    4SAPS   H3R  438   3.239   1.729  10.077  1.1801  2.1359 -0.3947
    4SAPS   H3S  439   3.338   1.606  10.173  0.0627 -1.7295 -1.6669
    4SAPS   C24  440   3.411   1.628   9.969 -0.3973 -0.2762 -0.2345
    4SAPS   H4R  441   3.406   1.711   9.895  0.8257 -0.3851 -0.4546
    4SAPS   H4S  442   3.349   1.540   9.940  0.1554 -1.6165  2.3384
    4SAPS   C25  443   3.549   1.578  10.003  0.0090 -0.3663 -0.0648
    4SAPS   H5R  444   3.601   1.636  10.081 -0.2031  0.1591 -0.3128
    4SAPS   C26  445   3.607   1.461   9.955 -0.4082 -0.5791  0.0529
    4SAPS   H6R  446   3.706   1.431   9.991 -0.5219  0.1323  0.9772
    4SAPS   C27  447   3.549   1.364   9.862 -0.3773  0.1683  0.6505
    4SAPS   H7R  448   3.625   1.341   9.784 -2.9284 -1.5875 -1.4842
    4SAPS   H7S  449   3.474   1.413   9.797  2.7265 -0.2327 -3.6773
    4SAPS   C28  450   3.493   1.242   9.937 -0.5066  0.0588  0.0596
    4SAPS   H8R  451   3.450   1.260  10.036 -2.4786  1.0107 -0.9080
    4SAPS   C29  452   3.481   1.117   9.874 -0.1492 -0.2804 -0.2913
    4SAPS   H9R  453   3.446   1.033   9.935  2.5010 -0.7925  0.6751
    4SAPS  C210  454   3.531   1.078   9.739 -0.2608  1.1175  0.1602
    4SAPS  H10R  455   3.609   1.147   9.700 -0.8182  1.4118 -0.4690
    4SAPS  H10S  456   3.451   1.081   9.661  2.8846 -2.0484 -3.6154
    4SAPS  C211  457   3.592   0.940   9.739 -0.1394  0.3952 -0.4018
    4SAPS  H11R  458   3.585   0.894   9.839 -0.8130 -0.0628 -0.6561
    4SAPS  C212  459   3.647   0.873   9.639 -0.3304 -0.4098  0.6204
    4SAPS  H12R  460   3.692   0.772   9.641 -1.5481 -1.1698 -3.0420
    4SAPS  C213  461   3.657   0.939   9.500 -1.4556  0.6592  0.3251
    4SAPS  H13R  462   3.762   0.917   9.471 -1.5680 -0.4920  0.7467
    4SAPS  H13S  463   3.664   1.050   9.494  1.1382  0.4691 -2.3851
    4SAPS  C214  464   3.580   0.875   9.386 -0.8203  0.2491 -0.4240
    4SAPS  H14R  465   3.527   0.783   9.417  2.1913 -1.8765 -1.0798
    4SAPS  C215  466   3.567   0.920   9.262 -0.2862 -0.4705  0.6928
    4SAPS  H15R  467   3.518   0.862   9.183 -1.7629  1.3795  0.1569
    4SAPS  C216  468   3.628   1.046   9.207 -0.1250  0.7369  0.3042
    4SAPS  H16R  469   3.655   1.111   9.292 -1.8818  0.8703  0.8094
    4SAPS  H16S  470   3.548   1.099   9.150 -0.7384  0.4155  0.8403
    4SAPS  C217  471   3.749   1.028   9.109 -0.2089  0.0547 -0.1521
    4SAPS  H17R  472   3.716   0.953   9.034 -0.5401  0.1154 -0.0681
    4SAPS  H17S  473   3.832   0.985   9.170  1.1815  2.1666 -0.4372
    4SAPS  C218  474   3.777   1.153   9.026  0.7754 -0.7754 -0.3017
    4SAPS  H18R  475   3.796   1.248   9.080 -0.6811 -0.8120  0.3235
    4SAPS  H18S  476   3.684   1.169   8.968  0.8879  0.2932 -0.2129
    4SAPS  C219  477   3.887   1.139   8.926 -0.8587 -0.3954 -0.4177
    4SAPS  H19R  478   3.858   1.064   8.850 -1.0664  0.7568 -1.5117
    4SAPS  H19S  479   3.979   1.103   8.977 -1.1814 -0.9096 -0.1946
    4SAPS  C220  480   3.924   1.263   8.843  0.2240 -0.2114 -0.4276
    4SAPS  H20R  481   4.016   1.259   8.781 -0.7785  2.1399 -2.2033
    4SAPS  H20S  482   3.944   1.340   8.920  2.1441 -0.7842 -0.3027
    4SAPS  H20T  483   3.834   1.277   8.781 -1.3690 -1.6609  1.4250
    4SAPS   C33  484   3.575   2.273   9.985  0.1842  0.1523  0.1200
    4SAPS   H3X  485   3.611   2.372   9.951  0.6107  0.6679  1.9380
    4SAPS   H3Y  486   3.466   2.260   9.968  0.3432 -0.5939 -0.3546
    4SAPS   C34  487   3.655   2.164   9.921 -0.4492  0.1159  0.2512
    4SAPS   H4X  488   3.619   2.064   9.956 -3.0096  1.3574  1.4962
    4SAPS   H4Y  489   3.763   2.170   9.944 -0.6914 -1.0244  1.9012
    4SAPS   C35  490   3.653   2.170   9.766  1.2834 -1.3858  0.3864
    4SAPS   H5X  491   3.685   2.269   9.725  1.0319 -1.7619 -0.7634
    4SAPS   H5Y  492   3.547   2.153   9.740  1.1258  0.3304 -0.2570
    4SAPS   C36  493   3.732   2.060   9.689  0.5678  0.1437  0.5844
    4SAPS   H6X  494   3.728   1.967   9.749  1.0012 -0.1481  0.1644
    4SAPS   H6Y  495   3.840   2.079   9.672  0.5467 -0.2827 -0.0502
    4SAPS   C37  496   3.663   2.023   9.552 -0.0244  0.2683 -0.1278
    4SAPS   H7X  497   3.553   2.010   9.563 -0.0589  1.9528  2.6775
    4SAPS   H7Y  498   3.701   1.929   9.509 -0.5227  0.5992 -1.3327
    4SAPS   C38  499   3.677   2.130   9.447 -0.3144  0.2113  0.4823
    4SAPS   H8X  500   3.775   2.180   9.463 -1.0849  1.4156  1.6897
    4SAPS   H8Y  501   3.595   2.203   9.465  0.8534  1.7184 -0.1966
    4SAPS   C39  502   3.668   2.087   9.300  0.4084  0.0949 -0.0203
    4SAPS   H9X  503   3.757   2.023   9.281  1.9624  2.3147 -0.6244
    4SAPS   H9Y  504   3.672   2.187   9.250 -0.8704 -0.9798 -2.4223
    4SAPS  C310  505   3.545   2.002   9.267 -0.2033 -0.4055 -0.1246
    4SAPS  H10X  506   3.455   2.066   9.277 -0.7186 -0.9597 -1.0540
    4SAPS  H10Y  507   3.527   1.917   9.334 -1.9414 -0.6434 -0.8543
    4SAPS  C311  508   3.555   1.947   9.125 -0.5524  0.0905 -0.4143
    4SAPS  H11X  509   3.630   1.865   9.116  0.6308  1.3165 -2.0917
    4SAPS  H11Y  510   3.593   2.025   9.056  0.5953 -2.4609 -2.8925
    4SAPS  C312  511   3.430   1.881   9.084  0.2677  0.5176  0.5261
    4SAPS  H12X  512   3.339   1.946   9.082 -1.2651 -1.4657 -2.8076
    4SAPS  H12Y  513   3.420   1.808   9.167  1.0714 -1.7173 -1.2715
    4SAPS  C313  514   3.444   1.790   8.956 -0.1838  0.0927  0.5690
    4SAPS  H13X  515   3.532   1.723   8.966 -0.5238 -0.5729 -0.6923
    4SAPS  H13Y  516   3.463   1.851   8.865 -1.2104 -1.1455 -0.5057
    4SAPS  C314  517   3.316   1.700   8.926  0.6120 -0.3876  0.4958
    4SAPS  H14X  518   3.329   1.634   8.838  0.9503 -0.1009  0.3282
    4SAPS  H14Y  519   3.241   1.770   8.884 -0.9252 -1.4863  1.3229
    4SAPS  C315  520   3.241   1.632   9.038 -0.2662  0.0148 -0.3898
    4SAPS  H15X  521   3.146   1.598   8.991  0.7869 -2.4913 -0.9105
    4SAPS  H15Y  522   3.208   1.707   9.113  0.5325 -0.6145  0.6133
    4SAPS  C316  523   3.303   1.508   9.100  0.2811  0.1490  0.8744
    4SAPS  H16X  524   3.279   1.503   9.208 -0.6942 -0.5820  0.6357
    4SAPS  H16Y  525   3.414   1.501   9.094  0.2262 -0.8440  0.8439
    4SAPS  C317  526   3.249   1.376   9.044  0.0881  0.3138 -0.8338
    4SAPS  H17X  527   3.317   1.354   8.959  0.9596  0.6615 -0.2305
    4SAPS  H17Y  528   3.138   1.381   9.032 -0.2511  0.1687  1.6098
    4SAPS  C318  529   3.259   1.250   9.141  0.5994 -0.7776 -0.2224
    4SAPS  H18X  530   3.197   1.285   9.227  1.8112  0.9435 -0.0024
    4SAPS  H18Y  531   3.361   1.227   9.178 -0.0587 -0.7151  1.7920
    4SAPS  H18Z  532   3.206   1.156   9.115 -2.6489  1.7170 -3.6559
    5SAPS     N  533   5.874   1.692  10.961  0.1599 -0.4779  0.0492
    5SAPS   HN1  534   5.788   1.653  10.918 -0.3204 -1.3639  1.7181
    5SAPS   HN2  535   5.846   1.770  11.024 -1.4936 -0.8552 -0.1833
    5SAPS   HN3  536   5.937   1.725  10.885 -0.4487  1.5154  0.3534
    5SAPS   C12  537   5.933   1.572  11.033 -0.3188 -0.4611 -0.5135
    5SAPS  H12A  538   6.035   1.567  10.997 -0.6353 -0.8387 -1.3747
    5SAPS   C13  539   5.939   1.589  11.188 -0.0025 -0.2721  0.1434
    5SAPS  O13A  540   5.886   1.696  11.236 -0.0560  0.0929 -0.3520
    5SAPS  O13B  541   6.031   1.529  11.248 -0.6555 -0.2373 -0.7132
    5SAPS   C11  542   5.856   1.439  11.006  0.0636 -0.7623 -0.2670
    5SAPS  H11A  543   5.828   1.435  10.899  1.2203 -0.2014 -0.6006
    5SAPS  H11B  544   5.760   1.440  11.063 -0.0262 -1.4310 -0.4019
    5SAPS     P  545   5.878   1.188  11.067  0.0209 -0.3428  0.0834
    5SAPS   O13  546   5.881   1.159  11.209  0.0334 -0.1101  0.1943
    5SAPS   O14  547   5.744   1.186  11.016  0.6178 -0.4351  0.0540
    5SAPS   O12  548   5.948   1.327  11.038  0.1233 -0.3214  0.0150
    5SAPS   O11  549   5.968   1.086  10.992  0.5621 -0.5941 -0.6783
    5SAPS    C1  550   6.086   1.140  10.925 -0.3453 -0.1182 -0.8098
    5SAPS    HA  551   6.059   1.226  10.861  0.8547  1.0501  0.2024
    5SAPS    HB  552   6.154   1.176  11.006 -2.6085  0.2186  1.0627
    5SAPS    C2  553   6.170   1.035  10.847  0.2683  0.5933  0.6641
    5SAPS    HS  554   6.236   0.985  10.921  0.9280  0.7231  0.1748
    5SAPS   O21  555   6.243   1.097  10.742  0.2294 -0.4404 -0.9573
    5SAPS   C21  556   6.349   1.156  10.776  0.1036  0.1617  0.0755
    5SAPS   O22  557   6.415   1.155  10.877 -0.0649 -0.0945  0.3452
    5SAPS   C22  558   6.389   1.254  10.654 -0.2488 -0.4475  0.4772
    5SAPS   H2R  559   6.305   1.250  10.581 -1.3249  0.1650  1.6189
    5SAPS   H2S  560   6.387   1.359  10.693  2.3672  0.1485 -0.7921
    5SAPS    C3  561   6.091   0.921  10.776 -0.4254  0.0910  0.1559
    5SAPS    HX  562   5.991   0.956  10.741 -0.1669  0.9539  0.2463
    5SAPS    HY  563   6.073   0.837  10.846  1.6211 -1.1827 -0.7621
    5SAPS   O31  564   6.171   0.875  10.660  0.3302 -0.4396  0.1988
    5SAPS   C31  565   6.240   0.770  10.670  0.6550  0.2732  0.7341
    5SAPS   O32  566   6.260   0.710  10.772 -0.0929 -0.0637 -0.2063
    5SAPS   C32  567   6.277   0.711  10.533 -0.8986  0.0175  0.1622
    5SAPS   H2X  568   6.226   0.771  10.454 -1.4768 -1.8899 -0.9627
    5SAPS   H2Y  569   6.246   0.605  10.523 -2.3751  0.5446 -1.4001
    5SAPS   C23  570   6.515   1.230  10.572  0.5965  0.3755 -0.6167
    5SAPS   H3R  571   6.587   1.174  10.636 -1.3198  0.1899  1.4873
    5SAPS   H3S  572   6.554   1.327  10.536  1.1406 -0.1792 -1.5829
    5SAPS   C24  573   6.488   1.143  10.444  0.0381 -0.2384 -0.2672
    5SAPS   H4R  574   6.454   1.041  10.472  1.9394 -1.2460 -1.4374
    5SAPS   H4S  575   6.589   1.125  10.402 -0.6665 -1.7481 -1.4495
    5SAPS   C25  576   6.393   1.207  10.344  0.2449  0.5294 -0.3959
    5SAPS   H5R  577   6.291   1.229  10.379 -0.2819  0.0810 -1.5955
    5SAPS   C26  578   6.422   1.232  10.213 -0.1031  0.5732  0.0201
    5SAPS   H6R  579   6.334   1.266  10.157 -1.1988 -2.1221 -0.0469
    5SAPS   C27  580   6.544   1.198  10.127 -0.1385  0.5448 -0.0767
    5SAPS   H7R  581   6.528   1.226  10.021  3.1038  2.4916 -0.2062
    5SAPS   H7S  582   6.542   1.088  10.120 -0.4314  0.3679  2.1455
    5SAPS   C28  583   6.683   1.247  10.171 -0.8464 -0.0275  0.5527
    5SAPS   H8R  584   6.709   1.215  10.273  2.7443  0.2939 -0.1265
    5SAPS   C29  585   6.770   1.320  10.098 -0.8931  0.2154 -0.3939
    5SAPS   H9R  586   6.863   1.350  10.149 -0.9874  0.3115 -0.2755
    5SAPS  C210  587   6.756   1.360   9.949 -0.4995 -0.5108 -0.1705
    5SAPS  H10R  588   6.813   1.452   9.923 -1.3673 -0.2173 -1.0925
    5SAPS  H10S  589   6.651   1.375   9.917 -0.5566  2.8483  1.1947
    5SAPS  C211  590   6.820   1.244   9.867 -0.2623  0.1772 -0.5811
    5SAPS  H11R  591   6.889   1.180   9.925  0.0826  1.2531  0.2223
    5SAPS  C212  592   6.807   1.218   9.735 -0.3866  0.8839  0.4830
    5SAPS  H12R  593   6.868   1.140   9.687 -1.6714 -0.3153  0.7131
    5SAPS  C213  594   6.732   1.302   9.640 -0.2235  0.3123 -0.3719
    5SAPS  H13R  595   6.633   1.335   9.677  0.8280  1.0762  1.9419
    5SAPS  H13S  596   6.711   1.237   9.552  0.0207 -1.4076  0.7928
    5SAPS  C214  597   6.816   1.426   9.606 -0.7944 -0.2602 -0.0703
    5SAPS  H14R  598   6.879   1.470   9.685  0.4004  1.4149 -1.8596
    5SAPS  C215  599   6.837   1.486   9.483  1.0278 -0.0350 -0.8243
    5SAPS  H15R  600   6.892   1.582   9.482  0.8367  0.1631  1.7391
    5SAPS  C216  601   6.761   1.440   9.361  0.1287  1.3026  0.3537
    5SAPS  H16R  602   6.680   1.512   9.334  0.8343  1.0418 -2.8803
    5SAPS  H16S  603   6.708   1.345   9.385  1.3961  1.0751  2.4179
    5SAPS  C217  604   6.850   1.419   9.233  0.5128 -0.5550  0.0332
    5SAPS  H17R  605   6.870   1.521   9.193 -1.2661 -0.6125 -1.1220
    5SAPS  H17S  606   6.771   1.365   9.176 -2.3151 -1.0649  4.0132
    5SAPS  C218  607   6.966   1.336   9.251 -0.8748 -0.8952  0.0911
    5SAPS  H18R  608   7.028   1.384   9.330  0.2220 -0.1277 -1.1995
    5SAPS  H18S  609   6.924   1.243   9.294 -1.9175 -0.5932 -0.2360
    5SAPS  C219  610   7.046   1.305   9.121 -0.4915  0.1713 -0.3856
    5SAPS  H19R  611   7.075   1.399   9.069  0.8000 -1.2666 -2.3769
    5SAPS  H19S  612   6.975   1.244   9.061  0.4459 -0.8523 -0.4847
    5SAPS  C220  613   7.169   1.220   9.161  0.5051 -0.4917  0.6951
    5SAPS  H20R  614   7.239   1.280   9.222  0.7606  0.6926 -0.7119
    5SAPS  H20S  615   7.229   1.186   9.074 -1.6743 -1.1017 -0.6522
    5SAPS  H20T  616   7.134   1.133   9.221 -0.2057  0.4910  1.7505
    5SAPS   C33  617   6.436   0.712  10.516 -0.5831  0.5003 -0.3103
    5SAPS   H3X  618   6.477   0.635  10.585 -1.2406 -0.4173 -0.9363
    5SAPS   H3Y  619   6.480   0.813  10.533  1.5543 -0.3156 -0.6209
    5SAPS   C34  620   6.491   0.684  10.373  0.6144 -0.0370 -0.0144
    5SAPS   H4X  621   6.440   0.589  10.345  1.8768 -0.8342  0.3050
    5SAPS   H4Y  622   6.597   0.653  10.367  0.8811  0.7972  0.3090
    5SAPS   C35  623   6.473   0.795  10.273 -0.8916 -0.4527 -0.7694
    5SAPS   H5X  624   6.507   0.894  10.311 -1.6512 -0.4145 -0.1668
    5SAPS   H5Y  625   6.365   0.798  10.243 -1.0292 -1.6085 -0.3994
    5SAPS   C36  626   6.554   0.779  10.139  0.2834 -0.5827 -0.2143
    5SAPS   H6X  627   6.656   0.746  10.167  0.8660  0.8515 -0.5440
    5SAPS   H6Y  628   6.569   0.879  10.094 -2.5531 -0.5054 -1.1975
    5SAPS   C37  629   6.496   0.679  10.031 -0.3258  0.0178 -0.7812
    5SAPS   H7X  630   6.411   0.726   9.977  0.4713  2.7739  0.1622
    5SAPS   H7Y  631   6.466   0.584  10.079  1.9358 -0.2174  0.3311
    5SAPS   C38  632   6.608   0.640   9.931 -0.4787  0.4199 -0.0059
    5SAPS   H8X  633   6.701   0.599   9.976  0.5278  1.3777 -1.1367
    5SAPS   H8Y  634   6.644   0.725   9.868  1.4248 -0.8177 -0.6866
    5SAPS   C39  635   6.558   0.533   9.833 -0.5436 -0.1940  1.1104
    5SAPS   H9X  636   6.472   0.554   9.766  1.5048  0.0557 -1.5950
    5SAPS   H9Y  637   6.536   0.440   9.890 -0.7203  0.0336  1.4210
    5SAPS  C310  638   6.672   0.494   9.728 -0.7348 -0.5781 -0.1509
    5SAPS  H10X  639   6.764   0.513   9.788 -1.7529  3.3045  0.4542
    5SAPS  H10Y  640   6.677   0.564   9.641  1.1703 -0.3102  0.1136
    5SAPS  C311  641   6.664   0.356   9.669  0.2577 -0.5554 -0.3427
    5SAPS  H11X  642   6.643   0.288   9.754 -3.2281 -1.4622 -1.7538
    5SAPS  H11Y  643   6.766   0.335   9.629  0.5000  0.1259 -0.0998
    5SAPS  C312  644   6.556   0.341   9.569 -0.1159 -0.6852  0.9893
    5SAPS  H12X  645   6.457   0.356   9.618 -0.9961 -2.4690 -0.1152
    5SAPS  H12Y  646   6.553   0.232   9.546 -1.6878 -0.7469  1.3692
    5SAPS  C313  647   6.555   0.420   9.435  0.1976  0.5983 -1.0768
    5SAPS  H13X  648   6.536   0.522   9.473 -3.7565 -0.7254  1.0205
    5SAPS  H13Y  649   6.464   0.401   9.375 -1.2872  1.7881  0.7066
    5SAPS  C314  650   6.677   0.411   9.356 -0.4024  0.4393  0.2412
    5SAPS  H14X  651   6.703   0.303   9.358  0.6138  0.6489 -0.9051
    5SAPS  H14Y  652   6.768   0.461   9.396  0.2506 -0.3241 -0.2694
    5SAPS  C315  653   6.655   0.445   9.214 -0.0601  0.1716 -0.2028
    5SAPS  H15X  654   6.596   0.539   9.214  2.0230  1.5691 -0.7650
    5SAPS  H15Y  655   6.589   0.372   9.163  0.1546  1.7001 -2.8288
    5SAPS  C316  656   6.779   0.472   9.127  0.4346 -0.4191 -0.7319
    5SAPS  H16X  657   6.826   0.373   9.114  0.6308 -0.3362 -0.6722
    5SAPS  H16Y  658   6.845   0.542   9.183 -1.8536 -0.5556  2.4229
    5SAPS  C317  659   6.751   0.538   8.993 -0.9351 -0.5316 -0.2193
    5SAPS  H17X  660   6.693   0.629   9.019 -1.2741 -1.0586  0.9347
    5SAPS  H17Y  661   6.690   0.477   8.923 -0.5377 -0.2243 -0.8406
    5SAPS  C318  662   6.878   0.585   8.920  0.2813  0.5189  0.6542
    5SAPS  H18X  663   6.925   0.661   8.986 -1.3203  1.1987  1.0504
    5SAPS  H18Y  664   6.855   0.625   8.819 -0.2782  0.6345  0.8240
    5SAPS  H18Z  665   6.951   0.500   8.915 -0.1811  0.1143  0.6778
    6SAPS     N  666   0.138   6.252  10.700 -0.1376 -0.0067 -0.4806
    6SAPS   HN1  667   0.224   6.196  10.719 -0.5696 -0.5816 -0.1782
    6SAPS   HN2  668   0.059   6.187  10.719  0.6404 -0.7761  0.2077
    6SAPS   HN3  669   0.131   6.264  10.597  0.3153 -0.6616 -0.5979
    6SAPS   C12  670   0.114   6.371  10.790  0.6248 -0.2234 -0.4600
    6SAPS  H12A  671   0.102   6.337  10.892 -0.3400 -0.5696 -0.6699
    6SAPS   C13  672   0.222   6.475  10.785  0.6199 -0.1761  0.8680
    6SAPS  O13A  673   0.335   6.444  10.731 -0.3502  0.3499 -0.0245
    6SAPS  O13B  674   0.226   6.562  10.870  0.3765  0.1437  0.1016
    6SAPS   C11  675  -0.014   6.437  10.740  0.4427 -0.2825 -0.1061
    6SAPS  H11A  676  -0.004   6.468  10.634 -1.9231  0.7043 -0.1056
    6SAPS  H11B  677  -0.025   6.531  10.797  1.4143 -0.2635  0.0644
    6SAPS     P  678  -0.270   6.403  10.711  0.1290 -0.2554  0.1010
    6SAPS   O13  679  -0.346   6.452  10.821 -0.0544 -0.9645 -0.6392
    6SAPS   O14  680  -0.255   6.491  10.594  0.2419 -0.0373 -0.0297
    6SAPS   O12  681  -0.127   6.351  10.760  0.4072 -0.2768  0.6037
    6SAPS   O11  682  -0.333   6.265  10.678  0.1148  0.7133  0.3673
    6SAPS    C1  683  -0.270   6.166  10.598  0.1017 -0.3128  1.1296
    6SAPS    HA  684  -0.166   6.201  10.576  0.8551 -1.0940  3.2092
    6SAPS    HB  685  -0.263   6.073  10.659  0.9244  0.1944  1.8446
    6SAPS    C2  686  -0.356   6.149  10.467 -0.1115  0.4935  0.0761
    6SAPS    HS  687  -0.311   6.071  10.402 -0.2925  0.3981  0.0633
    6SAPS   O21  688  -0.372   6.271  10.388 -0.0015  0.2056 -0.5488
    6SAPS   C21  689  -0.259   6.317  10.341  0.6260  0.5447  0.5959
    6SAPS   O22  690  -0.148   6.267  10.346 -0.4470  0.2148 -0.2762
    6SAPS   C22  691  -0.294   6.432  10.254  0.1142 -0.1136  0.2807
    6SAPS   H2R  692  -0.344   6.513  10.312  0.2058  0.4676 -0.4268
    6SAPS   H2S  693  -0.199   6.477  10.217  0.6767 -3.6969 -3.3071
    6SAPS    C3  694  -0.502   6.094  10.485  0.0915 -0.6557 -0.8592
    6SAPS    HX  695  -0.547   6.159  10.564 -0.3696 -1.4925 -0.4178
    6SAPS    HY  696  -0.498   6.001  10.546  1.4381 -1.2309 -1.7782
    6SAPS   O31  697  -0.584   6.102  10.365 -0.1377  0.6414 -0.4935
    6SAPS   C31  698  -0.585   5.988  10.291  0.1082  0.7026  0.2149
    6SAPS   O32  699  -0.521   5.891  10.316  0.0938  0.6161 -0.3591
    6SAPS   C32  700  -0.667   6.011  10.164  0.4829 -0.0864  0.1517
    6SAPS   H2X  701  -0.730   6.101  10.181  1.4653  0.6198  0.1364
    6SAPS   H2Y  702  -0.737   5.925  10.150  0.9056 -0.3888 -0.1180
    6SAPS   C23  703  -0.372   6.392  10.123 -0.3490  0.9448  0.2668
    6SAPS   H3R  704  -0.469   6.351  10.157 -0.0773  0.7864  0.8551
    6SAPS   H3S  705  -0.312   6.309  10.080  1.1177  0.8300  2.3757
    6SAPS   C24  706  -0.392   6.510  10.030  0.5338  0.5384 -0.2674
    6SAPS   H4R  707  -0.441   6.592  10.087 -0.4528  0.1361 -0.5186
    6SAPS   H4S  708  -0.472   6.485   9.958  0.9182 -0.5696 -0.3287
    6SAPS   C25  709  -0.267   6.558   9.955  0.8988  0.0422 -0.1147
    6SAPS   H5R  710  -0.193   6.616  10.013  0.5945 -0.6168  0.9665
    6SAPS   C26  711  -0.240   6.521   9.825 -0.3840  1.1462  0.1907
    6SAPS   H6R  712  -0.149   6.545   9.767  0.6977  0.5913  1.5904
    6SAPS   C27  713  -0.347   6.435   9.753 -0.6564 -0.0914  0.3051
    6SAPS   H7R  714  -0.437   6.499   9.741 -0.4693 -0.0685 -1.1691
    6SAPS   H7S  715  -0.385   6.346   9.807  3.7177 -1.0952  2.2207
    6SAPS   C28  716  -0.290   6.392   9.617 -0.4599  0.3999 -0.7692
    6SAPS   H8R  717  -0.240   6.294   9.609  0.2792  0.9305 -4.0213
    6SAPS   C29  718  -0.298   6.459   9.507 -0.6277 -0.5972  0.3819
    6SAPS   H9R  719  -0.243   6.413   9.424 -1.0636 -3.1753  1.4505
    6SAPS  C210  720  -0.352   6.598   9.476 -0.1215  0.2928  0.7345
    6SAPS  H10R  721  -0.445   6.629   9.529  0.9424  3.5305  0.8598
    6SAPS  H10S  722  -0.382   6.602   9.369  1.0249  1.0336  0.4269
    6SAPS  C211  723  -0.254   6.706   9.510  0.0740  0.1368 -0.9472
    6SAPS  H11R  724  -0.220   6.708   9.615 -0.7154  2.7172 -0.6523
    6SAPS  C212  725  -0.204   6.806   9.435  0.5783  0.2319 -0.4414
    6SAPS  H12R  726  -0.129   6.876   9.476 -0.5990  0.9965  0.4986
    6SAPS  C213  727  -0.226   6.820   9.286  0.7884  0.0487 -0.4275
    6SAPS  H13R  728  -0.194   6.918   9.246 -0.3908  0.7212  0.2353
    6SAPS  H13S  729  -0.334   6.811   9.261  1.0098 -1.6129 -0.9240
    6SAPS  C214  730  -0.149   6.711   9.213  0.3464 -0.4227  0.6786
    6SAPS  H14R  731  -0.195   6.612   9.230  1.5770 -1.5290 -1.8258
    6SAPS  C215  732  -0.046   6.719   9.130 -0.1281 -1.1268 -0.0598
    6SAPS  H15R  733   0.006   6.631   9.088  2.4338  0.6288 -0.8019
    6SAPS  C216  734   0.038   6.842   9.109  0.7319 -0.5098 -0.0802
    6SAPS  H16R  735   0.140   6.826   9.150  0.5530  1.0125  1.0719
    6SAPS  H16S  736  -0.005   6.931   9.160 -2.4954  0.1512 -3.5233
    6SAPS  C217  737   0.047   6.888   8.962 -0.7343 -0.2065 -0.3139
    6SAPS  H17R  738   0.096   6.805   8.907  1.4278  0.4236  0.5393
    6SAPS  H17S  739   0.115   6.976   8.971 -0.7758 -0.3510  1.8611
    6SAPS  C218  740  -0.090   6.922   8.900 -0.5440  0.5870  0.5914
    6SAPS  H18R  741  -0.134   7.008   8.955  1.4845  2.1281 -0.0560
    6SAPS  H18S  742  -0.156   6.835   8.919 -0.4771  0.4466  0.1851
    6SAPS  C219  743  -0.073   6.962   8.758 -0.1138 -0.0593  0.3794
    6SAPS  H19R  744  -0.057   6.866   8.704 -0.0185  0.6702 -0.9389
    6SAPS  H19S  745   0.013   7.032   8.761  0.8697 -1.1339  4.9386
    6SAPS  C220  746  -0.203   7.030   8.708 -1.3456  0.2773 -0.5609
    6SAPS  H20R  747  -0.278   6.949   8.715  1.3346 -2.2345  1.8186
    6SAPS  H20S  748  -0.191   7.066   8.604  1.2183  1.1773 -0.0324
    6SAPS  H20T  749  -0.227   7.113   8.778 -0.6360 -1.9740  2.5715
    6SAPS   C33  750  -0.574   6.040  10.045 -0.0762 -1.0419  0.2937
    6SAPS   H3X  751  -0.492   6.104  10.085 -0.8393  0.4458 -0.4451
    6SAPS   H3Y  752  -0.621   6.096   9.962  0.9370  0.0773  0.4506
    6SAPS   C34  753  -0.514   5.919   9.978  0.3624  0.0096  1.1055
    6SAPS   H4X  754  -0.592   5.846   9.947  0.1933  1.4863 -2.4429
    6SAPS   H4Y  755  -0.460   5.860  10.056 -0.6940  0.4634  2.2158
    6SAPS   C35  756  -0.418   5.938   9.849  0.7163  0.6614  0.5008
    6SAPS   H5X  757  -0.361   5.843   9.839  0.3006  0.4125  0.4576
    6SAPS   H5Y  758  -0.344   6.020   9.856  1.5852 -0.1369  0.8608
    6SAPS   C36  759  -0.490   5.941   9.710 -0.1244  0.2253  0.1941
    6SAPS   H6X  760  -0.583   5.881   9.709 -0.1276  0.2298  0.3446
    6SAPS   H6Y  761  -0.414   5.910   9.635  1.7418  0.9859  1.6802
    6SAPS   C37  762  -0.528   6.082   9.675  0.2065 -0.1054  1.0569
    6SAPS   H7X  763  -0.437   6.146   9.669 -0.7978  1.2756 -0.2547
    6SAPS   H7Y  764  -0.575   6.117   9.769  0.4331 -0.1061  1.1704
    6SAPS   C38  765  -0.619   6.103   9.551 -0.4677  0.0813  0.0489
    6SAPS   H8X  766  -0.676   6.198   9.561 -3.7081 -1.1379 -3.8853
    6SAPS   H8Y  767  -0.695   6.022   9.545  0.0728 -0.4188 -0.1085
    6SAPS   C39  768  -0.541   6.091   9.424  0.1869 -0.0287  0.1978
    6SAPS   H9X  769  -0.476   6.002   9.436  0.0754 -0.3401 -1.3092
    6SAPS   H9Y  770  -0.475   6.179   9.409 -0.5344  0.3378 -0.9766
    6SAPS  C310  771  -0.615   6.066   9.287  0.0337 -0.2561  0.1244
    6SAPS  H10X  772  -0.646   6.160   9.236 -0.1320 -0.7087 -0.6383
    6SAPS  H10Y  773  -0.696   5.990   9.296 -0.6731  0.2207 -1.7398
    6SAPS  C311  774  -0.524   5.991   9.178  0.3063 -0.8035  0.5284
    6SAPS  H11X  775  -0.457   5.913   9.218  3.0513  0.2146 -1.6988
    6SAPS  H11Y  776  -0.461   6.069   9.130 -1.1829  0.9950  1.3620
    6SAPS  C312  777  -0.615   5.924   9.075 -0.5869 -0.0145  0.0995
    6SAPS  H12X  778  -0.709   5.982   9.066 -1.0120 -0.4343  1.5700
    6SAPS  H12Y  779  -0.648   5.825   9.114  3.5611 -1.0707  1.3841
    6SAPS  C313  780  -0.542   5.922   8.941 -0.0805  0.0469  0.1290
    6SAPS  H13X  781  -0.446   5.869   8.958 -1.1514 -2.0589  0.0274
    6SAPS  H13Y  782  -0.544   6.025   8.900 -2.6696  0.2503  0.6284
    6SAPS  C314  783  -0.620   5.847   8.830  0.1066 -0.1459  0.3370
    6SAPS  H14X  784  -0.533   5.827   8.764  0.2528  0.8141  0.2282
    6SAPS  H14Y  785  -0.707   5.902   8.788  0.0398  0.6769  1.5126
    6SAPS  C315  786  -0.682   5.711   8.877 -0.5145  0.0588  0.1934
    6SAPS  H15X  787  -0.764   5.727   8.950 -1.2517 -0.7661 -0.4284
    6SAPS  H15Y  788  -0.603   5.649   8.923  0.7935  0.5616 -1.2731
    6SAPS  C316  789  -0.740   5.629   8.762  0.5671  0.3056 -0.4670
    6SAPS  H16X  790  -0.785   5.533   8.796 -1.4826  1.0468 -0.8993
    6SAPS  H16Y  791  -0.656   5.601   8.695  1.4423  0.1705  0.6726
    6SAPS  C317  792  -0.841   5.703   8.677  0.7934 -0.1155 -0.8248
    6SAPS  H17X  793  -0.796   5.789   8.622  0.2025 -0.1098 -1.2976
    6SAPS  H17Y  794  -0.923   5.738   8.743 -0.5964 -3.5952 -0.4693
    6SAPS  C318  795  -0.920   5.612   8.576  0.3537  0.4888  0.6651
    6SAPS  H18X  796  -0.849   5.574   8.500 -0.3618  0.7805 -0.1696
    6SAPS  H18Y  797  -0.993   5.673   8.519  1.5076  1.0968 -0.1966
    6SAPS  H18Z  798  -0.955   5.527   8.639  1.8107 -0.0534  0.7642
    7SAPS     N  799   0.942   1.455  10.949  0.2117  0.7069  0.1666
    7SAPS   HN1  800   0.922   1.369  11.004  2.4746  0.5510  0.8304
    7SAPS   HN2  801   0.865   1.523  10.966  1.3329  1.6228  1.8772
    7SAPS   HN3  802   0.937   1.434  10.847  0.4393 -1.4912  0.5635
    7SAPS   C12  803   1.076   1.506  10.973  0.2700 -1.0594  0.2465
    7SAPS  H12A  804   1.088   1.592  10.910  0.3531 -1.3567 -0.1460
    7SAPS   C13  805   1.103   1.546  11.118  0.9765  0.3963 -0.2360
    7SAPS  O13A  806   1.022   1.524  11.210 -0.1298  0.6646 -0.2527
    7SAPS  O13B  807   1.216   1.595  11.147  0.2144 -0.1811 -0.2268
    7SAPS   C11  808   1.181   1.402  10.926  0.1428  0.0002  0.0987
    7SAPS  H11A  809   1.157   1.309  10.982 -2.1035  0.0857 -0.6256
    7SAPS  H11B  810   1.279   1.450  10.944 -0.1163  2.2558 -3.5035
    7SAPS     P  811   1.257   1.255  10.730  0.1346 -0.1345  0.2595
    7SAPS   O13  812   1.299   1.165  10.840  0.3640  0.1504  0.5468
    7SAPS   O14  813   1.191   1.187  10.620  0.3069 -0.0593  1.1430
    7SAPS   O12  814   1.171   1.377  10.784  0.1632  0.7407  0.0393
    7SAPS   O11  815   1.387   1.327  10.670 -0.2685 -0.0207 -0.3826
    7SAPS    C1  816   1.383   1.471  10.642 -0.0732 -0.0789  0.0111
    7SAPS    HA  817   1.340   1.522  10.731 -0.9076 -0.1346 -0.3463
    7SAPS    HB  818   1.488   1.505  10.628  1.9054 -4.4775  2.3600
    7SAPS    C2  819   1.296   1.510  10.519  0.7599  0.4727  0.3603
    7SAPS    HS  820   1.197   1.470  10.550  1.3868  0.3067  2.2969
    7SAPS   O21  821   1.343   1.454  10.398 -0.0958  0.3180 -0.4271
    7SAPS   C21  822   1.249   1.415  10.327  0.5952  0.1549 -0.6191
    7SAPS   O22  823   1.128   1.441  10.338  0.0856 -0.3569  0.0490
    7SAPS   C22  824   1.307   1.360  10.204 -0.2919 -0.0245 -0.1602
    7SAPS   H2R  825   1.359   1.438  10.143  1.5381 -1.5236 -0.6318
    7SAPS   H2S  826   1.401   1.305  10.229  0.0179  1.3910  2.0474
    7SAPS    C3  827   1.283   1.666  10.501  0.3865  0.2941  0.6418
    7SAPS    HX  828   1.384   1.703  10.472  0.0807  1.5990  1.1833
    7SAPS    HY  829   1.255   1.705  10.601  1.9339 -1.8272  2.0048
    7SAPS   O31  830   1.185   1.703  10.402  0.7451 -0.3484 -0.7696
    7SAPS   C31  831   1.062   1.713  10.449  0.3383  0.3694 -0.4560
    7SAPS   O32  832   1.030   1.708  10.568  0.2449 -0.0931  0.2975
    7SAPS   C32  833   0.968   1.708  10.332  0.3372 -0.1206 -0.4079
    7SAPS   H2X  834   0.880   1.763  10.372  0.6202 -1.0689  1.6556
    7SAPS   H2Y  835   0.947   1.602  10.307  1.2486 -0.3794 -0.1099
    7SAPS   C23  836   1.212   1.292  10.103  0.3038  0.5453 -0.0133
    7SAPS   H3R  837   1.150   1.208  10.140 -0.8126  1.0006 -0.7700
    7SAPS   H3S  838   1.284   1.234  10.041  1.7081  1.5017  0.6607
    7SAPS   C24  839   1.134   1.394  10.012  0.2972 -0.2240  0.2934
    7SAPS   H4R  840   1.217   1.444   9.958  0.1653 -1.3088 -0.9753
    7SAPS   H4S  841   1.071   1.462  10.073 -0.6159 -2.0125  1.4272
    7SAPS   C25  842   1.041   1.321   9.922  0.3528 -0.2573 -0.4319
    7SAPS   H5R  843   0.985   1.246   9.980  1.6322 -0.0182  1.2086
    7SAPS   C26  844   1.024   1.332   9.784 -0.4760  0.6516 -0.2485
    7SAPS   H6R  845   0.949   1.265   9.739 -1.0368  0.5457  0.7968
    7SAPS   C27  846   1.093   1.433   9.694  0.1094  0.1334  0.0177
    7SAPS   H7R  847   1.183   1.375   9.667 -1.4397 -1.5920 -1.7988
    7SAPS   H7S  848   1.107   1.527   9.753  1.9069  0.2570 -0.5754
    7SAPS   C28  849   1.027   1.461   9.558 -0.3876  0.7772 -0.2228
    7SAPS   H8R  850   0.929   1.413   9.548  0.7626 -1.3755 -2.7357
    7SAPS   C29  851   1.079   1.528   9.452 -0.2266  0.3403  0.7592
    7SAPS   H9R  852   1.018   1.533   9.361 -1.1009 -0.5619  1.2765
    7SAPS  C210  853   1.210   1.598   9.438  0.5324 -0.0111 -0.3714
    7SAPS  H10R  854   1.251   1.614   9.541  2.7205 -1.2749 -0.9851
    7SAPS  H10S  855   1.193   1.698   9.392 -0.2391  1.1897  2.3111
    7SAPS  C211  856   1.316   1.530   9.350 -0.2463 -0.4106 -0.7525
    7SAPS  H11R  857   1.403   1.511   9.414 -1.8978  0.3722  1.9088
    7SAPS  C212  858   1.318   1.512   9.217 -0.8321 -1.0492  0.3051
    7SAPS  H12R  859   1.403   1.465   9.166 -1.0293 -0.7917 -0.2630
    7SAPS  C213  860   1.207   1.547   9.120 -0.0514 -0.3841 -0.1920
    7SAPS  H13R  861   1.111   1.559   9.175  0.3195 -3.5797  1.4238
    7SAPS  H13S  862   1.189   1.460   9.054 -1.2468  0.7087 -1.3532
    7SAPS  C214  863   1.254   1.664   9.038 -0.8609  0.4290  0.0672
    7SAPS  H14R  864   1.244   1.761   9.091  0.5851  0.1012  1.0232
    7SAPS  C215  865   1.311   1.665   8.913  0.4568  0.0977  0.8213
    7SAPS  H15R  866   1.351   1.755   8.864  2.9661 -1.9223 -1.1445
    7SAPS  C216  867   1.323   1.540   8.830  0.3753 -0.7737 -0.2945
    7SAPS  H16R  868   1.310   1.567   8.723 -0.2073 -1.1956 -0.3361
    7SAPS  H16S  869   1.237   1.473   8.853 -0.3461 -0.3430 -1.6408
    7SAPS  C217  870   1.450   1.457   8.820  0.9080  0.2340 -0.4073
    7SAPS  H17R  871   1.442   1.411   8.719  0.5832  1.2965 -0.8749
    7SAPS  H17S  872   1.446   1.377   8.897  1.7707 -0.3619 -0.9605
    7SAPS  C218  873   1.577   1.548   8.810 -0.0956 -0.6961  0.3507
    7SAPS  H18R  874   1.583   1.606   8.904  0.9318  0.1804 -0.2351
    7SAPS  H18S  875   1.572   1.633   8.739  0.3805  0.3055  1.4755
    7SAPS  C219  876   1.718   1.474   8.804  0.7055  0.7589 -0.0788
    7SAPS  H19R  877   1.804   1.544   8.795 -0.0999  1.6965 -0.6590
    7SAPS  H19S  878   1.719   1.427   8.703 -0.8267 -2.3596  1.2304
    7SAPS  C220  879   1.736   1.368   8.909 -0.5187  0.5794 -1.0450
    7SAPS  H20R  880   1.837   1.377   8.954 -1.4535 -0.7600  1.5596
    7SAPS  H20S  881   1.730   1.266   8.867  1.0593  0.2146 -0.4416
    7SAPS  H20T  882   1.661   1.388   8.989  0.4042  2.3348 -0.5610
    7SAPS   C33  883   1.021   1.776  10.201  0.4882  0.4081 -0.7789
    7SAPS   H3X  884   1.115   1.724  10.171  0.2753 -0.2134 -0.3822
    7SAPS   H3Y  885   1.044   1.885  10.197  0.3056  0.4913  0.1674
    7SAPS   C34  886   0.918   1.743  10.092 -0.6787 -0.1860  0.0703
    7SAPS   H4X  887   0.820   1.792  10.109  0.2685  1.9180 -0.2023
    7SAPS   H4Y  888   0.899   1.634  10.086  0.8325 -0.4129 -1.4808
    7SAPS   C35  889   0.968   1.787   9.954  0.8423  0.2560  0.1755
    7SAPS   H5X  890   1.056   1.720   9.939 -0.8581 -1.6568 -1.7546
    7SAPS   H5Y  891   0.998   1.893   9.969  1.7721 -0.1536  1.4482
    7SAPS   C36  892   0.869   1.752   9.838 -0.3505  0.6186 -0.2907
    7SAPS   H6X  893   0.776   1.800   9.875 -0.6350 -1.0744  1.3054
    7SAPS   H6Y  894   0.865   1.641   9.833  1.5095  0.4926  0.4368
    7SAPS   C37  895   0.929   1.807   9.707  0.8655  0.0987  0.2850
    7SAPS   H7X  896   1.020   1.751   9.675  0.0901 -0.9170 -0.1995
    7SAPS   H7Y  897   0.960   1.909   9.737 -0.4690  0.5371  0.2510
    7SAPS   C38  898   0.833   1.800   9.587 -0.3545  1.1975 -0.4961
    7SAPS   H8X  899   0.743   1.861   9.609 -0.3999  0.8735  0.2630
    7SAPS   H8Y  900   0.808   1.692   9.586 -0.4154  1.1873  0.4450
    7SAPS   C39  901   0.900   1.848   9.458  0.3277  0.0129 -1.2557
    7SAPS   H9X  902   0.992   1.787   9.441  0.3084 -0.8045  1.2315
    7SAPS   H9Y  903   0.934   1.952   9.475 -3.1932  1.2995 -1.4299
    7SAPS  C310  904   0.796   1.830   9.342 -0.0699 -0.6130  0.3252
    7SAPS  H10X  905   0.707   1.895   9.357  0.9613  0.9577 -0.0233
    7SAPS  H10Y  906   0.754   1.728   9.335 -0.4246 -0.5903  1.7838
    7SAPS  C311  907   0.853   1.876   9.204  0.0194  0.3066  0.0474
    7SAPS  H11X  908   0.950   1.828   9.185 -1.3256 -2.8054  0.4874
    7SAPS  H11Y  909   0.857   1.987   9.214  2.0597  0.1913  1.0705
    7SAPS  C312  910   0.752   1.833   9.099  0.1305  0.0081  0.4127
    7SAPS  H12X  911   0.670   1.907   9.093  1.7381  1.7566 -1.2984
    7SAPS  H12Y  912   0.716   1.731   9.126 -2.1096  0.8688  0.7965
    7SAPS  C313  913   0.818   1.819   8.960  0.1516 -0.5046  0.3562
    7SAPS  H13X  914   0.927   1.805   8.978  0.5609 -0.7378 -1.9318
    7SAPS  H13Y  915   0.803   1.920   8.916 -0.7834 -0.6010  0.4368
    7SAPS  C314  916   0.767   1.710   8.864  0.5416  0.3993 -0.7380
    7SAPS  H14X  917   0.773   1.747   8.759 -1.1447 -0.3295 -1.1243
    7SAPS  H14Y  918   0.659   1.692   8.883  0.7098 -0.3149 -0.4242
    7SAPS  C315  919   0.845   1.583   8.875  0.3745 -1.0651  0.5818
    7SAPS  H15X  920   0.829   1.546   8.979 -1.6800  0.0333  0.7163
    7SAPS  H15Y  921   0.955   1.593   8.867  0.4819 -1.3946  1.5051
    7SAPS  C316  922   0.803   1.470   8.770  0.3976 -0.5174 -0.0023
    7SAPS  H16X  923   0.863   1.379   8.791  0.5831 -0.8386 -1.8199
    7SAPS  H16Y  924   0.809   1.494   8.662 -3.2634  1.7102  0.1235
    7SAPS  C317  925   0.659   1.415   8.771  0.6325 -0.6624  0.3880
    7SAPS  H17X  926   0.653   1.340   8.690  1.7075 -1.1490  0.7451
    7SAPS  H17Y  927   0.596   1.494   8.725  0.0693 -1.5956 -0.4735
    7SAPS  C318  928   0.604   1.363   8.903  0.0106  0.6035 -0.0675
    7SAPS  H18X  929   0.591   1.443   8.980  1.0694  0.7006  0.0177
    7SAPS  H18Y  930   0.674   1.283   8.934  0.1838  0.5409 -0.6104
    7SAPS  H18Z  931   0.500   1.326   8.890 -0.3584  1.0262  1.4568
    8SAPS     N  932   0.988   2.989  11.430 -0.3209 -0.5489 -0.2428
    8SAPS   HN1  933   0.948   2.936  11.350  1.4534  0.1813 -1.6768
    8SAPS   HN2  934   1.005   3.088  11.403  2.5515 -0.2489  2.1370
    8SAPS   HN3  935   1.076   2.939  11.453  0.1020 -1.8086 -3.9618
    8SAPS   C12  936   0.894   2.996  11.546  0.3104 -0.1701 -0.1221
    8SAPS  H12A  937   0.873   2.894  11.577 -0.6100  0.0255 -0.0908
    8SAPS   C13  938   0.953   3.083  11.662 -0.3410  0.2949 -0.6935
    8SAPS  O13A  939   1.055   3.153  11.644 -0.4373  0.1471 -0.0823
    8SAPS  O13B  940   0.891   3.091  11.771  1.0252 -0.1633  0.7979
    8SAPS   C11  941   0.760   3.061  11.499  0.1937 -0.2215  0.0195
    8SAPS  H11A  942   0.774   3.164  11.460 -0.3347 -0.3508 -0.5240
    8SAPS  H11B  943   0.706   3.063  11.596 -0.8445 -2.2489 -0.4730
    8SAPS     P  944   0.542   2.987  11.365 -0.0319 -0.1273  0.0658
    8SAPS   O13  945   0.459   2.952  11.486  0.0417 -0.3082  0.6861
    8SAPS   O14  946   0.515   3.127  11.310  0.5274  0.0887 -0.0844
    8SAPS   O12  947   0.700   2.971  11.399  0.1920 -0.5876 -0.3769
    8SAPS   O11  948   0.519   2.875  11.247 -0.3050 -0.3179 -0.0576
    8SAPS    C1  949   0.629   2.815  11.173  0.7605 -0.0160 -0.3942
    8SAPS    HA  950   0.700   2.757  11.236 -0.0582  1.0228  1.6000
    8SAPS    HB  951   0.574   2.734  11.121 -1.2559 -0.1876  1.8348
    8SAPS    C2  952   0.678   2.903  11.055 -0.3092 -0.4734  0.1701
    8SAPS    HS  953   0.738   2.986  11.097 -0.3914  0.3519 -1.2646
    8SAPS   O21  954   0.569   2.951  10.968 -0.0894  0.0378  0.5127
    8SAPS   C21  955   0.597   3.060  10.900 -0.3688  0.3084 -0.2181
    8SAPS   O22  956   0.701   3.122  10.916  0.6125 -0.2889 -0.5442
    8SAPS   C22  957   0.490   3.100  10.802 -0.4169 -0.6368 -0.1126
    8SAPS   H2R  958   0.422   3.016  10.777 -4.3744  1.1458  3.3905
    8SAPS   H2S  959   0.434   3.179  10.856  2.4724  2.2852 -1.0709
    8SAPS    C3  960   0.788   2.827  10.981 -0.2986 -0.1547  0.1276
    8SAPS    HX  961   0.862   2.791  11.056 -0.3409  0.8058  0.6529
    8SAPS    HY  962   0.841   2.899  10.916  1.6256 -0.3214  1.4376
    8SAPS   O31  963   0.735   2.716  10.907 -0.3120 -0.1153 -0.5646
    8SAPS   C31  964   0.822   2.643  10.837 -0.4656 -0.5685 -0.0774
    8SAPS   O32  965   0.943   2.673  10.827  0.4416  0.2038  0.0434
    8SAPS   C32  966   0.751   2.522  10.770  0.1596 -0.1096  0.9590
    8SAPS   H2X  967   0.673   2.481  10.837 -0.5325 -0.4094 -0.0043
    8SAPS   H2Y  968   0.828   2.442  10.760  0.7297  0.6031 -0.7200
    8SAPS   C23  969   0.535   3.167  10.673 -0.0940  0.3361  0.1150
    8SAPS   H3R  970   0.612   3.247  10.684  0.1489  0.4107 -1.7639
    8SAPS   H3S  971   0.444   3.222  10.641  0.0259  0.1003 -0.6594
    8SAPS   C24  972   0.586   3.072  10.568  1.1304  0.0549 -0.0696
    8SAPS   H4R  973   0.667   3.020  10.625  0.3344 -0.0114  1.0318
    8SAPS   H4S  974   0.637   3.134  10.491 -0.6202  1.8666  0.1598
    8SAPS   C25  975   0.501   2.968  10.503  0.3738 -0.2288 -0.1236
    8SAPS   H5R  976   0.481   2.885  10.572 -0.5923  0.9621  1.0790
    8SAPS   C26  977   0.450   2.966  10.381  0.6507  0.7865  0.0301
    8SAPS   H6R  978   0.380   2.885  10.354  0.4698  0.8283  0.3719
    8SAPS   C27  979   0.477   3.066  10.274 -0.1300  0.1700 -0.0306
    8SAPS   H7R  980   0.573   3.114  10.305 -1.1861  2.4687 -0.0666
    8SAPS   H7S  981   0.394   3.140  10.276 -0.7285 -0.3066 -2.6914
    8SAPS   C28  982   0.505   3.006  10.139  0.0087  0.0365 -0.6002
    8SAPS   H8R  983   0.567   2.915  10.146  0.6859  0.4697 -0.9287
    8SAPS   C29  984   0.469   3.063  10.021 -0.4106 -0.1564  0.0604
    8SAPS   H9R  985   0.498   3.013   9.927  0.7945  1.1720 -0.3160
    8SAPS  C210  986   0.399   3.194  10.004 -0.0606  0.5793  0.3690
    8SAPS  H10R  987   0.367   3.235  10.102  0.7609 -1.0356  1.3435
    8SAPS  H10S  988   0.306   3.167   9.949  0.7703  1.3438 -1.5104
    8SAPS  C211  989   0.477   3.300   9.925 -0.4264 -0.1215  0.5165
    8SAPS  H11R  990   0.536   3.376   9.979 -0.8245  1.3737 -1.0569
    8SAPS  C212  991   0.485   3.311   9.791  0.6348 -0.0517  0.0941
    8SAPS  H12R  992   0.567   3.371   9.748  1.2651 -1.1956 -0.3409
    8SAPS  C213  993   0.405   3.232   9.688  0.2792 -0.1853  0.2862
    8SAPS  H13R  994   0.388   3.309   9.610 -1.0121  0.9231  1.5808
    8SAPS  H13S  995   0.307   3.201   9.731  1.4505 -1.6408  2.1114
    8SAPS  C214  996   0.474   3.113   9.642 -0.9862 -0.0165  0.2494
    8SAPS  H14R  997   0.514   3.044   9.718  0.8818  1.5169  0.7343
    8SAPS  C215  998   0.480   3.073   9.507 -0.1833  0.2062  0.3881
    8SAPS  H15R  999   0.533   2.980   9.482 -0.9580  0.1062 -1.0507
    8SAPS  C216 1000   0.411   3.146   9.390 -0.5829  0.2711  0.4534
    8SAPS  H16R 1001   0.350   3.233   9.421 -0.3184  0.6709 -0.1262
    8SAPS  H16S 1002   0.344   3.078   9.333  0.7437 -0.8719  0.2020
    8SAPS  C217 1003   0.527   3.181   9.294 -0.2530  0.4485  0.3575
    8SAPS  H17R 1004   0.598   3.242   9.353  2.0818 -2.1239  0.4207
    8SAPS  H17S 1005   0.480   3.246   9.216 -0.2932  0.3816  0.3261
    8SAPS  C218 1006   0.612   3.063   9.231  0.8784 -0.5223 -0.0102
    8SAPS  H18R 1007   0.548   2.979   9.197 -0.1435  0.5769 -0.8774
    8SAPS  H18S 1008   0.701   3.033   9.291  0.4189 -2.4782 -0.2659
    8SAPS  C219 1009   0.666   3.114   9.096  0.0047  0.3719  0.8858
    8SAPS  H19R 1010   0.737   3.197   9.116 -0.1121  0.6190  0.2939
    8SAPS  H19S 1011   0.584   3.153   9.031  0.7981  1.1156  0.2989
    8SAPS  C220 1012   0.749   3.013   9.012  0.0754 -0.1194 -0.9584
    8SAPS  H20R 1013   0.699   2.914   9.018  0.8427 -0.4467  1.6508
    8SAPS  H20S 1014   0.848   3.008   9.064 -0.7500 -0.5559  0.6352
    8SAPS  H20T 1015   0.748   3.046   8.906 -5.1454  1.7110 -0.6381
    8SAPS   C33 1016   0.683   2.564  10.637  0.7799 -0.6115  0.5159
    8SAPS   H3X 1017   0.602   2.634  10.666  0.2799 -1.2977  0.8099
    8SAPS   H3Y 1018   0.628   2.479  10.591  0.5610 -0.9075  1.3110
    8SAPS   C34 1019   0.769   2.603  10.525 -0.4442  0.5626 -0.0771
    8SAPS   H4X 1020   0.841   2.523  10.499 -1.0666  0.1761 -0.6272
    8SAPS   H4Y 1021   0.822   2.697  10.552 -3.1253  2.0217  0.4663
    8SAPS   C35 1022   0.696   2.637  10.393  0.0960 -0.1621 -0.5779
    8SAPS   H5X 1023   0.613   2.705  10.425  1.0150  0.0157  1.6084
    8SAPS   H5Y 1024   0.639   2.549  10.357 -0.6372  0.7020 -1.6268
    8SAPS   C36 1025   0.791   2.686  10.280  0.0527  0.7583 -0.3976
    8SAPS   H6X 1026   0.895   2.652  10.298 -0.0105  0.9693  0.4102
    8SAPS   H6Y 1027   0.781   2.797  10.281 -0.5006  0.7174  0.8631
    8SAPS   C37 1028   0.739   2.664  10.136  0.5236  0.3470  0.0356
    8SAPS   H7X 1029   0.630   2.657  10.120  0.6176 -1.8064  0.0594
    8SAPS   H7Y 1030   0.784   2.572  10.093 -1.1625  0.1623 -1.3896
    8SAPS   C38 1031   0.789   2.773  10.030  0.1473 -0.2855  0.4126
    8SAPS   H8X 1032   0.900   2.773  10.021  0.3758 -0.0822  2.7632
    8SAPS   H8Y 1033   0.765   2.873  10.071 -2.7059  0.1607 -2.0016
    8SAPS   C39 1034   0.718   2.766   9.894  0.5198 -0.0941 -0.0405
    8SAPS   H9X 1035   0.729   2.852   9.825 -1.8116  0.2827 -0.0036
    8SAPS   H9Y 1036   0.608   2.765   9.909  0.4523  0.6206 -0.4757
    8SAPS  C310 1037   0.747   2.632   9.823 -1.0568  0.1610 -1.0628
    8SAPS  H10X 1038   0.685   2.548   9.862 -1.4044  0.5563 -0.7638
    8SAPS  H10Y 1039   0.854   2.615   9.848 -1.5640 -0.9489  0.5209
    8SAPS  C311 1040   0.742   2.620   9.667  0.2574 -0.3741  0.4503
    8SAPS  H11X 1041   0.638   2.645   9.636  0.8370 -0.5337 -1.8246
    8SAPS  H11Y 1042   0.771   2.517   9.639 -1.3721 -0.6010 -0.5075
    8SAPS  C312 1043   0.844   2.717   9.603  0.3002 -0.2535  0.2264
    8SAPS  H12X 1044   0.946   2.693   9.640  0.8293  0.5562 -0.6584
    8SAPS  H12Y 1045   0.829   2.821   9.637  1.1171  0.2591 -0.9218
    8SAPS  C313 1046   0.842   2.696   9.445  0.2197  0.5572 -0.1487
    8SAPS  H13X 1047   0.926   2.758   9.409 -0.0003 -0.0951 -1.8497
    8SAPS  H13Y 1048   0.754   2.745   9.399  0.1500  0.6497  0.0822
    8SAPS  C314 1049   0.856   2.554   9.388  0.2024  0.5995  0.0345
    8SAPS  H14X 1050   0.758   2.501   9.393  0.9997 -0.7816  2.4879
    8SAPS  H14Y 1051   0.923   2.505   9.461 -0.0864  1.6958  1.0618
    8SAPS  C315 1052   0.928   2.550   9.248  0.0178 -0.0005 -0.2602
    8SAPS  H15X 1053   0.957   2.446   9.224  0.3589 -0.2511  1.1470
    8SAPS  H15Y 1054   1.026   2.601   9.259 -0.9139  1.9356 -0.5872
    8SAPS  C316 1055   0.849   2.606   9.133  0.6496 -0.1446  0.0257
    8SAPS  H16X 1056   0.825   2.714   9.144 -0.9341 -0.4144 -0.5658
    8SAPS  H16Y 1057   0.755   2.550   9.118  1.1900 -0.6698 -1.7157
    8SAPS  C317 1058   0.920   2.586   8.995  0.7992 -0.2817  0.4095
    8SAPS  H17X 1059   0.844   2.618   8.920  3.4254  0.4673 -2.0801
    8SAPS  H17Y 1060   0.912   2.476   8.979 -1.4978 -0.2242  0.7482
    8SAPS  C318 1061   1.056   2.649   8.978  0.9228 -0.1709  0.0288
    8SAPS  H18X 1062   1.052   2.753   9.016 -1.1019  0.0291 -0.6267
    8SAPS  H18Y 1063   1.086   2.641   8.871  0.5803 -0.2609 -0.0627
    8SAPS  H18Z 1064   1.124   2.577   9.028 -1.1891 -1.3411  1.3851
    9SAPS     N 1065   0.945   5.416   6.084  0.2225 -0.0167 -0.2896
    9SAPS   HN1 1066   0.924   5.328   6.032 -2.4974  0.4088 -0.0404
    9SAPS   HN2 1067   0.857   5.471   6.079  0.6185  0.8453  1.3988
    9SAPS   HN3 1068   1.023   5.463   6.034  0.4123 -1.0957 -1.0313
    9SAPS   C12 1069   0.990   5.387   6.226  0.0426  0.6553 -0.0264
    9SAPS  H12A 1070   0.927   5.307   6.261  0.2985  0.6332  0.3958
    9SAPS   C13 1071   1.130   5.328   6.235  0.7692 -0.6486  0.4573
    9SAPS  O13A 1072   1.219   5.358   6.149  0.1970 -0.4008  0.0617
    9SAPS  O13B 1073   1.173   5.303   6.354  0.4815  0.3618  0.5759
    9SAPS   C11 1074   0.975   5.511   6.318  0.3023 -0.2666 -0.2169
    9SAPS  H11A 1075   1.054   5.586   6.297 -0.1777 -0.1497 -1.7265
    9SAPS  H11B 1076   0.997   5.475   6.421 -1.7078  1.3993  0.8715
    9SAPS     P 1077   0.810   5.701   6.397  0.5335  0.3924 -0.0321
    9SAPS   O13 1078   0.913   5.802   6.370  0.8436  0.2325 -0.0322
    9SAPS   O14 1079   0.674   5.743   6.364 -0.4052  0.7018  0.2035
    9SAPS   O12 1080   0.843   5.572   6.307 -0.2334 -0.3234  0.6804
    9SAPS   O11 1081   0.823   5.661   6.549  0.4277  0.0684 -0.0403
    9SAPS    C1 1082   0.756   5.561   6.614  0.1376  0.5054 -0.3474
    9SAPS    HA 1083   0.647   5.581   6.605  0.1265  0.7944  0.3654
    9SAPS    HB 1084   0.779   5.463   6.566  0.5069  1.0557 -1.3125
    9SAPS    C2 1085   0.783   5.549   6.769  0.8060  0.4996 -0.3136
    9SAPS    HS 1086   0.693   5.491   6.799  0.5765 -0.2403 -2.3205
    9SAPS   O21 1087   0.780   5.667   6.847 -0.3640 -0.6125  0.1869
    9SAPS   C21 1088   0.660   5.733   6.857 -0.3613  0.1329 -0.0627
    9SAPS   O22 1089   0.564   5.720   6.786  0.0443 -0.6838 -0.0315
    9SAPS   C22 1090   0.664   5.824   6.974  0.4892 -0.1991  0.0245
    9SAPS   H2R 1091   0.769   5.843   7.005  0.0724  0.6298  0.9778
    9SAPS   H2S 1092   0.617   5.919   6.942 -0.5083 -1.1567 -1.4561
    9SAPS    C3 1093   0.919   5.469   6.803  0.3016  0.0406  0.4583
    9SAPS    HX 1094   0.998   5.526   6.749 -1.6621  2.3064 -0.2209
    9SAPS    HY 1095   0.914   5.367   6.761 -3.9990  0.4912 -0.5940
    9SAPS   O31 1096   0.946   5.470   6.945  0.1030 -0.2370  0.3304
    9SAPS   C31 1097   1.050   5.539   6.983 -0.6140  0.2087 -0.1377
    9SAPS   O32 1098   1.121   5.618   6.915 -0.0604 -0.5222  0.8382
    9SAPS   C32 1099   1.081   5.490   7.122 -0.4739 -0.5922 -0.6275
    9SAPS   H2X 1100   1.060   5.578   7.188 -0.4260  0.2486 -1.7009
    9SAPS   H2Y 1101   1.187   5.457   7.122 -0.4178 -0.4146 -0.6066
    9SAPS   C23 1102   0.578   5.780   7.098  0.3327 -0.2931  0.3376
    9SAPS   H3R 1103   0.472   5.756   7.075 -0.1071  1.4532  0.3916
    9SAPS   H3S 1104   0.571   5.867   7.167  0.1000 -0.0927  0.0648
    9SAPS   C24 1105   0.644   5.668   7.176 -0.4466  0.3093 -0.3535
    9SAPS   H4R 1106   0.598   5.672   7.277 -0.6205  0.9751 -0.4533
    9SAPS   H4S 1107   0.752   5.682   7.197 -0.5552 -0.6489  0.9615
    9SAPS   C25 1108   0.629   5.534   7.103  0.1609 -0.1041 -0.4977
    9SAPS   H5R 1109   0.605   5.537   6.996  0.7902  0.1874 -0.6328
    9SAPS   C26 1110   0.606   5.415   7.165  0.1229  0.2892  0.2919
    9SAPS   H6R 1111   0.599   5.333   7.093 -1.5720 -0.3300  1.0964
    9SAPS   C27 1112   0.602   5.388   7.316  0.2157 -0.3147  0.3417
    9SAPS   H7R 1113   0.616   5.478   7.380  0.1861  0.2415 -0.4258
    9SAPS   H7S 1114   0.685   5.320   7.345 -0.2760 -0.7460  0.7697
    9SAPS   C28 1115   0.472   5.333   7.371 -0.9526  0.4511 -0.0107
    9SAPS   H8R 1116   0.388   5.325   7.300 -0.4522 -1.2973 -0.4569
    9SAPS   C29 1117   0.447   5.299   7.498 -0.3453 -0.9818 -0.3563
    9SAPS   H9R 1118   0.343   5.269   7.518 -0.5035 -1.2318 -1.4575
    9SAPS  C210 1119   0.548   5.300   7.605 -0.0441 -0.3570  0.4303
    9SAPS  H10R 1120   0.635   5.238   7.577 -1.0917 -1.1334 -1.2313
    9SAPS  H10S 1121   0.504   5.239   7.686  1.3609 -0.9391  0.7875
    9SAPS  C211 1122   0.603   5.430   7.657  0.5045  0.1120 -0.0275
    9SAPS  H11R 1123   0.573   5.513   7.591  1.1434  0.1325 -0.3081
    9SAPS  C212 1124   0.681   5.451   7.766  0.0362 -0.4611  0.2397
    9SAPS  H12R 1125   0.717   5.553   7.789 -2.5220  0.7635 -0.7931
    9SAPS  C213 1126   0.730   5.344   7.862 -0.0445 -0.4514  0.4123
    9SAPS  H13R 1127   0.841   5.339   7.858  0.1160  2.4563 -2.1047
    9SAPS  H13S 1128   0.685   5.245   7.840 -0.4598 -0.2838  0.4969
    9SAPS  C214 1129   0.678   5.380   7.998  0.4503 -0.1663 -0.7843
    9SAPS  H14R 1130   0.569   5.369   8.006  0.1897  1.0626 -2.1217
    9SAPS  C215 1131   0.743   5.442   8.100 -0.3648 -0.2154 -0.1054
    9SAPS  H15R 1132   0.683   5.468   8.188 -0.4377  0.0795 -0.2388
    9SAPS  C216 1133   0.891   5.476   8.115  0.2655  0.2653  0.4915
    9SAPS  H16R 1134   0.900   5.579   8.157 -0.2095 -0.2069  1.8159
    9SAPS  H16S 1135   0.948   5.480   8.020  0.8624 -0.6522  0.7952
    9SAPS  C217 1136   0.950   5.388   8.234  0.7914 -0.4989  0.3221
    9SAPS  H17R 1137   0.915   5.284   8.216 -0.4902 -0.6929  3.3704
    9SAPS  H17S 1138   0.893   5.418   8.324 -1.6522  1.2121 -1.6429
    9SAPS  C218 1139   1.097   5.408   8.246  0.2948  0.3159  0.5076
    9SAPS  H18R 1140   1.129   5.340   8.327 -0.2000 -0.0481  0.4027
    9SAPS  H18S 1141   1.132   5.506   8.285  2.4162 -0.0263 -0.4080
    9SAPS  C219 1142   1.178   5.360   8.124 -0.1755  0.0002 -0.3811
    9SAPS  H19R 1143   1.156   5.429   8.040  0.2689  0.6909  0.0597
    9SAPS  H19S 1144   1.137   5.264   8.089  0.1475 -0.4691  0.4886
    9SAPS  C220 1145   1.323   5.332   8.133  0.3800 -0.5571  0.2483
    9SAPS  H20R 1146   1.380   5.411   8.187  1.4979  1.1163 -3.1210
    9SAPS  H20S 1147   1.369   5.332   8.032  0.2599  1.3985  0.1571
    9SAPS  H20T 1148   1.340   5.229   8.172 -0.5287 -0.3280  1.3010
    9SAPS   C33 1149   0.994   5.374   7.171 -0.6046 -0.6922 -0.3643
    9SAPS   H3X 1150   0.993   5.292   7.096 -3.6539 -2.1308  1.0384
    9SAPS   H3Y 1151   0.890   5.412   7.178  0.0496  1.0598  0.4457
    9SAPS   C34 1152   1.025   5.324   7.316 -0.6504 -0.3495  0.0970
    9SAPS   H4X 1153   1.130   5.288   7.319 -0.8680 -1.0664 -0.5564
    9SAPS   H4Y 1154   0.954   5.241   7.337 -1.7066  0.4193 -0.3857
    9SAPS   C35 1155   1.010   5.431   7.426 -0.0380 -0.3021  1.1358
    9SAPS   H5X 1156   0.923   5.495   7.402 -0.1568 -1.7047 -3.0277
    9SAPS   H5Y 1157   1.092   5.506   7.425  0.0926 -0.4412  1.2742
    9SAPS   C36 1158   0.995   5.370   7.568 -0.2029 -0.0784  0.0198
    9SAPS   H6X 1159   0.896   5.321   7.574  0.2962 -1.0105  0.8128
    9SAPS   H6Y 1160   0.994   5.458   7.636  2.0452 -0.1276  0.1936
    9SAPS   C37 1161   1.107   5.266   7.603  0.6098 -0.2782 -0.2525
    9SAPS   H7X 1162   1.202   5.324   7.602  0.5307 -0.1110  0.8022
    9SAPS   H7Y 1163   1.117   5.181   7.533  1.1905 -0.1216 -0.3584
    9SAPS   C38 1164   1.079   5.208   7.741  0.0572  0.4059  0.1576
    9SAPS   H8X 1165   0.971   5.184   7.739  0.0793 -0.0655 -4.2537
    9SAPS   H8Y 1166   1.105   5.288   7.814 -0.7534  1.6814 -0.9062
    9SAPS   C39 1167   1.171   5.088   7.765  0.1280 -0.1902 -0.2545
    9SAPS   H9X 1168   1.163   5.027   7.673 -0.4440  1.7715 -1.5567
    9SAPS   H9Y 1169   1.120   5.036   7.849 -1.5518  1.5422 -0.1421
    9SAPS  C310 1170   1.315   5.121   7.771  0.8960 -0.5184 -1.5241
    9SAPS  H10X 1171   1.326   5.183   7.862 -3.2573 -0.7781 -0.6628
    9SAPS  H10Y 1172   1.357   5.179   7.686 -2.0738  1.6269 -1.7119
    9SAPS  C311 1173   1.389   4.994   7.797 -0.5941  0.6503  0.3880
    9SAPS  H11X 1174   1.339   4.917   7.859  0.7528 -0.7790 -0.2449
    9SAPS  H11Y 1175   1.478   5.010   7.861 -0.7363 -1.2443  1.1034
    9SAPS  C312 1176   1.449   4.946   7.660 -0.5689 -0.1183  0.4356
    9SAPS  H12X 1177   1.507   5.030   7.618 -0.2823 -1.6703 -2.5093
    9SAPS  H12Y 1178   1.356   4.931   7.601  1.0531 -1.4520 -1.9734
    9SAPS  C313 1179   1.527   4.815   7.677  0.6766  1.0260  0.1975
    9SAPS  H13X 1180   1.464   4.735   7.721 -0.0699  1.3848 -0.2090
    9SAPS  H13Y 1181   1.610   4.840   7.746  0.2870 -0.0160  1.0612
    9SAPS  C314 1182   1.595   4.766   7.545 -0.5190 -0.2455 -0.3800
    9SAPS  H14X 1183   1.663   4.680   7.568 -1.2106 -1.6615 -3.2010
    9SAPS  H14Y 1184   1.660   4.849   7.510 -3.1675  0.4917 -4.2146
    9SAPS  C315 1185   1.494   4.738   7.434  0.1563 -0.1885  0.2507
    9SAPS  H15X 1186   1.427   4.824   7.412  2.2181  1.0785 -1.4746
    9SAPS  H15Y 1187   1.421   4.665   7.475 -0.1812  1.3226  2.5546
    9SAPS  C316 1188   1.559   4.692   7.308  0.1058 -0.1097 -0.2191
    9SAPS  H16X 1189   1.608   4.593   7.322  1.9451  0.9166  1.0268
    9SAPS  H16Y 1190   1.640   4.757   7.268  0.9326 -0.3344  1.0401
    9SAPS  C317 1191   1.443   4.673   7.209  0.8598  0.4316 -0.3284
    9SAPS  H17X 1192   1.415   4.777   7.180 -0.8413 -0.8762 -4.0518
    9SAPS  H17Y 1193   1.364   4.612   7.259  3.4793 -4.1690 -1.2595
    9SAPS  C318 1194   1.483   4.594   7.087 -0.0424 -0.3862  0.3243
    9SAPS  H18X 1195   1.568   4.646   7.037 -1.7866  1.1116 -1.2507
    9SAPS  H18Y 1196   1.403   4.584   7.010 -1.3367 -1.3026  1.7267
    9SAPS  H18Z 1197   1.505   4.488   7.108 -2.8895 -0.7065  2.1357
   10SAPS     N 1198   1.411   5.475   6.304  0.0602  0.4799 -0.2649
   10SAPS   HN1 1199   1.334   5.407   6.293 -1.1993  1.9674 -1.1247
   10SAPS   HN2 1200   1.389   5.561   6.359  0.0289 -1.1008  2.3311
   10SAPS   HN3 1201   1.430   5.512   6.209  0.9337 -1.5191 -0.9240
   10SAPS   C12 1202   1.541   5.415   6.354 -0.2155  0.5696  0.1087
   10SAPS  H12A 1203   1.515   5.344   6.431  0.5298 -0.8326 -0.8698
   10SAPS   C13 1204   1.621   5.328   6.257 -0.3431 -0.7595  0.1583
   10SAPS  O13A 1205   1.582   5.306   6.141  0.4350  0.2482  0.2202
   10SAPS  O13B 1206   1.714   5.255   6.301 -0.5157 -0.3016 -0.3117
   10SAPS   C11 1207   1.623   5.539   6.412  0.1967 -0.3626  0.6773
   10SAPS  H11A 1208   1.666   5.597   6.328 -1.3749 -0.4957 -0.2617
   10SAPS  H11B 1209   1.706   5.495   6.472  0.5904 -1.5407 -0.6824
   10SAPS     P 1210   1.575   5.749   6.573 -0.0028  0.2075 -0.0088
   10SAPS   O13 1211   1.645   5.840   6.474  0.7814  0.6918 -0.0946
   10SAPS   O14 1212   1.456   5.801   6.644  0.1848 -0.0988 -0.3743
   10SAPS   O12 1213   1.539   5.618   6.500  0.1838  0.0341  0.2426
   10SAPS   O11 1214   1.680   5.695   6.676  0.2356 -0.2192 -0.4509
   10SAPS    C1 1215   1.673   5.569   6.741  0.4443 -0.4341 -0.0683
   10SAPS    HA 1216   1.570   5.529   6.725  0.1904  0.7427 -1.5637
   10SAPS    HB 1217   1.741   5.494   6.694 -1.5199 -2.4084  0.0788
   10SAPS    C2 1218   1.720   5.565   6.883  0.0131 -0.4072 -0.2052
   10SAPS    HS 1219   1.680   5.469   6.922 -1.5863 -0.8625 -2.7752
   10SAPS   O21 1220   1.678   5.682   6.957  0.3067  0.3829 -0.5792
   10SAPS   C21 1221   1.551   5.673   6.990  0.0177 -0.7900  0.1107
   10SAPS   O22 1222   1.480   5.577   6.963 -0.5046  0.6712  0.1462
   10SAPS   C22 1223   1.506   5.797   7.069 -0.1776 -0.9754  0.8222
   10SAPS   H2R 1224   1.592   5.821   7.134  0.6206 -2.5899  0.4206
   10SAPS   H2S 1225   1.488   5.886   7.004 -1.3083 -0.8163  1.3209
   10SAPS    C3 1226   1.876   5.566   6.898 -0.9735  0.2667  0.2943
   10SAPS    HX 1227   1.919   5.660   6.855 -0.1090 -1.0747 -2.0038
   10SAPS    HY 1228   1.920   5.489   6.831  1.1858  0.8152  0.9971
   10SAPS   O31 1229   1.934   5.548   7.033  0.6022  0.0952 -0.0770
   10SAPS   C31 1230   1.925   5.428   7.077  0.5337  0.2797  0.0622
   10SAPS   O32 1231   1.895   5.329   7.011  0.1820 -0.1904  0.6573
   10SAPS   C32 1232   1.956   5.427   7.232  0.0975 -0.5174 -0.5358
   10SAPS   H2X 1233   1.893   5.504   7.282 -0.8821  1.3962 -4.3745
   10SAPS   H2Y 1234   2.060   5.463   7.239  0.4900 -1.4567 -1.2625
   10SAPS   C23 1235   1.382   5.771   7.158  0.0875  0.5709  0.7945
   10SAPS   H3R 1236   1.302   5.714   7.105  0.4780  1.9475 -1.3902
   10SAPS   H3S 1237   1.336   5.869   7.180 -0.3338  1.0798 -1.9788
   10SAPS   C24 1238   1.420   5.725   7.291 -0.2658 -0.4475 -0.4698
   10SAPS   H4R 1239   1.491   5.795   7.339  0.1546 -1.0778 -0.1536
   10SAPS   H4S 1240   1.472   5.628   7.278 -0.3827 -0.4371 -1.0599
   10SAPS   C25 1241   1.302   5.683   7.375  0.1469  0.3515 -0.2832
   10SAPS   H5R 1242   1.233   5.611   7.328  0.5149 -0.2682  0.1123
   10SAPS   C26 1243   1.275   5.723   7.508  0.0893  0.0525  0.8875
   10SAPS   H6R 1244   1.189   5.676   7.558  0.1742 -3.2222 -1.6844
   10SAPS   C27 1245   1.351   5.829   7.590 -0.4229 -0.1187 -0.5693
   10SAPS   H7R 1246   1.393   5.907   7.523  0.6944  0.1382  0.4094
   10SAPS   H7S 1247   1.431   5.769   7.638 -1.4949 -0.4589  0.8730
   10SAPS   C28 1248   1.280   5.902   7.700 -0.0903 -0.5487  0.2760
   10SAPS   H8R 1249   1.223   5.989   7.665 -0.1613 -0.1679  1.2888
   10SAPS   C29 1250   1.265   5.860   7.828 -0.1563 -0.5718 -0.1779
   10SAPS   H9R 1251   1.197   5.921   7.890 -1.5820 -1.0399 -1.2533
   10SAPS  C210 1252   1.310   5.727   7.885  0.2549  0.1694  0.3107
   10SAPS  H10R 1253   1.420   5.716   7.872 -0.0057 -2.1327 -0.2962
   10SAPS  H10S 1254   1.270   5.646   7.821 -0.3699  1.1299 -0.5536
   10SAPS  C211 1255   1.278   5.705   8.025 -0.2866  0.0733 -0.1517
   10SAPS  H11R 1256   1.171   5.684   8.035 -0.5255 -0.1658 -2.5990
   10SAPS  C212 1257   1.356   5.725   8.139  0.2844  0.5723  0.1078
   10SAPS  H12R 1258   1.300   5.702   8.231  1.5471 -0.4476  0.6547
   10SAPS  C213 1259   1.501   5.760   8.154 -0.3382 -1.0399  0.0938
   10SAPS  H13R 1260   1.560   5.668   8.134  0.6256 -0.7810  1.5754
   10SAPS  H13S 1261   1.530   5.773   8.261  0.1333  0.8548 -0.2294
   10SAPS  C214 1262   1.547   5.887   8.079  0.7602  0.3605 -0.2242
   10SAPS  H14R 1263   1.497   5.905   7.983  2.0705  0.2372 -0.9445
   10SAPS  C215 1264   1.633   5.982   8.114 -0.5841  0.1858 -0.1381
   10SAPS  H15R 1265   1.651   6.056   8.035  0.1961  0.4926  0.3230
   10SAPS  C216 1266   1.721   5.997   8.231 -0.0579  0.3145  0.8198
   10SAPS  H16R 1267   1.816   6.043   8.198 -1.0841  0.3377 -2.5037
   10SAPS  H16S 1268   1.736   5.897   8.275  0.8029 -0.1297 -0.4284
   10SAPS  C217 1269   1.668   6.092   8.340 -1.3554 -0.2921  0.2542
   10SAPS  H17R 1270   1.581   6.051   8.396 -1.2334 -1.0351 -0.0869
   10SAPS  H17S 1271   1.632   6.186   8.293  0.8569  0.4015 -0.1620
   10SAPS  C218 1272   1.788   6.148   8.432  0.2144  0.1986 -0.3040
   10SAPS  H18R 1273   1.738   6.200   8.517 -0.1597  1.9666 -1.5577
   10SAPS  H18S 1274   1.851   6.220   8.376 -2.4068  2.4239 -0.6472
   10SAPS  C219 1275   1.863   6.030   8.487 -0.2011  0.3621 -0.4254
   10SAPS  H19R 1276   1.929   5.976   8.417 -0.5077 -1.2344  0.4672
   10SAPS  H19S 1277   1.796   5.950   8.526 -0.7071  0.3804 -1.2428
   10SAPS  C220 1278   1.957   6.076   8.601 -0.3137  0.9751 -0.5047
   10SAPS  H20R 1279   1.904   6.117   8.690  2.7744  0.1906  1.8733
   10SAPS  H20S 1280   2.023   6.162   8.579 -1.9889  2.4530  0.0287
   10SAPS  H20T 1281   2.026   5.995   8.634  0.0197  1.5129  0.1562
   10SAPS   C33 1282   1.945   5.285   7.294  0.3379 -0.0267  0.4056
   10SAPS   H3X 1283   2.024   5.219   7.253 -1.0096 -1.3495 -0.1353
   10SAPS   H3Y 1284   1.843   5.243   7.280 -0.1374  0.9391  0.8582
   10SAPS   C34 1285   1.970   5.265   7.448 -0.3372 -0.1295 -0.2433
   10SAPS   H4X 1286   1.917   5.348   7.498  0.0218 -0.1414  0.1623
   10SAPS   H4Y 1287   2.080   5.263   7.464  0.1962 -0.4058 -3.2958
   10SAPS   C35 1288   1.917   5.137   7.498 -0.3359 -0.4042 -0.7202
   10SAPS   H5X 1289   1.956   5.046   7.447  0.6953 -0.6030  0.3706
   10SAPS   H5Y 1290   1.809   5.136   7.473 -0.0583 -0.4265 -1.9598
   10SAPS   C36 1291   1.947   5.110   7.653  0.3529  0.2673  0.1508
   10SAPS   H6X 1292   1.904   5.190   7.717 -1.6639 -1.3969  0.9845
   10SAPS   H6Y 1293   2.059   5.111   7.656  0.3966  2.4301 -0.7203
   10SAPS   C37 1294   1.900   4.973   7.698 -0.0062 -0.0999 -0.3075
   10SAPS   H7X 1295   1.915   4.908   7.608  4.9046 -0.4327  0.5114
   10SAPS   H7Y 1296   1.791   4.964   7.718  0.2003 -1.9951  0.1806
   10SAPS   C38 1297   1.968   4.907   7.815 -0.4433  0.3227 -0.0879
   10SAPS   H8X 1298   2.068   4.885   7.772  0.4112  1.7448  1.0670
   10SAPS   H8Y 1299   1.934   4.810   7.857 -0.5657  0.2766 -0.2913
   10SAPS   C39 1300   1.988   5.004   7.931  0.0498 -0.0342 -0.2309
   10SAPS   H9X 1301   1.893   5.016   7.988  0.5837  0.7447  0.5214
   10SAPS   H9Y 1302   2.021   5.106   7.902 -1.1410  1.2621  2.5422
   10SAPS  C310 1303   2.095   4.943   8.020  0.4070  0.5089  0.4080
   10SAPS  H10X 1304   2.193   4.937   7.969 -0.3065 -2.6316 -0.8187
   10SAPS  H10Y 1305   2.058   4.843   8.052 -0.4872  0.0946 -1.7865
   10SAPS  C311 1306   2.109   5.030   8.149 -0.8928 -0.5033 -0.1741
   10SAPS  H11X 1307   2.028   5.010   8.223  1.7937  0.0981  3.1781
   10SAPS  H11Y 1308   2.104   5.135   8.115  1.8523 -0.1009  0.4150
   10SAPS  C312 1309   2.244   4.996   8.210 -0.1656 -0.0068  0.3792
   10SAPS  H12X 1310   2.322   5.057   8.159 -1.9473  3.2495  1.2427
   10SAPS  H12Y 1311   2.268   4.888   8.214  0.0996  0.0929  2.5009
   10SAPS  C313 1312   2.242   5.048   8.359  0.1919  0.7994  0.0943
   10SAPS  H13X 1313   2.157   5.004   8.416 -0.2727 -0.3532 -1.4398
   10SAPS  H13Y 1314   2.220   5.157   8.356  0.3959  0.8148 -1.3903
   10SAPS  C314 1315   2.366   5.009   8.445  0.1551 -0.5517  0.1192
   10SAPS  H14X 1316   2.364   5.082   8.529 -1.2618  0.2314 -0.5557
   10SAPS  H14Y 1317   2.459   5.028   8.387 -1.1253 -2.5162 -2.8746
   10SAPS  C315 1318   2.386   4.863   8.498 -0.0367  0.2348 -0.1219
   10SAPS  H15X 1319   2.373   4.794   8.411  1.1253 -0.6810  0.4031
   10SAPS  H15Y 1320   2.313   4.843   8.579 -1.7052  1.5295 -1.2495
   10SAPS  C316 1321   2.530   4.841   8.544 -0.2421 -0.5318 -0.1165
   10SAPS  H16X 1322   2.593   4.851   8.453  0.5489  2.6877  0.6377
   10SAPS  H16Y 1323   2.547   4.735   8.573 -1.1917 -0.6358  0.1163
   10SAPS  C317 1324   2.574   4.937   8.657 -0.3462  0.0091  0.2907
   10SAPS  H17X 1325   2.508   4.934   8.746 -0.0064  0.6232  0.5680
   10SAPS  H17Y 1326   2.559   5.034   8.605  0.2075 -0.3097 -0.4894
   10SAPS  C318 1327   2.723   4.917   8.695  0.1941  0.3070  0.1394
   10SAPS  H18X 1328   2.732   4.973   8.791  1.2551  1.3706 -0.5449
   10SAPS  H18Y 1329   2.797   4.954   8.620  0.7708 -1.9815 -0.5043
   10SAPS  H18Z 1330   2.741   4.808   8.697  2.2377  0.6006  1.7565
   11SAPS     N 1331   4.983   6.057   6.211  0.2685  0.3281 -0.1447
   11SAPS   HN1 1332   4.983   5.972   6.150  1.4764  0.3187 -0.1405
   11SAPS   HN2 1333   5.074   6.050   6.259 -0.7525 -2.1686  1.6895
   11SAPS   HN3 1334   4.903   6.050   6.278 -0.2371 -1.0990 -0.8398
   11SAPS   C12 1335   4.984   6.182   6.128  0.0745  0.0976 -0.3313
   11SAPS  H12A 1336   5.019   6.262   6.192  0.5541 -1.1714  1.0407
   11SAPS   C13 1337   5.076   6.165   6.001 -0.0676 -1.0906 -0.1159
   11SAPS  O13A 1338   5.121   6.060   5.963 -0.3632  0.4749  1.0601
   11SAPS  O13B 1339   5.075   6.269   5.924  0.2714 -0.2483  0.1047
   11SAPS   C11 1340   4.839   6.208   6.076 -0.1096  0.8392 -0.1992
   11SAPS  H11A 1341   4.834   6.307   6.024 -0.2734  1.4178  0.8835
   11SAPS  H11B 1342   4.768   6.215   6.161  0.1991 -2.6639  0.4872
   11SAPS     P 1343   4.640   6.108   5.946  0.1036  0.5480  0.6025
   11SAPS   O13 1344   4.560   6.214   6.012 -0.0962  0.2638  0.8346
   11SAPS   O14 1345   4.647   6.113   5.794 -0.1363 -0.2018 -0.1254
   11SAPS   O12 1346   4.789   6.101   5.999 -0.0333 -0.6064 -0.1572
   11SAPS   O11 1347   4.579   5.969   5.984 -0.0291 -0.1585 -0.0717
   11SAPS    C1 1348   4.625   5.877   6.082 -0.0116  0.1421  0.2042
   11SAPS    HA 1349   4.599   5.776   6.047 -0.3675 -0.9941  3.3782
   11SAPS    HB 1350   4.735   5.878   6.092  0.0564  2.6922 -0.0433
   11SAPS    C2 1351   4.552   5.887   6.218  0.2056  0.2374 -0.3816
   11SAPS    HS 1352   4.443   5.878   6.202 -0.1340  3.0604 -0.1165
   11SAPS   O21 1353   4.579   6.021   6.262  0.7113 -0.3501 -0.5155
   11SAPS   C21 1354   4.483   6.093   6.326 -0.0889 -0.1567 -0.0633
   11SAPS   O22 1355   4.372   6.051   6.356 -0.1992  0.1925 -0.0257
   11SAPS   C22 1356   4.534   6.224   6.368 -0.7807 -0.8066  0.1454
   11SAPS   H2R 1357   4.630   6.203   6.420  0.3962 -1.5643 -2.1767
   11SAPS   H2S 1358   4.577   6.277   6.279 -0.9478 -0.4009  0.3040
   11SAPS    C3 1359   4.605   5.783   6.325  0.1847 -0.2176  0.1981
   11SAPS    HX 1360   4.712   5.800   6.350  0.0254  1.1720  0.0404
   11SAPS    HY 1361   4.608   5.686   6.272  2.1948  0.4347 -1.0387
   11SAPS   O31 1362   4.528   5.794   6.445 -0.2122 -0.0427  0.1784
   11SAPS   C31 1363   4.401   5.751   6.436 -0.0136 -0.6059  0.1134
   11SAPS   O32 1364   4.353   5.682   6.351 -0.1987  0.2041  0.4249
   11SAPS   C32 1365   4.326   5.805   6.560 -0.0287  0.5246  0.0292
   11SAPS   H2X 1366   4.315   5.916   6.552  1.0654  0.5770 -1.0059
   11SAPS   H2Y 1367   4.404   5.796   6.638 -1.3835 -0.5601  1.3141
   11SAPS   C23 1368   4.440   6.312   6.444 -0.0037  0.4214  0.7067
   11SAPS   H3R 1369   4.339   6.289   6.404  1.0474  1.8330 -3.2989
   11SAPS   H3S 1370   4.465   6.417   6.418 -0.3686  0.2971 -0.1794
   11SAPS   C24 1371   4.466   6.281   6.593 -0.1793  0.5190 -1.1304
   11SAPS   H4R 1372   4.573   6.295   6.617 -0.0484 -0.7723 -0.9075
   11SAPS   H4S 1373   4.445   6.173   6.604  0.0002  0.7126  2.0622
   11SAPS   C25 1374   4.379   6.357   6.692  0.2278  0.2985  0.6273
   11SAPS   H5R 1375   4.415   6.459   6.712 -0.1187  0.3189  1.1668
   11SAPS   C26 1376   4.256   6.323   6.743 -0.6496  0.1492 -0.0787
   11SAPS   H6R 1377   4.214   6.392   6.817 -1.9362  0.7897 -1.3638
   11SAPS   C27 1378   4.174   6.194   6.732 -0.0077 -0.3108  0.3605
   11SAPS   H7R 1379   4.138   6.161   6.832 -1.6453 -1.3560 -0.5451
   11SAPS   H7S 1380   4.220   6.103   6.688 -0.8724 -1.0745  1.0122
   11SAPS   C28 1381   4.053   6.226   6.653 -0.3297  0.2882  0.1510
   11SAPS   H8R 1382   4.073   6.281   6.560 -0.1192 -2.5448 -1.5959
   11SAPS   C29 1383   3.923   6.194   6.691  0.3642  0.2230  0.1332
   11SAPS   H9R 1384   3.839   6.241   6.637 -0.0881  1.0755  1.4995
   11SAPS  C210 1385   3.880   6.122   6.816  0.3224 -0.0872  0.4586
   11SAPS  H10R 1386   3.858   6.199   6.894 -0.8257 -1.4876  1.5531
   11SAPS  H10S 1387   3.964   6.053   6.839  0.6422 -0.2470 -1.0684
   11SAPS  C211 1388   3.767   6.024   6.781 -0.4165 -0.3208 -0.3281
   11SAPS  H11R 1389   3.775   5.972   6.684  0.2658  2.2543 -1.7486
   11SAPS  C212 1390   3.666   5.991   6.863  0.7031 -0.3535  0.6330
   11SAPS  H12R 1391   3.596   5.916   6.825 -0.7658  0.2017  2.0977
   11SAPS  C213 1392   3.643   6.050   6.997  0.2463 -0.1458 -0.2197
   11SAPS  H13R 1393   3.576   6.138   7.001 -0.2632 -0.5723  1.7814
   11SAPS  H13S 1394   3.736   6.091   7.041  1.2787 -3.5169  1.0674
   11SAPS  C214 1395   3.583   5.934   7.079 -0.3679 -0.7944 -0.0547
   11SAPS  H14R 1396   3.492   5.902   7.026 -0.9676 -0.3038  0.6634
   11SAPS  C215 1397   3.633   5.869   7.190 -0.0917  0.2742  0.1945
   11SAPS  H15R 1398   3.589   5.774   7.223  0.1994  0.5792  1.5067
   11SAPS  C216 1399   3.763   5.909   7.257  0.4101 -0.1452  0.0374
   11SAPS  H16R 1400   3.810   5.997   7.209 -0.8192 -0.6602 -2.2091
   11SAPS  H16S 1401   3.840   5.829   7.246  0.7404  0.2567 -0.6595
   11SAPS  C217 1402   3.758   5.940   7.407 -0.2176  0.4027 -0.1068
   11SAPS  H17R 1403   3.718   6.042   7.427 -2.0922 -0.5305  1.2194
   11SAPS  H17S 1404   3.856   5.941   7.459 -2.1653 -2.6080  4.2277
   11SAPS  C218 1405   3.664   5.848   7.490  0.1872  0.8077 -0.6133
   11SAPS  H18R 1406   3.663   5.743   7.454 -0.1761 -0.1301  1.9465
   11SAPS  H18S 1407   3.562   5.890   7.476 -0.1134  1.3396  2.5264
   11SAPS  C219 1408   3.697   5.836   7.644  0.3961 -0.2907  0.7078
   11SAPS  H19R 1409   3.806   5.835   7.666  0.3748 -0.7451  0.8161
   11SAPS  H19S 1410   3.640   5.754   7.693 -0.6195  0.4953  0.8899
   11SAPS  C220 1411   3.636   5.952   7.719  0.8529 -0.5721  0.4873
   11SAPS  H20R 1412   3.701   6.041   7.705  1.2004 -0.7333  1.0481
   11SAPS  H20S 1413   3.640   5.927   7.827  0.1973  3.3767  1.5931
   11SAPS  H20T 1414   3.533   5.982   7.690  0.4278 -0.7666  1.7536
   11SAPS   C33 1415   4.195   5.730   6.595 -0.0354  0.4055  0.2162
   11SAPS   H3X 1416   4.208   5.621   6.612 -0.9001  0.1700 -0.5140
   11SAPS   H3Y 1417   4.109   5.749   6.527  1.5983  0.7746 -1.8350
   11SAPS   C34 1418   4.129   5.783   6.725  0.0894 -0.2928 -0.0309
   11SAPS   H4X 1419   4.062   5.701   6.758 -2.0011  1.2511 -0.2310
   11SAPS   H4Y 1420   4.069   5.874   6.703  0.0337  0.1886  1.9195
   11SAPS   C35 1421   4.226   5.815   6.844  0.0609 -0.4724 -0.2524
   11SAPS   H5X 1422   4.296   5.893   6.807  0.8403 -2.3872 -3.2263
   11SAPS   H5Y 1423   4.295   5.732   6.871 -1.1379 -1.5117 -0.3202
   11SAPS   C36 1424   4.151   5.860   6.974  0.3407  0.2229  0.2141
   11SAPS   H6X 1425   4.104   5.765   7.008  1.8851  0.2602  2.6854
   11SAPS   H6Y 1426   4.063   5.923   6.949  0.7480  0.8966  0.4429
   11SAPS   C37 1427   4.225   5.912   7.093 -0.4272 -1.4036  0.5135
   11SAPS   H7X 1428   4.174   5.915   7.192 -0.7669  1.0401  0.3215
   11SAPS   H7Y 1429   4.247   6.017   7.065 -1.1627 -1.4064 -0.1286
   11SAPS   C38 1430   4.360   5.836   7.118  0.1836  0.6166 -0.2456
   11SAPS   H8X 1431   4.418   5.897   7.190 -0.2810  1.0012 -0.1924
   11SAPS   H8Y 1432   4.422   5.835   7.026  1.1320 -0.7351  0.3783
   11SAPS   C39 1433   4.352   5.693   7.190 -0.2790 -0.5205  0.5252
   11SAPS   H9X 1434   4.456   5.658   7.208 -0.2660 -1.4859 -1.1998
   11SAPS   H9Y 1435   4.303   5.621   7.122 -0.5098  0.4386 -0.3468
   11SAPS  C310 1436   4.281   5.687   7.323 -0.2544  0.0063  0.3138
   11SAPS  H10X 1437   4.245   5.585   7.349 -2.3002  0.5336 -0.3122
   11SAPS  H10Y 1438   4.188   5.746   7.313 -0.8418 -1.2892 -2.7047
   11SAPS  C311 1439   4.368   5.730   7.437 -0.5403  0.3213  0.1701
   11SAPS  H11X 1440   4.368   5.841   7.433  1.3700  0.3243 -1.5413
   11SAPS  H11Y 1441   4.473   5.695   7.426 -1.1163 -1.0820 -1.5249
   11SAPS  C312 1442   4.317   5.689   7.577 -0.3739 -0.0355 -0.0053
   11SAPS  H12X 1443   4.298   5.580   7.583  0.0061 -0.3566 -3.3096
   11SAPS  H12Y 1444   4.221   5.742   7.596 -0.4529  0.4567 -1.6928
   11SAPS  C313 1445   4.418   5.723   7.688  0.9816 -0.0625  0.8302
   11SAPS  H13X 1446   4.450   5.827   7.670 -1.3191  0.3078 -1.8281
   11SAPS  H13Y 1447   4.498   5.647   7.676 -1.1100 -2.2806  0.1371
   11SAPS  C314 1448   4.357   5.706   7.830  0.8342 -0.4461 -0.0530
   11SAPS  H14X 1449   4.333   5.599   7.845 -2.4382  0.3197  1.0641
   11SAPS  H14Y 1450   4.264   5.767   7.828  0.7459 -0.6034 -1.9222
   11SAPS  C315 1451   4.444   5.758   7.937  0.2402  0.6044  0.1964
   11SAPS  H15X 1452   4.464   5.866   7.916  1.7363 -0.0445 -2.1771
   11SAPS  H15Y 1453   4.543   5.707   7.933  0.5784  1.3202 -1.1711
   11SAPS  C316 1454   4.381   5.730   8.075 -0.1147 -0.3571 -0.5906
   11SAPS  H16X 1455   4.322   5.636   8.076 -1.2101  0.3011 -1.3214
   11SAPS  H16Y 1456   4.317   5.820   8.083  1.6673  0.8314  0.9591
   11SAPS  C317 1457   4.471   5.746   8.204  0.5478  0.5111 -0.3462
   11SAPS  H17X 1458   4.526   5.840   8.228  2.3814 -0.3479 -0.9711
   11SAPS  H17Y 1459   4.550   5.671   8.182  0.0272 -0.9303  2.3552
   11SAPS  C318 1460   4.402   5.689   8.333 -0.2594 -0.1718 -0.0490
   11SAPS  H18X 1461   4.485   5.687   8.407 -0.8045  0.6989  0.6113
   11SAPS  H18Y 1462   4.366   5.586   8.310  1.4312 -1.2872  1.9257
   11SAPS  H18Z 1463   4.315   5.747   8.370  0.2321  0.2822  0.4060
   12SAPS     N 1464   4.889   1.930   6.110 -0.6384  0.1971  0.0134
   12SAPS   HN1 1465   4.834   1.982   6.039  0.1756  0.5245 -0.3961
   12SAPS   HN2 1466   4.968   1.978   6.158  0.0861 -1.2897  0.3813
   12SAPS   HN3 1467   4.915   1.837   6.072 -0.5398  0.6398 -1.0268
   12SAPS   C12 1468   4.793   1.890   6.224 -0.4719 -0.1407 -0.2523
   12SAPS  H12A 1469   4.838   1.844   6.311  0.5665 -0.7375 -1.0828
   12SAPS   C13 1470   4.714   2.009   6.293 -0.1263 -0.0592  0.5891
   12SAPS  O13A 1471   4.734   2.130   6.251 -0.7030 -0.1768  0.1151
   12SAPS  O13B 1472   4.645   1.983   6.393 -0.0356  0.1966 -0.7106
   12SAPS   C11 1473   4.699   1.789   6.160  0.5943 -0.2429 -0.1256
   12SAPS  H11A 1474   4.621   1.844   6.105  0.6884  0.2070  0.1874
   12SAPS  H11B 1475   4.659   1.741   6.252  2.6038 -2.3262 -0.2492
   12SAPS     P 1476   4.694   1.546   6.061  0.2340  0.2377  0.0548
   12SAPS   O13 1477   4.572   1.523   6.141  0.8123  0.6862 -0.3925
   12SAPS   O14 1478   4.681   1.534   5.914 -0.3192 -0.3336  0.2168
   12SAPS   O12 1479   4.768   1.685   6.091  0.3353  0.5156  0.4893
   12SAPS   O11 1480   4.804   1.447   6.117  0.3687 -0.1817 -0.1763
   12SAPS    C1 1481   4.860   1.471   6.251  0.1238  0.4833  0.0645
   12SAPS    HA 1482   4.931   1.557   6.248 -0.5755  1.0730  0.0184
   12SAPS    HB 1483   4.781   1.504   6.322 -0.9064  1.8068 -1.5905
   12SAPS    C2 1484   4.947   1.354   6.307  0.5424  0.0354 -0.8566
   12SAPS    HS 1485   5.037   1.343   6.243  3.0163 -0.2411  2.4438
   12SAPS   O21 1486   4.864   1.232   6.308 -0.4889  0.0503  0.1069
   12SAPS   C21 1487   4.890   1.116   6.237 -0.8081  0.3167  0.2053
   12SAPS   O22 1488   4.999   1.100   6.180 -0.3616 -0.4444 -0.7928
   12SAPS   C22 1489   4.788   1.011   6.262  0.2142  0.0001 -0.2065
   12SAPS   H2R 1490   4.721   1.041   6.346  1.0131  0.5072  0.2658
   12SAPS   H2S 1491   4.720   1.009   6.174  0.7816  1.8694 -0.7359
   12SAPS    C3 1492   5.005   1.385   6.448  0.6469  0.4991 -0.2695
   12SAPS    HX 1493   5.089   1.457   6.447  0.6310  0.5204 -1.4188
   12SAPS    HY 1494   5.050   1.291   6.486  1.7690  1.7712  1.7094
   12SAPS   O31 1495   4.892   1.424   6.526 -0.1092 -0.2808  0.0724
   12SAPS   C31 1496   4.916   1.535   6.597 -0.1390  0.9433 -0.5055
   12SAPS   O32 1497   5.016   1.605   6.602 -0.3694  0.5772 -0.4133
   12SAPS   C32 1498   4.786   1.560   6.673 -0.2776  0.6262  0.2384
   12SAPS   H2X 1499   4.760   1.470   6.732 -0.0066 -0.3656 -1.1295
   12SAPS   H2Y 1500   4.706   1.563   6.596  0.7590 -1.0596 -0.9660
   12SAPS   C23 1501   4.827   0.869   6.300  0.2307  0.2530  0.6063
   12SAPS   H3R 1502   4.874   0.825   6.210 -0.3324  1.6472 -0.4112
   12SAPS   H3S 1503   4.734   0.811   6.314  0.5590  0.2549  3.2530
   12SAPS   C24 1504   4.916   0.844   6.424 -0.5856  0.5317  0.2240
   12SAPS   H4R 1505   5.000   0.916   6.430 -0.9249  1.0556 -0.8679
   12SAPS   H4S 1506   4.964   0.745   6.421 -0.2080  0.7272 -1.2486
   12SAPS   C25 1507   4.832   0.832   6.549  0.1969 -0.6993 -0.2279
   12SAPS   H5R 1508   4.791   0.734   6.573 -0.7425 -0.1692  0.3844
   12SAPS   C26 1509   4.798   0.935   6.630  0.8886  0.4336  0.8442
   12SAPS   H6R 1510   4.730   0.912   6.714 -0.2313  1.6536  0.2996
   12SAPS   C27 1511   4.836   1.081   6.620 -0.4807  0.7031  0.3597
   12SAPS   H7R 1512   4.887   1.098   6.523  1.4630 -1.7050  0.8684
   12SAPS   H7S 1513   4.900   1.109   6.706 -0.7831  1.6106  0.3090
   12SAPS   C28 1514   4.712   1.161   6.643 -0.3857  0.3263 -0.2461
   12SAPS   H8R 1515   4.647   1.176   6.556 -0.8368  2.2892  0.3940
   12SAPS   C29 1516   4.669   1.211   6.761  0.1580  0.2199 -0.1932
   12SAPS   H9R 1517   4.572   1.262   6.757  1.1165  2.1709  0.2138
   12SAPS  C210 1518   4.733   1.193   6.900  0.7778  0.0030 -0.0101
   12SAPS  H10R 1519   4.841   1.219   6.898  0.3875  1.8576  0.8095
   12SAPS  H10S 1520   4.733   1.084   6.919  0.5342 -0.3511 -1.8838
   12SAPS  C211 1521   4.661   1.261   7.017 -0.6431  0.1677 -0.0659
   12SAPS  H11R 1522   4.570   1.313   6.984 -1.3749 -1.1028 -0.1523
   12SAPS  C212 1523   4.700   1.265   7.146  1.3410 -0.3456  0.1290
   12SAPS  H12R 1524   4.638   1.317   7.220 -0.2243 -2.1023  0.1284
   12SAPS  C213 1525   4.830   1.216   7.201 -0.2588 -0.1248  0.2264
   12SAPS  H13R 1526   4.880   1.298   7.258 -0.9631  0.7285 -0.3668
   12SAPS  H13S 1527   4.901   1.181   7.122 -1.4548  0.4171 -1.1332
   12SAPS  C214 1528   4.806   1.092   7.293  0.2333  0.2515  0.1976
   12SAPS  H14R 1529   4.749   1.010   7.246  0.7665  1.3958 -2.6892
   12SAPS  C215 1530   4.864   1.069   7.414  0.1757 -0.2343  0.5571
   12SAPS  H15R 1531   4.848   0.979   7.475 -0.6301  0.4914  1.4423
   12SAPS  C216 1532   4.962   1.161   7.483  0.6210  0.0098  0.1541
   12SAPS  H16R 1533   4.994   1.248   7.423  0.9581  0.3235  0.7736
   12SAPS  H16S 1534   5.058   1.106   7.483 -0.1395 -1.3621 -0.3668
   12SAPS  C217 1535   4.916   1.199   7.624 -0.1511  0.0602  0.1812
   12SAPS  H17R 1536   4.896   1.107   7.684 -0.9986 -0.3492 -0.6834
   12SAPS  H17S 1537   4.818   1.252   7.625 -1.6131 -2.3920  3.1084
   12SAPS  C218 1538   5.011   1.280   7.709 -0.2679  0.4009 -0.1563
   12SAPS  H18R 1539   5.043   1.367   7.648 -1.5204 -0.4218 -2.0788
   12SAPS  H18S 1540   5.104   1.224   7.732 -0.5266  0.4871  1.1838
   12SAPS  C219 1541   4.946   1.325   7.844 -0.1810  0.4396  0.7775
   12SAPS  H19R 1542   4.896   1.245   7.902 -1.5480  1.4162  0.9916
   12SAPS  H19S 1543   4.861   1.393   7.823 -0.3869 -0.1108 -0.2685
   12SAPS  C220 1544   5.049   1.390   7.939 -0.2910  0.5850 -0.0207
   12SAPS  H20R 1545   5.005   1.419   8.037 -1.4065  0.6941 -0.5391
   12SAPS  H20S 1546   5.094   1.478   7.888  0.0233  1.6956  2.0565
   12SAPS  H20T 1547   5.131   1.320   7.968 -0.8786  0.7359  2.2164
   12SAPS   C33 1548   4.797   1.682   6.767 -0.0360 -0.0641  0.3270
   12SAPS   H3X 1549   4.698   1.730   6.753 -0.4827 -1.1270 -0.2402
   12SAPS   H3Y 1550   4.875   1.753   6.733  0.0778 -0.3750 -0.0686
   12SAPS   C34 1551   4.823   1.644   6.910  0.4760 -0.0576 -0.0409
   12SAPS   H4X 1552   4.747   1.575   6.953  0.4839 -2.3845 -3.3637
   12SAPS   H4Y 1553   4.812   1.743   6.959 -0.8615  0.7753 -1.9128
   12SAPS   C35 1554   4.960   1.600   6.940  0.5998  0.0986  0.1678
   12SAPS   H5X 1555   5.035   1.643   6.870  1.0748 -0.2523  0.4521
   12SAPS   H5Y 1556   4.977   1.490   6.940  1.0653  0.1647  0.3191
   12SAPS   C36 1557   5.006   1.653   7.083 -0.3842 -0.1608  0.3780
   12SAPS   H6X 1558   5.025   1.763   7.077  1.4501 -0.3317  1.9462
   12SAPS   H6Y 1559   5.108   1.610   7.095 -0.4904 -0.2008  1.1658
   12SAPS   C37 1560   4.913   1.620   7.200 -0.5108  0.9835  0.4801
   12SAPS   H7X 1561   4.894   1.511   7.203 -0.8479  1.0056 -0.5813
   12SAPS   H7Y 1562   4.816   1.672   7.185 -0.1031  1.4579 -0.5848
   12SAPS   C38 1563   4.973   1.670   7.328 -0.4805  0.0506 -0.1725
   12SAPS   H8X 1564   4.974   1.780   7.317 -2.9559  0.0525 -0.8373
   12SAPS   H8Y 1565   5.081   1.645   7.335 -0.0453  1.9685  0.7117
   12SAPS   C39 1566   4.898   1.644   7.458  0.1157 -0.5311  0.0830
   12SAPS   H9X 1567   4.865   1.537   7.461  1.0981 -0.8131  1.7503
   12SAPS   H9Y 1568   4.812   1.713   7.445 -0.2403 -0.8787  0.5617
   12SAPS  C310 1569   4.965   1.695   7.583 -0.3600 -0.1823 -0.2745
   12SAPS  H10X 1570   5.000   1.800   7.572 -0.7780 -0.1602 -1.5907
   12SAPS  H10Y 1571   5.053   1.627   7.590 -1.2333 -1.5104 -1.4934
   12SAPS  C311 1572   4.876   1.691   7.713 -0.7174 -0.7013 -0.1077
   12SAPS  H11X 1573   4.844   1.589   7.743 -1.4689 -0.0651  1.3755
   12SAPS  H11Y 1574   4.785   1.753   7.697 -0.3442  0.2611  1.2557
   12SAPS  C312 1575   4.953   1.748   7.832  0.4129  0.1217 -1.3260
   12SAPS  H12X 1576   4.967   1.853   7.802  0.4596  0.0088 -1.6985
   12SAPS  H12Y 1577   5.051   1.696   7.831  0.8131  0.8625 -1.0120
   12SAPS  C313 1578   4.878   1.716   7.963 -0.2791  0.4329  0.1249
   12SAPS  H13X 1579   4.878   1.609   7.993 -2.0786  0.7868  1.5972
   12SAPS  H13Y 1580   4.770   1.742   7.960 -1.0247 -2.1931  1.5403
   12SAPS  C314 1581   4.940   1.789   8.084 -0.0745  0.0135 -0.4964
   12SAPS  H14X 1582   4.961   1.897   8.064 -2.2528  0.5213 -0.3365
   12SAPS  H14Y 1583   5.033   1.735   8.113  0.1523  0.9080  0.4890
   12SAPS  C315 1584   4.834   1.774   8.194  0.3332  0.0634  0.9581
   12SAPS  H15X 1585   4.800   1.669   8.198  0.2118 -0.0374 -1.1997
   12SAPS  H15Y 1586   4.740   1.825   8.163  1.3598  1.0769 -0.6711
   12SAPS  C316 1587   4.866   1.821   8.335 -0.9026 -0.0168 -0.6192
   12SAPS  H16X 1588   4.887   1.930   8.335 -1.2849  0.0591 -0.7821
   12SAPS  H16Y 1589   4.961   1.771   8.365 -1.3584 -0.8403 -0.5000
   12SAPS  C317 1590   4.755   1.789   8.440 -0.2533  0.2472 -0.1700
   12SAPS  H17X 1591   4.720   1.685   8.425  3.9234 -1.2207 -1.0469
   12SAPS  H17Y 1592   4.671   1.859   8.422 -0.9877 -1.1444 -2.6030
   12SAPS  C318 1593   4.800   1.790   8.583  0.2249  0.5396 -0.6630
   12SAPS  H18X 1594   4.855   1.884   8.604  1.7328 -0.3308 -0.5144
   12SAPS  H18Y 1595   4.874   1.709   8.601 -1.1647 -0.4181  1.0411
   12SAPS  H18Z 1596   4.718   1.759   8.650  2.8295 -1.8065  1.6940
   13SAPS     N 1597   3.723   5.299   6.395 -0.4398  0.3714 -0.1492
   13SAPS   HN1 1598   3.653   5.372   6.374 -1.7980 -0.4012  1.4907
   13SAPS   HN2 1599   3.694   5.249   6.482  0.6341  1.0151  0.6096
   13SAPS   HN3 1600   3.820   5.337   6.396 -0.1988 -0.1852 -1.0605
   13SAPS   C12 1601   3.733   5.196   6.281 -0.2369  0.3859  0.5757
   13SAPS  H12A 1602   3.651   5.126   6.287  0.6714 -0.8041 -0.4744
   13SAPS   C13 1603   3.737   5.261   6.145 -0.5585  0.4589 -0.3420
   13SAPS  O13A 1604   3.713   5.384   6.133  0.3159 -0.3632  0.4554
   13SAPS  O13B 1605   3.730   5.185   6.046  0.6496 -0.0703 -0.3797
   13SAPS   C11 1606   3.862   5.110   6.283  0.0920  0.7650  0.3977
   13SAPS  H11A 1607   3.949   5.178   6.276  1.1841 -0.6990 -0.6527
   13SAPS  H11B 1608   3.878   5.046   6.194 -0.2149 -0.1803  1.0112
   13SAPS     P 1609   3.824   4.885   6.420 -0.0259 -0.1914  0.0533
   13SAPS   O13 1610   3.685   4.877   6.461  0.1964 -0.6207 -0.6013
   13SAPS   O14 1611   3.863   4.811   6.298  0.3775  0.4784 -0.0544
   13SAPS   O12 1612   3.864   5.040   6.403 -0.6612 -0.1185 -0.5005
   13SAPS   O11 1613   3.916   4.840   6.542  0.0326 -0.0259 -0.2855
   13SAPS    C1 1614   4.056   4.874   6.539 -0.7263  0.0495  0.2185
   13SAPS    HA 1615   4.110   4.777   6.544 -0.6677  0.0397 -0.5155
   13SAPS    HB 1616   4.099   4.912   6.444 -0.3824 -4.3524 -1.6010
   13SAPS    C2 1617   4.088   4.972   6.653 -0.2985 -1.1155  0.1341
   13SAPS    HS 1618   4.005   5.045   6.665  2.3168  1.7040  3.1754
   13SAPS   O21 1619   4.216   5.041   6.635  0.0194 -0.5883  0.6199
   13SAPS   C21 1620   4.202   5.167   6.595  0.1492  0.1654  0.1905
   13SAPS   O22 1621   4.102   5.234   6.577  0.5097 -0.2327  0.1719
   13SAPS   C22 1622   4.341   5.219   6.579  0.3495  0.0464  0.6336
   13SAPS   H2R 1623   4.414   5.190   6.657  0.1606  0.5053  0.9813
   13SAPS   H2S 1624   4.392   5.167   6.495  1.0008  0.5377  0.7222
   13SAPS    C3 1625   4.090   4.902   6.795 -0.3205 -0.3345  0.0512
   13SAPS    HX 1626   4.179   4.836   6.797  0.1286  0.2753  0.9020
   13SAPS    HY 1627   3.999   4.838   6.797 -0.7966  0.3296 -0.0459
   13SAPS   O31 1628   4.086   4.995   6.906 -0.1214 -0.2769  0.2016
   13SAPS   C31 1629   4.053   4.941   7.025 -0.3524 -0.0864 -0.5114
   13SAPS   O32 1630   4.005   4.831   7.048  0.7072 -0.0570 -0.3085
   13SAPS   C32 1631   4.055   5.057   7.125 -0.2537 -0.4599 -0.7499
   13SAPS   H2X 1632   3.951   5.076   7.160  0.1455 -1.9434  1.4891
   13SAPS   H2Y 1633   4.098   5.146   7.074  0.3035  0.0936  0.6264
   13SAPS   C23 1634   4.346   5.364   6.548 -0.2300  0.1759 -0.0639
   13SAPS   H3R 1635   4.254   5.401   6.499 -0.4216 -1.9910 -1.5239
   13SAPS   H3S 1636   4.427   5.382   6.473  1.8362  1.1376  2.2386
   13SAPS   C24 1637   4.393   5.438   6.675  0.0372  0.3810  0.2095
   13SAPS   H4R 1638   4.393   5.546   6.650  1.6230  0.6033  1.0376
   13SAPS   H4S 1639   4.499   5.419   6.701 -0.1834  1.3579  2.0517
   13SAPS   C25 1640   4.297   5.413   6.791  0.1542  0.6570 -0.7017
   13SAPS   H5R 1641   4.195   5.451   6.773 -0.9104 -1.7793 -0.2928
   13SAPS   C26 1642   4.321   5.349   6.906 -0.2089 -0.1233  0.2605
   13SAPS   H6R 1643   4.245   5.334   6.983  0.6009 -1.6190  0.8084
   13SAPS   C27 1644   4.460   5.302   6.942  0.2536  0.2838 -0.1914
   13SAPS   H7R 1645   4.515   5.388   6.985 -1.6837  1.0061  0.9483
   13SAPS   H7S 1646   4.503   5.251   6.853 -1.4359 -3.3048  0.8493
   13SAPS   C28 1647   4.448   5.197   7.052  0.9258 -0.0062  1.2441
   13SAPS   H8R 1648   4.406   5.099   7.024  1.7619 -1.1283  3.6259
   13SAPS   C29 1649   4.490   5.214   7.173 -0.1825 -0.3834 -0.0386
   13SAPS   H9R 1650   4.492   5.127   7.239  0.0734 -0.4895 -0.1852
   13SAPS  C210 1651   4.550   5.338   7.238 -0.2750  0.8740 -0.5134
   13SAPS  H10R 1652   4.472   5.372   7.310  0.7014  0.8637  0.5955
   13SAPS  H10S 1653   4.570   5.425   7.172  0.7125  0.9187 -0.1812
   13SAPS  C211 1654   4.684   5.309   7.300  0.1962  0.2050 -0.5098
   13SAPS  H11R 1655   4.755   5.261   7.232  2.5109  0.9675  1.2194
   13SAPS  C212 1656   4.722   5.332   7.426 -0.1916  0.3343  0.2065
   13SAPS  H12R 1657   4.824   5.305   7.454  0.1005  0.7005 -0.4880
   13SAPS  C213 1658   4.641   5.397   7.537  0.5696  0.7154  0.6134
   13SAPS  H13R 1659   4.591   5.318   7.597  1.0238  0.8147  1.1262
   13SAPS  H13S 1660   4.561   5.458   7.488  1.6526  0.8285 -1.1041
   13SAPS  C214 1661   4.714   5.489   7.627  0.3276 -0.2107  0.6327
   13SAPS  H14R 1662   4.701   5.595   7.601  0.5144 -0.0890  1.0179
   13SAPS  C215 1663   4.784   5.460   7.736  0.8221  0.2247 -0.2156
   13SAPS  H15R 1664   4.818   5.540   7.803 -2.4823  1.0112  0.7104
   13SAPS  C216 1665   4.816   5.322   7.790  0.0572 -0.5814 -0.8359
   13SAPS  H16R 1666   4.926   5.311   7.780  0.6777  3.8016 -0.7845
   13SAPS  H16S 1667   4.760   5.244   7.734  0.6526 -0.2986 -1.8566
   13SAPS  C217 1668   4.786   5.309   7.941  0.3701  0.2528 -0.5231
   13SAPS  H17R 1669   4.788   5.199   7.952  1.7602  0.1437 -1.5796
   13SAPS  H17S 1670   4.679   5.336   7.955  0.0516 -0.7947 -0.8694
   13SAPS  C218 1671   4.876   5.365   8.049  0.3583  0.1918 -0.2348
   13SAPS  H18R 1672   4.903   5.472   8.042 -1.5671  0.8270  1.0883
   13SAPS  H18S 1673   4.968   5.304   8.055 -0.4910 -1.2163 -0.9900
   13SAPS  C219 1674   4.824   5.342   8.196  0.2779 -0.0810 -0.0530
   13SAPS  H19R 1675   4.784   5.239   8.203  0.8946 -0.4439 -1.4817
   13SAPS  H19S 1676   4.736   5.408   8.212  0.3053 -0.5636  2.6513
   13SAPS  C220 1677   4.945   5.374   8.287  0.1315  0.5964  0.1973
   13SAPS  H20R 1678   4.915   5.378   8.393 -0.2401  0.2540  0.1086
   13SAPS  H20S 1679   4.994   5.472   8.270  0.6646  0.5791  1.5169
   13SAPS  H20T 1680   5.026   5.298   8.274  1.6348  1.8198  1.9118
   13SAPS   C33 1681   4.144   5.017   7.240 -0.1062 -0.0397 -0.3809
   13SAPS   H3X 1682   4.244   4.982   7.206 -0.5566 -1.9430  0.1226
   13SAPS   H3Y 1683   4.111   4.927   7.295 -0.8787  0.3125 -0.2488
   13SAPS   C34 1684   4.162   5.132   7.339 -0.5932  0.0688  0.3386
   13SAPS   H4X 1685   4.058   5.160   7.366  0.1248  1.7960  1.4834
   13SAPS   H4Y 1686   4.204   5.225   7.297 -1.1887  0.4664  0.6168
   13SAPS   C35 1687   4.227   5.078   7.469 -0.3578 -0.4725  0.0584
   13SAPS   H5X 1688   4.330   5.040   7.451 -0.3721 -0.1910 -0.6754
   13SAPS   H5Y 1689   4.172   4.994   7.517  1.3862 -1.9659 -0.4211
   13SAPS   C36 1690   4.237   5.188   7.577  0.6075 -0.1860 -0.2402
   13SAPS   H6X 1691   4.134   5.224   7.597 -0.2867 -1.7740 -1.7960
   13SAPS   H6Y 1692   4.305   5.268   7.539  0.7805  0.3608  1.1536
   13SAPS   C37 1693   4.303   5.142   7.710 -0.6165 -0.0183  0.0341
   13SAPS   H7X 1694   4.409   5.118   7.687 -0.7206  0.4488 -1.0270
   13SAPS   H7Y 1695   4.252   5.048   7.739 -1.2602  0.5422  0.7562
   13SAPS   C38 1696   4.298   5.235   7.832 -0.1538  0.0370 -0.5352
   13SAPS   H8X 1697   4.191   5.258   7.850  0.2195 -0.0510  2.4041
   13SAPS   H8Y 1698   4.338   5.337   7.810 -0.2728 -0.1697 -1.7214
   13SAPS   C39 1699   4.367   5.174   7.959 -0.3684  0.3711 -0.2203
   13SAPS   H9X 1700   4.471   5.155   7.926 -1.2357 -0.3111 -2.8166
   13SAPS   H9Y 1701   4.310   5.081   7.979 -1.4189  0.6918 -1.5717
   13SAPS  C310 1702   4.384   5.266   8.078 -0.1347  0.0435 -0.9122
   13SAPS  H10X 1703   4.283   5.310   8.092 -0.7623 -1.2999 -1.0468
   13SAPS  H10Y 1704   4.448   5.349   8.043 -1.3233  1.7489  0.7371
   13SAPS  C311 1705   4.441   5.198   8.199  0.4392 -0.3683  0.9723
   13SAPS  H11X 1706   4.543   5.156   8.190  0.9934  0.2790  3.3492
   13SAPS  H11Y 1707   4.392   5.103   8.230  2.2887 -1.9678 -0.7635
   13SAPS  C312 1708   4.453   5.299   8.313  0.2666  0.4255 -1.1569
   13SAPS  H12X 1709   4.356   5.349   8.336 -0.0112 -0.6665  0.2022
   13SAPS  H12Y 1710   4.500   5.374   8.247 -0.0542  1.7781  0.0918
   13SAPS  C313 1711   4.534   5.249   8.428 -0.3605 -0.4765 -0.2379
   13SAPS  H13X 1712   4.556   5.332   8.498 -0.7238 -1.1774  0.7434
   13SAPS  H13Y 1713   4.638   5.240   8.392  0.4874  2.9340  0.9785
   13SAPS  C314 1714   4.487   5.122   8.493  1.3559  0.1975  0.5219
   13SAPS  H14X 1715   4.502   5.044   8.415 -1.4737  0.4665 -0.3999
   13SAPS  H14Y 1716   4.378   5.137   8.505  1.4603  1.9251 -0.3622
   13SAPS  C315 1717   4.546   5.084   8.626  0.2687  0.9979 -0.2792
   13SAPS  H15X 1718   4.468   5.016   8.665 -0.2444  2.3307  1.1172
   13SAPS  H15Y 1719   4.550   5.180   8.683 -1.5091  0.3659  0.9861
   13SAPS  C316 1720   4.672   5.001   8.607  0.3498 -0.3330  0.0093
   13SAPS  H16X 1721   4.733   5.030   8.519 -0.0450 -1.1167 -0.5397
   13SAPS  H16Y 1722   4.642   4.895   8.591  1.7188 -1.5311  4.2172
   13SAPS  C317 1723   4.768   4.998   8.733 -0.1494  0.7287  0.8463
   13SAPS  H17X 1724   4.810   5.100   8.724  0.2925  0.3729 -2.1773
   13SAPS  H17Y 1725   4.850   4.926   8.710 -1.3022  0.0930 -1.6906
   13SAPS  C318 1726   4.709   4.964   8.862  0.1279 -0.2825 -0.0600
   13SAPS  H18X 1727   4.631   5.042   8.875 -0.7283 -1.0764 -0.3329
   13SAPS  H18Y 1728   4.787   4.965   8.942 -1.6189 -1.0267  1.7188
   13SAPS  H18Z 1729   4.657   4.866   8.862  0.3217 -0.4441 -2.6082
   14SAPS     N 1730   5.075   0.338   5.655 -0.8139 -0.5548 -0.4502
   14SAPS   HN1 1731   5.150   0.396   5.614 -1.4784 -0.1114 -1.0517
   14SAPS   HN2 1732   4.980   0.365   5.623 -1.8574 -2.4272  0.8086
   14SAPS   HN3 1733   5.078   0.341   5.759  1.1471  2.8380 -0.4776
   14SAPS   C12 1734   5.098   0.190   5.623  0.3005 -0.6865 -0.3089
   14SAPS  H12A 1735   5.003   0.141   5.637 -0.1815  0.3109  0.0663
   14SAPS   C13 1736   5.132   0.162   5.480  0.1111 -0.7473  0.4175
   14SAPS  O13A 1737   5.156   0.259   5.405 -0.3575 -0.1014 -0.1998
   14SAPS  O13B 1738   5.153   0.042   5.443  0.0752 -0.1953  0.5403
   14SAPS   C11 1739   5.218   0.138   5.715 -0.1696  0.7075  0.2756
   14SAPS  H11A 1740   5.306   0.200   5.688  0.9655 -1.3884 -1.1443
   14SAPS  H11B 1741   5.233   0.034   5.680  0.4413 -0.5632  3.8984
   14SAPS     P 1742   5.241   0.021   5.961 -0.0218 -0.4492  0.0184
   14SAPS   O13 1743   5.163  -0.105   5.983  0.3999 -0.2664  0.3868
   14SAPS   O14 1744   5.387   0.010   5.931  0.9059  0.3783  0.7916
   14SAPS   O12 1745   5.172   0.118   5.853 -0.5248 -0.3619 -0.3517
   14SAPS   O11 1746   5.234   0.099   6.101 -0.5623  0.2035 -0.4107
   14SAPS    C1 1747   5.125   0.191   6.125  0.1182  0.0739  0.3882
   14SAPS    HA 1748   5.130   0.286   6.066 -2.0810 -0.8238 -1.4128
   14SAPS    HB 1749   5.032   0.139   6.094  0.1867 -0.0796  0.4441
   14SAPS    C2 1750   5.092   0.221   6.274  0.4521  0.2744  0.8442
   14SAPS    HS 1751   5.020   0.305   6.270  0.2844  0.0840 -0.6602
   14SAPS   O21 1752   5.211   0.261   6.344  0.0243 -0.9280 -0.8551
   14SAPS   C21 1753   5.266   0.365   6.298  0.0082  0.4917 -0.7033
   14SAPS   O22 1754   5.212   0.441   6.217 -0.5014 -0.5173 -0.3142
   14SAPS   C22 1755   5.405   0.376   6.359 -0.1519 -0.5356 -0.0476
   14SAPS   H2R 1756   5.436   0.282   6.410 -1.4233 -1.4296 -0.8709
   14SAPS   H2S 1757   5.477   0.396   6.277  1.8743 -0.8813  1.5769
   14SAPS    C3 1758   5.023   0.103   6.344  0.2689 -0.9343 -0.1892
   14SAPS    HX 1759   5.084   0.010   6.334 -0.8368 -1.5846 -1.1117
   14SAPS    HY 1760   4.927   0.087   6.292 -1.6428  1.5350  2.2700
   14SAPS   O31 1761   4.990   0.130   6.478 -0.5103  0.1632 -0.6910
   14SAPS   C31 1762   5.089   0.091   6.566  0.0864  0.5258 -0.6588
   14SAPS   O32 1763   5.189   0.030   6.536  0.0075  0.1690  0.2081
   14SAPS   C32 1764   5.035   0.119   6.710  0.9549  0.1714  0.3135
   14SAPS   H2X 1765   4.948   0.054   6.733  0.2567  1.7774  2.4914
   14SAPS   H2Y 1766   4.997   0.223   6.713 -1.7133 -0.7007 -0.3500
   14SAPS   C23 1767   5.426   0.493   6.455 -0.3953  0.3337 -0.1154
   14SAPS   H3R 1768   5.382   0.588   6.419 -1.7866 -0.5144 -0.7002
   14SAPS   H3S 1769   5.537   0.499   6.461 -0.3462  1.1274 -1.5320
   14SAPS   C24 1770   5.383   0.466   6.600 -0.1436 -0.0710  0.3240
   14SAPS   H4R 1771   5.445   0.382   6.637  0.6148  0.6623  0.7664
   14SAPS   H4S 1772   5.277   0.435   6.599 -0.1083 -0.2367 -1.3566
   14SAPS   C25 1773   5.416   0.577   6.697 -0.1208  0.8722  0.6709
   14SAPS   H5R 1774   5.420   0.674   6.645  0.6480 -1.0302 -3.2137
   14SAPS   C26 1775   5.446   0.573   6.830  0.9529 -0.7335  0.2993
   14SAPS   H6R 1776   5.476   0.670   6.874 -0.2729  0.8810 -2.2179
   14SAPS   C27 1777   5.459   0.446   6.907  0.5427 -0.6480 -0.3717
   14SAPS   H7R 1778   5.436   0.355   6.848  0.5255 -0.5644 -0.4959
   14SAPS   H7S 1779   5.381   0.455   6.985  1.1507  2.8998  0.0058
   14SAPS   C28 1780   5.595   0.432   6.962  0.7023 -0.0089  0.3240
   14SAPS   H8R 1781   5.682   0.421   6.897  0.4553  1.2222 -0.2398
   14SAPS   C29 1782   5.628   0.459   7.090 -0.0039  0.7909  0.1827
   14SAPS   H9R 1783   5.736   0.448   7.110  0.0281 -0.6117 -0.6064
   14SAPS  C210 1784   5.536   0.518   7.192 -0.5099 -0.0325 -0.9438
   14SAPS  H10R 1785   5.461   0.438   7.213 -0.7628 -0.0645 -1.9009
   14SAPS  H10S 1786   5.481   0.604   7.149  0.1763  0.4547 -0.8577
   14SAPS  C211 1787   5.604   0.551   7.323  1.0956  0.2522  0.0953
   14SAPS  H11R 1788   5.687   0.622   7.312  1.0068  0.9048  2.9255
   14SAPS  C212 1789   5.587   0.496   7.448  0.1347  0.6208 -0.2518
   14SAPS  H12R 1790   5.638   0.532   7.538 -0.4805 -2.3891  1.4703
   14SAPS  C213 1791   5.478   0.395   7.479 -0.2935 -0.0859 -0.2123
   14SAPS  H13R 1792   5.519   0.302   7.524 -0.4396  0.2866  0.7153
   14SAPS  H13S 1793   5.424   0.350   7.393  1.5384 -1.9821 -0.4402
   14SAPS  C214 1794   5.377   0.438   7.583 -0.0366  0.2679 -0.3433
   14SAPS  H14R 1795   5.279   0.463   7.540  0.5473  2.3101 -0.5586
   14SAPS  C215 1796   5.395   0.460   7.713  0.0002  0.3876  0.7087
   14SAPS  H15R 1797   5.309   0.479   7.777 -1.6276  1.9590 -1.7724
   14SAPS  C216 1798   5.522   0.452   7.789  0.1186  0.2365 -0.3105
   14SAPS  H16R 1799   5.505   0.529   7.867 -0.4010 -2.2389  2.1746
   14SAPS  H16S 1800   5.613   0.481   7.733  0.1040  0.0244 -0.4440
   14SAPS  C217 1801   5.547   0.309   7.848 -0.0076 -0.3972  0.0409
   14SAPS  H17R 1802   5.571   0.234   7.769  1.4500  2.0121 -1.9653
   14SAPS  H17S 1803   5.450   0.276   7.890 -1.7626 -0.4001 -3.6179
   14SAPS  C218 1804   5.651   0.318   7.960  0.3091  0.3113  0.4828
   14SAPS  H18R 1805   5.748   0.364   7.933  1.6189 -0.8387  2.8424
   14SAPS  H18S 1806   5.669   0.215   7.999 -1.9662  0.1433  1.2652
   14SAPS  C219 1807   5.603   0.399   8.070 -0.3255  0.0527  0.1866
   14SAPS  H19R 1808   5.496   0.375   8.087 -0.7647  1.4768 -0.3975
   14SAPS  H19S 1809   5.613   0.506   8.042 -1.4465  0.0801 -0.1577
   14SAPS  C220 1810   5.678   0.360   8.197 -0.9698  0.2652  0.3137
   14SAPS  H20R 1811   5.787   0.371   8.178 -0.9194 -1.1678 -0.3487
   14SAPS  H20S 1812   5.667   0.252   8.220  1.0535  0.3944  2.1427
   14SAPS  H20T 1813   5.639   0.422   8.281  1.2281 -0.6066  2.0535
   14SAPS   C33 1814   5.145   0.086   6.815  0.1187  0.5515 -0.3102
   14SAPS   H3X 1815   5.227   0.161   6.816  0.8051 -0.1828  0.5912
   14SAPS   H3Y 1816   5.191  -0.013   6.795 -0.8535 -0.5970  2.5320
   14SAPS   C34 1817   5.088   0.081   6.965 -0.2045  0.8163  1.1716
   14SAPS   H4X 1818   5.133  -0.005   7.018  0.0396  1.5450  2.1831
   14SAPS   H4Y 1819   4.978   0.061   6.965 -0.4310  1.9353  0.3872
   14SAPS   C35 1820   5.108   0.211   7.037 -0.5302 -0.3006  0.4305
   14SAPS   H5X 1821   5.055   0.283   6.971  2.2971 -0.4458 -2.2257
   14SAPS   H5Y 1822   5.218   0.225   7.040 -0.4924 -0.7085  1.1693
   14SAPS   C36 1823   5.069   0.209   7.188 -0.1677 -0.7217 -0.4158
   14SAPS   H6X 1824   5.114   0.125   7.244  1.1820  0.4858  0.3703
   14SAPS   H6Y 1825   4.959   0.192   7.178 -0.7865  2.0700  0.6257
   14SAPS   C37 1826   5.092   0.340   7.269  0.4998  0.3590 -0.9119
   14SAPS   H7X 1827   5.047   0.422   7.209 -0.7286  1.0754  0.9185
   14SAPS   H7Y 1828   5.200   0.363   7.267  0.5737 -0.0238 -2.1800
   14SAPS   C38 1829   5.027   0.354   7.405 -0.0050  1.0702  0.5451
   14SAPS   H8X 1830   5.077   0.435   7.463 -0.7739 -0.0857  2.9128
   14SAPS   H8Y 1831   5.047   0.272   7.477  1.4993  1.4701  0.6223
   14SAPS   C39 1832   4.880   0.367   7.390  0.3155  0.1692  0.3647
   14SAPS   H9X 1833   4.835   0.295   7.462 -0.3306  1.2967  1.1275
   14SAPS   H9Y 1834   4.837   0.330   7.295  0.1179 -1.5050  1.0641
   14SAPS  C310 1835   4.816   0.505   7.423  0.2912 -0.7042 -0.5872
   14SAPS  H10X 1836   4.706   0.497   7.415  0.1910  0.4449 -0.5584
   14SAPS  H10Y 1837   4.853   0.584   7.354 -1.2476  1.4069  0.8597
   14SAPS  C311 1838   4.844   0.545   7.572 -0.6273 -0.5747  0.5709
   14SAPS  H11X 1839   4.949   0.582   7.582 -0.4927 -0.4148 -1.0733
   14SAPS  H11Y 1840   4.817   0.461   7.639 -0.9791  0.1220  1.3189
   14SAPS  C312 1841   4.761   0.665   7.614  0.1106  0.7359 -0.1543
   14SAPS  H12X 1842   4.657   0.655   7.577  0.7311 -3.3533 -1.2430
   14SAPS  H12Y 1843   4.812   0.751   7.565  2.0498  0.1156  0.6782
   14SAPS  C313 1844   4.766   0.691   7.765 -0.2021 -0.0929 -0.7334
   14SAPS  H13X 1845   4.871   0.692   7.802 -0.8437  0.0813  1.1780
   14SAPS  H13Y 1846   4.724   0.600   7.812  2.2959  0.5145  3.2091
   14SAPS  C314 1847   4.706   0.819   7.823  0.4820 -0.3982 -0.7755
   14SAPS  H14X 1848   4.598   0.836   7.803  0.7858  2.5436 -0.3006
   14SAPS  H14Y 1849   4.767   0.895   7.770  0.5597  0.0218 -0.0930
   14SAPS  C315 1850   4.750   0.833   7.968 -0.3799  0.1815 -0.1078
   14SAPS  H15X 1851   4.859   0.814   7.977 -0.6971 -2.1700 -0.4763
   14SAPS  H15Y 1852   4.710   0.745   8.023  0.5768  0.1300  0.5231
   14SAPS  C316 1853   4.700   0.954   8.044 -0.0694 -0.0884 -0.1387
   14SAPS  H16X 1854   4.589   0.960   8.045 -0.0245  0.9979  0.0800
   14SAPS  H16Y 1855   4.740   1.038   7.983 -1.3492 -0.9019 -2.1890
   14SAPS  C317 1856   4.764   0.973   8.184  0.3352  0.2814  0.8049
   14SAPS  H17X 1857   4.748   0.880   8.242  2.3755 -0.8309 -0.2981
   14SAPS  H17Y 1858   4.707   1.052   8.237 -2.7938 -1.5045  0.3663
   14SAPS  C318 1859   4.910   1.010   8.179 -0.4451 -0.4431 -0.3055
   14SAPS  H18X 1860   4.969   0.929   8.131 -3.5537 -1.6306 -2.4170
   14SAPS  H18Y 1861   4.955   1.035   8.277 -2.9753  1.5613  0.4447
   14SAPS  H18Z 1862   4.917   1.096   8.108 -0.2079 -0.5320 -0.3904
   15SAPS     N 1863   6.088   0.381   5.810 -0.0841 -0.1246  0.3999
   15SAPS   HN1 1864   6.091   0.307   5.737  0.3332  1.3327 -1.1134
   15SAPS   HN2 1865   6.006   0.442   5.789 -0.8690 -0.7008  1.6943
   15SAPS   HN3 1866   6.170   0.444   5.799 -0.8554  0.9126  0.4471
   15SAPS   C12 1867   6.078   0.328   5.948 -0.4623  0.0434 -0.1945
   15SAPS  H12A 1868   5.990   0.268   5.963 -0.6130  0.7906  2.3537
   15SAPS   C13 1869   6.197   0.233   5.966  0.4338 -0.3031  0.3456
   15SAPS  O13A 1870   6.292   0.225   5.882 -0.0511  0.2311  0.1651
   15SAPS  O13B 1871   6.201   0.168   6.075  0.0581 -0.2970 -0.5162
   15SAPS   C11 1872   6.075   0.447   6.057  0.5214  0.1062  0.1107
   15SAPS  H11A 1873   6.157   0.514   6.024  0.8605  0.2395  1.1916
   15SAPS  H11B 1874   6.097   0.418   6.161 -1.0037  0.2832  0.5070
   15SAPS     P 1875   5.812   0.477   6.074 -0.4903  0.0525 -0.0271
   15SAPS   O13 1876   5.734   0.496   5.955  0.0153  0.3713  0.1097
   15SAPS   O14 1877   5.819   0.337   6.122 -0.2554 -0.0500 -0.1372
   15SAPS   O12 1878   5.957   0.533   6.047  0.2762  0.2053 -0.4017
   15SAPS   O11 1879   5.769   0.576   6.194  0.4567 -0.4141 -0.9372
   15SAPS    C1 1880   5.774   0.709   6.172 -0.3880  0.6429  0.0129
   15SAPS    HA 1881   5.878   0.747   6.187 -0.7716  1.1284  1.6492
   15SAPS    HB 1882   5.749   0.741   6.068  1.1207 -2.4662 -1.4282
   15SAPS    C2 1883   5.671   0.783   6.257 -0.0561  0.2186 -0.7477
   15SAPS    HS 1884   5.689   0.893   6.253 -0.9062  0.3817 -0.2187
   15SAPS   O21 1885   5.679   0.743   6.399  0.5525  0.0739  0.0661
   15SAPS   C21 1886   5.794   0.783   6.456  0.5443 -0.5046  0.3372
   15SAPS   O22 1887   5.876   0.859   6.411 -0.5578  0.0463  0.7845
   15SAPS   C22 1888   5.803   0.734   6.604  0.2998  0.2852  1.4038
   15SAPS   H2R 1889   5.708   0.689   6.641 -0.1644  2.3847  2.9510
   15SAPS   H2S 1890   5.885   0.660   6.592  2.3202  2.5974 -0.0310
   15SAPS    C3 1891   5.527   0.744   6.207 -0.1288 -0.1051 -0.5790
   15SAPS    HX 1892   5.512   0.635   6.221 -2.1745  0.2940  0.7162
   15SAPS    HY 1893   5.518   0.764   6.098  0.4448 -1.5708 -0.9186
   15SAPS   O31 1894   5.429   0.817   6.285 -0.1377  0.1463 -0.3824
   15SAPS   C31 1895   5.396   0.937   6.236 -0.6198  0.3381  0.1031
   15SAPS   O32 1896   5.448   0.981   6.134  0.2893 -0.0397 -0.1143
   15SAPS   C32 1897   5.273   0.990   6.303 -0.2397 -0.4201  0.0525
   15SAPS   H2X 1898   5.190   0.917   6.302  1.3019 -2.2617  0.7214
   15SAPS   H2Y 1899   5.246   1.074   6.235  1.8671 -0.2850 -0.7026
   15SAPS   C23 1900   5.817   0.855   6.697 -0.0773  0.4240 -0.2549
   15SAPS   H3R 1901   5.740   0.933   6.682 -0.8975 -0.5257 -1.1365
   15SAPS   H3S 1902   5.920   0.898   6.693 -0.1649  0.5863 -0.7364
   15SAPS   C24 1903   5.792   0.815   6.839 -1.1077 -0.2519 -0.0547
   15SAPS   H4R 1904   5.845   0.720   6.857  1.4657  0.7292 -1.9055
   15SAPS   H4S 1905   5.686   0.783   6.848 -1.2638  0.7809  3.2091
   15SAPS   C25 1906   5.837   0.915   6.944  0.3959 -0.2669 -0.0511
   15SAPS   H5R 1907   5.935   0.962   6.927  0.9145 -0.8217  1.2464
   15SAPS   C26 1908   5.778   0.949   7.058  0.2156  0.7534 -0.2723
   15SAPS   H6R 1909   5.814   1.040   7.106 -0.3231  0.6602  0.3155
   15SAPS   C27 1910   5.651   0.906   7.122  0.3133 -0.3371  0.1754
   15SAPS   H7R 1911   5.673   0.837   7.206 -2.1698  0.1345  1.3087
   15SAPS   H7S 1912   5.597   0.838   7.053 -0.0357 -1.1085  1.2010
   15SAPS   C28 1913   5.563   1.020   7.164 -0.9240  0.1902 -0.3454
   15SAPS   H8R 1914   5.494   1.051   7.084 -0.6511 -1.2046 -1.1600
   15SAPS   C29 1915   5.571   1.085   7.280 -0.6030 -0.1934 -0.4066
   15SAPS   H9R 1916   5.494   1.162   7.297 -0.8775 -0.1742 -1.6678
   15SAPS  C210 1917   5.673   1.047   7.393  0.3106  0.1205  0.4728
   15SAPS  H10R 1918   5.705   1.129   7.460 -0.2520  0.9978 -0.3128
   15SAPS  H10S 1919   5.766   1.001   7.353 -0.3094 -0.3141 -0.5302
   15SAPS  C211 1920   5.603   0.941   7.473 -0.3693 -0.5296 -0.4247
   15SAPS  H11R 1921   5.524   0.879   7.427  0.4471 -1.3680 -0.7303
   15SAPS  C212 1922   5.610   0.934   7.610 -0.1158  0.4512 -0.0305
   15SAPS  H12R 1923   5.548   0.862   7.665  1.0710 -1.0224 -0.5371
   15SAPS  C213 1924   5.703   1.013   7.700 -0.4192  0.2782 -0.2241
   15SAPS  H13R 1925   5.796   1.052   7.655  1.1592 -1.7979  1.0504
   15SAPS  H13S 1926   5.753   0.944   7.771  0.8365  1.0796 -0.3044
   15SAPS  C214 1927   5.628   1.117   7.769  0.6187 -0.1157 -0.1947
   15SAPS  H14R 1928   5.628   1.214   7.719 -0.1859  1.6004  2.8856
   15SAPS  C215 1929   5.570   1.105   7.889 -0.3546 -0.0061 -0.4318
   15SAPS  H15R 1930   5.508   1.181   7.939 -1.0480 -1.2135  0.6059
   15SAPS  C216 1931   5.572   0.980   7.974 -0.1264 -0.4509  0.4615
   15SAPS  H16R 1932   5.662   0.918   7.955 -0.3879 -0.7331  0.1207
   15SAPS  H16S 1933   5.479   0.927   7.944  0.0814  0.0105 -1.1135
   15SAPS  C217 1934   5.558   0.993   8.130  0.7783  0.3907 -0.6031
   15SAPS  H17R 1935   5.559   0.890   8.172  0.8289  0.1606 -1.1593
   15SAPS  H17S 1936   5.459   1.029   8.164  0.5693 -1.3203  0.7106
   15SAPS  C218 1937   5.672   1.071   8.200 -0.0571  0.3370 -0.1286
   15SAPS  H18R 1938   5.660   1.174   8.159 -1.4700  0.1105 -0.3088
   15SAPS  H18S 1939   5.768   1.030   8.162 -0.2493 -1.3902  1.1491
   15SAPS  C219 1940   5.673   1.066   8.353 -0.3093  0.5770  0.8665
   15SAPS  H19R 1941   5.665   0.963   8.394 -0.2641  0.3382  0.2946
   15SAPS  H19S 1942   5.572   1.103   8.381 -0.7143  1.0877 -1.1243
   15SAPS  C220 1943   5.764   1.165   8.420 -0.3085  0.0219 -0.9043
   15SAPS  H20R 1944   5.861   1.166   8.365 -0.1593  1.3812 -0.6560
   15SAPS  H20S 1945   5.785   1.140   8.526 -2.0791 -1.2789 -0.8327
   15SAPS  H20T 1946   5.727   1.269   8.408  0.3346  0.1732 -1.6313
   15SAPS   C33 1947   5.315   1.038   6.446 -0.2093  0.0432 -0.5479
   15SAPS   H3X 1948   5.258   1.130   6.474  0.9298  0.9976 -1.2714
   15SAPS   H3Y 1949   5.424   1.050   6.464 -0.1689 -0.3660 -0.5134
   15SAPS   C34 1950   5.270   0.926   6.544 -0.1413 -0.7317 -0.5396
   15SAPS   H4X 1951   5.317   0.834   6.502  0.9056  0.2674 -1.6346
   15SAPS   H4Y 1952   5.159   0.920   6.548 -0.1824 -0.2534 -0.9492
   15SAPS   C35 1953   5.325   0.947   6.688  0.4982  0.3333  0.4710
   15SAPS   H5X 1954   5.430   0.913   6.675 -0.0407 -0.9799 -0.7368
   15SAPS   H5Y 1955   5.270   0.875   6.753 -2.2421  0.0628 -1.9392
   15SAPS   C36 1956   5.312   1.084   6.746 -0.6737  0.2836  0.3688
   15SAPS   H6X 1957   5.379   1.155   6.693  0.3167 -0.6424  0.3518
   15SAPS   H6Y 1958   5.350   1.080   6.851  0.5466 -1.0590 -0.0900
   15SAPS   C37 1959   5.172   1.146   6.740  0.1751  0.0074  0.0413
   15SAPS   H7X 1960   5.101   1.097   6.809 -0.3356  1.8424  0.8858
   15SAPS   H7Y 1961   5.126   1.127   6.641 -0.1059 -0.5020  0.2689
   15SAPS   C38 1962   5.167   1.299   6.778 -0.5774 -0.8303  0.1595
   15SAPS   H8X 1963   5.066   1.343   6.772 -0.2589 -0.0975  0.1534
   15SAPS   H8Y 1964   5.214   1.349   6.691 -1.6495 -0.6719 -0.3378
   15SAPS   C39 1965   5.257   1.350   6.892  0.2707  0.1254  0.3142
   15SAPS   H9X 1966   5.251   1.461   6.896 -1.3099  0.2139 -2.2423
   15SAPS   H9Y 1967   5.364   1.331   6.870 -0.0491 -4.2230  1.7206
   15SAPS  C310 1968   5.205   1.304   7.032  0.1027 -0.1468  0.4809
   15SAPS  H10X 1969   5.197   1.194   7.042  1.7318 -0.2868  0.5433
   15SAPS  H10Y 1970   5.101   1.334   7.056 -0.1565 -0.8690  0.2746
   15SAPS  C311 1971   5.299   1.364   7.132 -0.4178 -0.7057  0.2705
   15SAPS  H11X 1972   5.307   1.473   7.110  1.2346 -0.7964  0.3142
   15SAPS  H11Y 1973   5.407   1.337   7.132  0.3769  2.1268  0.2578
   15SAPS  C312 1974   5.266   1.340   7.277 -0.3079 -0.3693 -0.6535
   15SAPS  H12X 1975   5.268   1.233   7.307 -2.0599  0.0245  1.0888
   15SAPS  H12Y 1976   5.159   1.369   7.289  0.6448  2.7623  1.3847
   15SAPS  C313 1977   5.364   1.421   7.364 -0.4367  0.0629 -0.3623
   15SAPS  H13X 1978   5.361   1.527   7.329 -0.9174 -0.1827 -1.0885
   15SAPS  H13Y 1979   5.468   1.388   7.344 -0.6558 -1.8438  1.4333
   15SAPS  C314 1980   5.343   1.412   7.517 -0.2520 -0.1876  0.0724
   15SAPS  H14X 1981   5.322   1.306   7.540 -1.7647 -0.6280 -2.8576
   15SAPS  H14Y 1982   5.250   1.471   7.531 -0.3703 -0.7033  1.6069
   15SAPS  C315 1983   5.461   1.473   7.599  0.7172  0.0975  0.1731
   15SAPS  H15X 1984   5.472   1.581   7.577 -0.7492 -0.0137 -1.3247
   15SAPS  H15Y 1985   5.556   1.420   7.580  0.6655  0.3459 -0.8047
   15SAPS  C316 1986   5.426   1.440   7.752 -0.4958 -0.0931  0.1917
   15SAPS  H16X 1987   5.421   1.330   7.769 -0.3982  0.1069  1.7398
   15SAPS  H16Y 1988   5.328   1.491   7.765  0.6321  2.2065  0.1286
   15SAPS  C317 1989   5.532   1.504   7.843  0.6171 -0.3926 -1.0795
   15SAPS  H17X 1990   5.543   1.612   7.819 -2.4726  0.0022 -1.0674
   15SAPS  H17Y 1991   5.634   1.463   7.825  1.0909  0.9298 -1.5267
   15SAPS  C318 1992   5.509   1.490   7.998  0.1897  0.4641 -0.3096
   15SAPS  H18X 1993   5.490   1.383   8.023  0.7977  0.0733 -1.4287
   15SAPS  H18Y 1994   5.427   1.551   8.041  0.3244  0.3183  0.1536
   15SAPS  H18Z 1995   5.599   1.526   8.052 -0.7013 -0.9315  2.2827
   16SAPS     N 1996   0.541   1.858   6.194 -0.0152 -0.1020  0.1876
   16SAPS   HN1 1997   0.541   1.817   6.290  1.2602  1.4102  0.8678
   16SAPS   HN2 1998   0.464   1.804   6.148 -0.7506  1.0295  0.0640
   16SAPS   HN3 1999   0.628   1.862   6.138 -0.4083  2.9282 -0.3811
   16SAPS   C12 2000   0.500   2.001   6.210  0.6150  0.6617 -0.7188
   16SAPS  H12A 2001   0.525   2.045   6.115  2.0462  1.0391 -0.1854
   16SAPS   C13 2002   0.342   2.018   6.230 -0.7760 -0.3562  0.2185
   16SAPS  O13A 2003   0.263   1.920   6.212 -0.3811  0.1168 -0.3221
   16SAPS  O13B 2004   0.294   2.134   6.242 -0.1117  0.1619  0.3017
   16SAPS   C11 2005   0.580   2.051   6.333 -0.0683 -0.3951  0.1179
   16SAPS  H11A 2006   0.531   2.147   6.359  0.6646 -0.0253  0.1578
   16SAPS  H11B 2007   0.686   2.067   6.302 -0.6568  0.5846 -1.5227
   16SAPS     P 2008   0.638   1.984   6.584  0.5447 -0.1838 -0.2705
   16SAPS   O13 2009   0.623   1.863   6.668  0.3611  0.8033  0.0351
   16SAPS   O14 2010   0.772   2.029   6.558 -0.1597 -0.3736  0.0705
   16SAPS   O12 2011   0.567   1.959   6.443 -0.3080  0.5375 -0.7566
   16SAPS   O11 2012   0.555   2.099   6.654 -0.1104  0.5829 -0.5183
   16SAPS    C1 2013   0.429   2.153   6.617 -0.2959 -0.2466  0.3350
   16SAPS    HA 2014   0.429   2.263   6.630 -1.4501  0.2244 -2.6247
   16SAPS    HB 2015   0.407   2.144   6.508  1.3911 -1.1042  0.0390
   16SAPS    C2 2016   0.307   2.105   6.710  1.4900 -0.8374 -0.8696
   16SAPS    HS 2017   0.216   2.167   6.695  1.1243 -0.4038  2.3653
   16SAPS   O21 2018   0.349   2.117   6.845  0.5866  0.2602 -0.0421
   16SAPS   C21 2019   0.353   2.238   6.897  0.2242  1.0030 -0.4663
   16SAPS   O22 2020   0.325   2.339   6.833 -0.1572 -0.0237 -0.1549
   16SAPS   C22 2021   0.409   2.231   7.033 -0.0768 -0.4442 -0.0375
   16SAPS   H2R 2022   0.357   2.147   7.084  1.8194 -1.0380  1.0420
   16SAPS   H2S 2023   0.516   2.201   7.020 -0.1499 -0.1499 -1.5137
   16SAPS    C3 2024   0.269   1.963   6.678  0.0397  0.4898 -0.2128
   16SAPS    HX 2025   0.348   1.888   6.698 -1.2331  0.1530  4.6957
   16SAPS    HY 2026   0.237   1.960   6.571  1.7073  0.6339 -0.7381
   16SAPS   O31 2027   0.153   1.912   6.751  0.0634 -0.2570 -0.1475
   16SAPS   C31 2028   0.188   1.824   6.853  0.5544 -0.1698 -0.4339
   16SAPS   O32 2029   0.300   1.797   6.888  0.0597  0.6321 -0.7408
   16SAPS   C32 2030   0.061   1.767   6.910  0.1444  0.4608  0.5304
   16SAPS   H2X 2031   0.028   1.674   6.859 -1.0055  2.3443 -2.3834
   16SAPS   H2Y 2032  -0.020   1.839   6.887  0.1054  0.0804 -0.5799
   16SAPS   C23 2033   0.399   2.364   7.110  0.1205  0.6443  0.0803
   16SAPS   H3R 2034   0.301   2.417   7.110 -1.6804 -2.4101 -0.7383
   16SAPS   H3S 2035   0.474   2.424   7.054  3.8709 -1.5681  2.2928
   16SAPS   C24 2036   0.459   2.341   7.256 -0.1451 -0.2034  0.0082
   16SAPS   H4R 2037   0.449   2.445   7.294 -3.5617 -0.1613 -0.6852
   16SAPS   H4S 2038   0.568   2.316   7.252 -0.3945 -1.3300 -0.0902
   16SAPS   C25 2039   0.381   2.240   7.333  0.5442  0.3085 -0.9210
   16SAPS   H5R 2040   0.346   2.146   7.288 -0.7151 -0.0384  0.6625
   16SAPS   C26 2041   0.364   2.246   7.467 -0.4570 -0.0387  1.0419
   16SAPS   H6R 2042   0.319   2.162   7.523  1.3901 -0.0971  2.5296
   16SAPS   C27 2043   0.410   2.349   7.560  0.0952  0.8018 -0.0161
   16SAPS   H7R 2044   0.455   2.432   7.500 -0.5735  1.3688  0.2424
   16SAPS   H7S 2045   0.490   2.315   7.629 -0.1007  0.5442  0.0814
   16SAPS   C28 2046   0.287   2.383   7.640 -0.5935  0.4428  0.4205
   16SAPS   H8R 2047   0.235   2.465   7.589  2.0062  0.0611 -3.2543
   16SAPS   C29 2048   0.253   2.348   7.765  0.2707  0.0670 -0.7647
   16SAPS   H9R 2049   0.172   2.405   7.812  0.3524  2.0344 -2.8530
   16SAPS  C210 2050   0.324   2.250   7.848  0.1690 -0.0610 -0.4624
   16SAPS  H10R 2051   0.379   2.304   7.928  0.9428  1.4415 -1.9591
   16SAPS  H10S 2052   0.417   2.206   7.806  1.6822 -0.5811  3.0857
   16SAPS  C211 2053   0.235   2.136   7.897  0.3384 -0.5234  0.4117
   16SAPS  H11R 2054   0.162   2.090   7.830  0.1914 -1.0711  0.9405
   16SAPS  C212 2055   0.247   2.076   8.011 -0.7731  0.4000  0.4592
   16SAPS  H12R 2056   0.168   2.002   8.035  1.4797 -1.8282  1.4033
   16SAPS  C213 2057   0.345   2.109   8.116 -0.2569  0.1571 -0.6360
   16SAPS  H13R 2058   0.325   2.214   8.147 -1.7223 -0.9667  2.7359
   16SAPS  H13S 2059   0.449   2.116   8.078 -0.3343 -0.1808 -0.9187
   16SAPS  C214 2060   0.348   2.024   8.243 -0.0447 -0.3905  0.4319
   16SAPS  H14R 2061   0.407   1.933   8.223  0.1335 -0.1375 -0.2119
   16SAPS  C215 2062   0.275   2.043   8.355  0.4357 -0.0885 -0.1175
   16SAPS  H15R 2063   0.276   1.973   8.440 -1.4301 -0.9341 -0.7542
   16SAPS  C216 2064   0.188   2.160   8.377 -0.0046 -1.2124 -0.7845
   16SAPS  H16R 2065   0.105   2.121   8.440 -1.0893  2.1580  0.1011
   16SAPS  H16S 2066   0.142   2.209   8.288  1.8639  0.9107 -0.6644
   16SAPS  C217 2067   0.254   2.285   8.446  0.9440  0.3792  0.1071
   16SAPS  H17R 2068   0.345   2.322   8.395  0.3494  1.3790 -0.2762
   16SAPS  H17S 2069   0.287   2.242   8.542  1.0063  0.1797 -0.0037
   16SAPS  C218 2070   0.152   2.398   8.472  0.5020  0.4463  0.6106
   16SAPS  H18R 2071   0.050   2.354   8.479  1.1042 -0.9193  1.1175
   16SAPS  H18S 2072   0.145   2.459   8.379 -0.5979 -1.3091 -0.5266
   16SAPS  C219 2073   0.188   2.483   8.591 -0.2259  0.2136 -0.3802
   16SAPS  H19R 2074   0.181   2.422   8.683  2.7432 -0.3163 -0.4048
   16SAPS  H19S 2075   0.133   2.579   8.600  1.6443  1.2062  1.2603
   16SAPS  C220 2076   0.340   2.527   8.597  0.7306  0.6018 -0.1755
   16SAPS  H20R 2077   0.362   2.591   8.510 -1.3318  1.3047 -0.2530
   16SAPS  H20S 2078   0.413   2.444   8.599 -0.7367 -0.7637 -1.0305
   16SAPS  H20T 2079   0.338   2.593   8.687 -3.6483  0.3800  0.1009
   16SAPS   C33 2080   0.069   1.757   7.066 -0.3287 -0.3793  0.2032
   16SAPS   H3X 2081   0.165   1.715   7.104  0.1021  1.4926  1.3483
   16SAPS   H3Y 2082  -0.017   1.690   7.087 -0.9684  0.2511 -0.3829
   16SAPS   C34 2083   0.037   1.893   7.142  0.0222  0.0972  0.0666
   16SAPS   H4X 2084  -0.062   1.931   7.111 -0.0548 -1.0622 -1.1900
   16SAPS   H4Y 2085   0.121   1.961   7.118  0.5337 -0.5421 -0.0039
   16SAPS   C35 2086   0.033   1.859   7.298 -0.7491  0.1189  0.3431
   16SAPS   H5X 2087   0.116   1.793   7.331 -2.1003 -1.3217  1.0195
   16SAPS   H5Y 2088  -0.054   1.790   7.294 -1.2343  0.7142  0.4718
   16SAPS   C36 2089   0.008   1.972   7.383 -0.4648 -0.7220  0.1220
   16SAPS   H6X 2090  -0.068   2.038   7.336 -0.4119  0.2913  1.4292
   16SAPS   H6Y 2091   0.095   2.039   7.392 -1.1317  0.1267  0.3341
   16SAPS   C37 2092  -0.056   1.928   7.508 -0.3813 -0.7183  0.3047
   16SAPS   H7X 2093  -0.147   1.873   7.475 -0.8582  0.4311 -0.3489
   16SAPS   H7Y 2094  -0.098   2.018   7.557 -0.5180 -1.0176  0.7534
   16SAPS   C38 2095   0.027   1.862   7.617  0.4475  0.2646  0.1193
   16SAPS   H8X 2096   0.120   1.920   7.635 -0.0797  0.7542  1.4276
   16SAPS   H8Y 2097   0.043   1.753   7.605  1.5713  0.3087  1.0367
   16SAPS   C39 2098  -0.053   1.881   7.744  0.6847  0.5067 -0.6657
   16SAPS   H9X 2099  -0.158   1.845   7.739 -0.3238  2.1575  3.5298
   16SAPS   H9Y 2100  -0.041   1.991   7.758  1.0477  0.8712 -3.3814
   16SAPS  C310 2101   0.010   1.794   7.855 -0.5557 -0.8101 -1.0161
   16SAPS  H10X 2102   0.109   1.834   7.884 -0.4076 -0.5977 -1.7945
   16SAPS  H10Y 2103   0.025   1.690   7.818 -0.4442 -1.2702  0.2667
   16SAPS  C311 2104  -0.064   1.813   7.988 -0.4873 -0.0820 -0.4710
   16SAPS  H11X 2105  -0.163   1.763   7.986 -0.3195 -0.4210 -0.3464
   16SAPS  H11Y 2106  -0.088   1.920   8.008  1.6563  0.1906  1.0127
   16SAPS  C312 2107   0.024   1.762   8.103  0.8260 -0.3633 -0.1626
   16SAPS  H12X 2108   0.096   1.840   8.135  0.2215 -0.1793  0.7830
   16SAPS  H12Y 2109   0.082   1.675   8.064  0.2847 -0.3141 -1.0974
   16SAPS  C313 2110  -0.047   1.704   8.229 -0.1511  0.5932  0.1424
   16SAPS  H13X 2111  -0.133   1.641   8.198 -0.4565  1.4917 -0.9262
   16SAPS  H13Y 2112  -0.101   1.786   8.281 -0.5646 -0.0130  0.6762
   16SAPS  C314 2113   0.047   1.634   8.326 -0.1901  0.1358  0.4983
   16SAPS  H14X 2114   0.142   1.691   8.316 -0.1686 -0.3032 -4.3285
   16SAPS  H14Y 2115   0.072   1.537   8.279  0.4796  0.5351  0.0045
   16SAPS  C315 2116  -0.016   1.634   8.463 -0.2280  0.2998 -0.9075
   16SAPS  H15X 2117  -0.114   1.583   8.461 -0.2312  0.2991 -0.7183
   16SAPS  H15Y 2118  -0.023   1.739   8.499  3.9498  0.3095  0.5055
   16SAPS  C316 2119   0.076   1.553   8.558  0.3520 -0.8413  0.6290
   16SAPS  H16X 2120   0.093   1.447   8.528 -0.3302 -0.2089 -2.3897
   16SAPS  H16Y 2121   0.020   1.553   8.654 -2.5757  2.3300 -0.8701
   16SAPS  C317 2122   0.213   1.619   8.562 -0.0401 -0.1437 -0.4922
   16SAPS  H17X 2123   0.195   1.728   8.576 -0.2291 -0.0851 -1.1730
   16SAPS  H17Y 2124   0.268   1.617   8.466  0.9682 -0.5392  0.0817
   16SAPS  C318 2125   0.292   1.563   8.680  0.1095  0.9605  0.2832
   16SAPS  H18X 2126   0.223   1.535   8.763 -1.4919  1.4982 -0.8333
   16SAPS  H18Y 2127   0.367   1.637   8.715  0.6720  0.7563 -0.4679
   16SAPS  H18Z 2128   0.341   1.469   8.648 -3.1261 -0.2717 -1.5194
   17SAPC     N 2129   4.632   0.188  10.872 -0.4621  0.2874 -0.3841
   17SAPC   C12 2130   4.693   0.070  10.802  0.0869 -0.5744  0.2397
   17SAPC  H12A 2131   4.618  -0.008  10.803  1.3238 -1.7922  0.8945
   17SAPC  H12B 2132   4.770   0.025  10.863  1.7356  0.9438 -0.6412
   17SAPC   C13 2133   4.582   0.144  11.012 -0.9260 -0.1405 -0.1396
   17SAPC  H13A 2134   4.531   0.223  11.065 -0.4538  0.5438 -0.6887
   17SAPC  H13B 2135   4.512   0.062  11.003 -0.5591 -0.4923  0.1877
   17SAPC  H13C 2136   4.658   0.091  11.067 -0.4426  0.7201  0.0292
   17SAPC   C14 2137   4.731   0.302  10.881  1.1351  0.2140 -0.1237
   17SAPC  H14A 2138   4.690   0.377  10.948 -0.1276 -0.4708 -0.1053
   17SAPC  H14B 2139   4.821   0.268  10.930  1.1731 -1.0297 -1.0415
   17SAPC  H14C 2140   4.751   0.346  10.785 -0.5865  1.4627  0.0231
   17SAPC   C15 2141   4.513   0.235  10.799 -0.2660 -0.0170  0.2728
   17SAPC  H15A 2142   4.543   0.251  10.697  1.1272  1.2426  0.8514
   17SAPC  H15B 2143   4.432   0.164  10.804  0.0869 -0.4823 -0.4442
   17SAPC  H15C 2144   4.467   0.328  10.830 -2.9376 -1.5639  1.2583
   17SAPC   C11 2145   4.747   0.090  10.655 -0.4793  0.0192 -0.3639
   17SAPC  H11A 2146   4.829   0.017  10.634 -0.5097 -0.0768 -0.1429
   17SAPC  H11B 2147   4.791   0.192  10.646  1.4437 -0.7522 -0.2889
   17SAPC     P 2148   4.572  -0.045  10.527  0.3110  0.1806  0.0713
   17SAPC   O13 2149   4.509  -0.102  10.648 -0.5740 -0.4198 -0.0188
   17SAPC   O14 2150   4.475  -0.023  10.420  0.3370 -0.1581  0.2373
   17SAPC   O12 2151   4.644   0.093  10.559  0.3802  0.7554 -0.2440
   17SAPC   O11 2152   4.697  -0.130  10.479  0.8084  0.2372  0.3200
   17SAPC    C1 2153   4.810  -0.091  10.403  0.0346  0.0653  0.4827
   17SAPC    HA 2154   4.822   0.019  10.411 -0.3444 -0.0071  2.2803
   17SAPC    HB 2155   4.909  -0.128  10.440  0.4445  1.0927  0.4557
   17SAPC    C2 2156   4.790  -0.117  10.254 -0.1635 -0.6159  0.3594
   17SAPC    HS 2157   4.705  -0.051  10.227 -0.1572 -0.4980  0.6236
   17SAPC   O21 2158   4.771  -0.259  10.232  0.8398  0.2710 -0.1535
   17SAPC   C21 2159   4.694  -0.284  10.136 -0.0054  0.6371  0.4260
   17SAPC   O22 2160   4.623  -0.202  10.081  0.3915  0.1599 -0.1667
   17SAPC   C22 2161   4.711  -0.435  10.087 -0.5972  0.6241 -0.8601
   17SAPC   H2R 2162   4.813  -0.454  10.048 -1.2085 -0.1211 -2.1624
   17SAPC   H2S 2163   4.709  -0.489  10.185  1.6241  1.1521 -0.4614
   17SAPC    C3 2164   4.918  -0.069  10.178 -0.3838 -0.3232  0.2680
   17SAPC    HX 2165   5.011  -0.115  10.217  2.5129  3.9051 -0.9546
   17SAPC    HY 2166   4.927   0.036  10.213  0.7482 -0.8484  1.6407
   17SAPC   O31 2167   4.894  -0.076  10.037 -0.1977 -0.2976  0.0133
   17SAPC   C31 2168   4.836   0.022   9.982  0.2873  0.2026 -0.0741
   17SAPC   O32 2169   4.803   0.127  10.031 -0.2968 -0.1188 -0.5451
   17SAPC   C32 2170   4.804  -0.021   9.834 -0.3665 -0.9736 -0.0776
   17SAPC   H2X 2171   4.694  -0.037   9.827 -0.4869  0.2803 -1.9609
   17SAPC   H2Y 2172   4.844  -0.123   9.816 -0.5695 -0.8891 -1.0627
   17SAPC   C23 2173   4.609  -0.487   9.985 -0.5442  0.1373 -0.0034
   17SAPC   H3R 2174   4.504  -0.463  10.012 -1.4348 -0.4954 -2.6660
   17SAPC   H3S 2175   4.616  -0.597   9.971  0.8002  0.5132 -2.9790
   17SAPC   C24 2176   4.626  -0.421   9.845 -0.3271  0.0957 -0.2899
   17SAPC   H4R 2177   4.588  -0.318   9.859  1.6396  0.6252  1.5750
   17SAPC   H4S 2178   4.542  -0.475   9.796 -0.5908 -0.2799  0.5483
   17SAPC   C25 2179   4.758  -0.417   9.762  0.6468 -0.0575  0.4173
   17SAPC   H5R 2180   4.852  -0.441   9.814  0.6367  0.8528  0.8733
   17SAPC   C26 2181   4.766  -0.395   9.624  0.3143  0.1192 -1.0357
   17SAPC   H6R 2182   4.869  -0.381   9.586  1.3032 -0.0824  1.4224
   17SAPC   C27 2183   4.654  -0.361   9.528  0.4618  0.4505 -0.0414
   17SAPC   H7R 2184   4.672  -0.268   9.470  0.7040  0.7258  0.4748
   17SAPC   H7S 2185   4.562  -0.337   9.585 -0.7653  2.6091 -2.6874
   17SAPC   C28 2186   4.638  -0.475   9.431 -0.1675  0.1015  0.3116
   17SAPC   H8R 2187   4.595  -0.562   9.482 -0.6628  0.2627  0.1778
   17SAPC   C29 2188   4.640  -0.469   9.292 -0.3677 -1.1185  0.1602
   17SAPC   H9R 2189   4.636  -0.557   9.225  0.8627 -1.4556  0.5137
   17SAPC  C210 2190   4.671  -0.352   9.209 -0.5718  0.0393  0.2736
   17SAPC  H10R 2191   4.682  -0.389   9.105 -0.0761  0.5257  0.1491
   17SAPC  H10S 2192   4.771  -0.317   9.242  0.8968 -2.5266 -1.0996
   17SAPC  C211 2193   4.572  -0.239   9.219  0.5515  0.2201  0.7043
   17SAPC  H11R 2194   4.523  -0.232   9.318 -0.9012  0.4318 -0.0069
   17SAPC  C212 2195   4.513  -0.160   9.123 -0.4015  0.0559  0.1868
   17SAPC  H12R 2196   4.430  -0.094   9.152 -0.1996  0.5949 -0.4385
   17SAPC  C213 2197   4.554  -0.159   8.978  0.2646  0.3724 -0.2353
   17SAPC  H13R 2198   4.473  -0.126   8.909  0.1711 -0.3135 -0.4576
   17SAPC  H13S 2199   4.576  -0.261   8.941  1.8957  1.4777 -2.5123
   17SAPC  C214 2200   4.674  -0.069   8.966  0.3745 -0.0056 -0.7859
   17SAPC  H14R 2201   4.683  -0.009   9.057 -1.3401 -1.4906  0.4399
   17SAPC  C215 2202   4.766  -0.067   8.868 -0.9318  0.6149  0.4749
   17SAPC  H15R 2203   4.847   0.006   8.878 -1.5448  1.4005 -0.0951
   17SAPC  C216 2204   4.770  -0.158   8.746 -0.0301 -0.4862  0.9837
   17SAPC  H16R 2205   4.747  -0.262   8.776 -1.2305 -0.4628  0.1781
   17SAPC  H16S 2206   4.867  -0.153   8.691  0.1066  1.6896  1.3267
   17SAPC  C217 2207   4.661  -0.120   8.643 -0.0503 -0.5151 -0.8501
   17SAPC  H17R 2208   4.690  -0.025   8.595 -1.1628  0.2279 -0.0962
   17SAPC  H17S 2209   4.561  -0.095   8.685  0.4503  0.6440 -0.3300
   17SAPC  C218 2210   4.641  -0.229   8.535 -0.0137 -0.2204  0.4866
   17SAPC  H18R 2211   4.568  -0.307   8.565  0.3229 -0.0500  1.8116
   17SAPC  H18S 2212   4.742  -0.274   8.529 -0.5084 -1.2951  0.0595
   17SAPC  C219 2213   4.617  -0.177   8.393 -0.2537 -0.3603  0.3879
   17SAPC  H19R 2214   4.611  -0.260   8.319 -2.7411  0.0184  0.0630
   17SAPC  H19S 2215   4.701  -0.108   8.370 -1.1846 -0.0611 -2.5683
   17SAPC  C220 2216   4.491  -0.085   8.384  0.4400  0.5583 -0.6791
   17SAPC  H20R 2217   4.513   0.016   8.424  1.6936 -0.4935  1.4623
   17SAPC  H20S 2218   4.406  -0.124   8.445  0.6219  2.0311  0.5730
   17SAPC  H20T 2219   4.464  -0.074   8.277  0.6544  1.4723 -0.6450
   17SAPC   C33 2220   4.854   0.089   9.731 -0.0256  1.0253 -0.9552
   17SAPC   H3X 2221   4.954   0.129   9.755 -0.6464  2.5830 -0.8416
   17SAPC   H3Y 2222   4.796   0.182   9.748  0.9154  1.6151 -0.9146
   17SAPC   C34 2223   4.837   0.043   9.585  0.0661 -0.5099 -0.5736
   17SAPC   H4X 2224   4.735   0.009   9.559 -0.4703  2.3260 -2.5460
   17SAPC   H4Y 2225   4.908  -0.041   9.564  1.4722  0.4802  0.0357
   17SAPC   C35 2226   4.894   0.149   9.491 -0.1814 -0.0191 -0.4098
   17SAPC   H5X 2227   5.002   0.160   9.513 -0.3890  0.0687  0.6153
   17SAPC   H5Y 2228   4.843   0.244   9.515  2.0272  0.5511  2.5451
   17SAPC   C36 2229   4.882   0.121   9.338  0.5270  0.7003  0.0663
   17SAPC   H6X 2230   4.773   0.122   9.316  0.0591  0.6298  2.2373
   17SAPC   H6Y 2231   4.913   0.018   9.310  0.1118  0.8577 -1.0620
   17SAPC   C37 2232   4.942   0.230   9.251 -0.2943 -0.3393  0.1725
   17SAPC   H7X 2233   5.049   0.243   9.275 -0.2272 -1.9664  0.9095
   17SAPC   H7Y 2234   4.888   0.322   9.281 -1.4509 -1.1242  0.5892
   17SAPC   C38 2235   4.923   0.197   9.100 -0.0233 -0.5015  0.1703
   17SAPC   H8X 2236   4.816   0.188   9.070  0.6033 -0.3348 -2.3603
   17SAPC   H8Y 2237   4.969   0.098   9.081  0.0052 -0.6662  1.0579
   17SAPC   C39 2238   4.980   0.306   9.011  0.3857 -0.3717  1.2161
   17SAPC   H9X 2239   5.082   0.344   9.030 -0.4308  2.5394  0.3056
   17SAPC   H9Y 2240   4.913   0.391   9.038 -0.1074 -1.1234  2.4703
   17SAPC  C310 2241   4.951   0.278   8.862  0.4777 -0.2624  0.1486
   17SAPC  H10X 2242   4.844   0.250   8.850  0.0313  2.0139 -2.1626
   17SAPC  H10Y 2243   5.016   0.194   8.828  1.9226  0.9415 -0.1564
   17SAPC  C311 2244   4.984   0.396   8.762 -0.0778 -0.6253  0.2916
   17SAPC  H11X 2245   5.092   0.421   8.771 -0.3362  0.2988  1.0801
   17SAPC  H11Y 2246   4.922   0.481   8.800 -0.1012 -0.8170  0.6855
   17SAPC  C312 2247   4.955   0.374   8.609 -0.3784 -0.0103  0.1772
   17SAPC  H12X 2248   4.845   0.360   8.599 -0.3584 -1.2951  1.4303
   17SAPC  H12Y 2249   5.007   0.286   8.566 -1.6158 -2.1625  2.7967
   17SAPC  C313 2250   4.988   0.509   8.537  0.3787  0.5909  0.1078
   17SAPC  H13X 2251   5.092   0.542   8.557  1.1028 -0.5573 -1.5502
   17SAPC  H13Y 2252   4.923   0.591   8.576 -0.2871 -0.1942  0.6718
   17SAPC  C314 2253   4.962   0.492   8.389 -0.0209 -0.5137  1.0726
   17SAPC  H14X 2254   4.855   0.517   8.374  0.0927 -0.1385  0.8600
   17SAPC  H14Y 2255   4.977   0.384   8.367  2.5857 -0.0043 -0.0141
   17SAPC  C315 2256   5.051   0.565   8.282  0.0811  0.3351 -0.7285
   17SAPC  H15X 2257   5.158   0.537   8.294 -0.4542 -0.8198  1.9371
   17SAPC  H15Y 2258   5.053   0.676   8.288 -3.2207  0.3956  2.2926
   17SAPC  C316 2259   5.001   0.534   8.139 -0.0104  0.2428  0.4449
   17SAPC  H16X 2260   5.026   0.612   8.064  0.8822 -0.9753 -0.5765
   17SAPC  H16Y 2261   4.890   0.543   8.145 -0.1501  0.3215 -1.4794
   17SAPC  C317 2262   5.054   0.404   8.079  0.7794  0.2390 -0.1404
   17SAPC  H17X 2263   5.011   0.326   8.146 -1.0254  0.2874 -1.1657
   17SAPC  H17Y 2264   5.165   0.406   8.072  0.7861  0.5698  0.0809
   17SAPC  C318 2265   5.001   0.391   7.937 -0.4144 -0.3372 -0.4598
   17SAPC  H18X 2266   5.034   0.303   7.879  0.6031 -1.3369  1.5143
   17SAPC  H18Y 2267   4.891   0.388   7.953 -0.3882  1.8617  0.5432
   17SAPC  H18Z 2268   5.033   0.480   7.878  0.4132 -1.3254 -1.5389
   18SAPC     N 2269   4.314   6.303  10.677  0.2261  1.5025 -0.1488
   18SAPC   C12 2270   4.347   6.151  10.647  0.0367 -0.2921 -0.0087
   18SAPC  H12A 2271   4.356   6.143  10.540  0.4877 -0.4142  0.0365
   18SAPC  H12B 2272   4.263   6.092  10.680 -0.4438 -0.0781 -0.8089
   18SAPC   C13 2273   4.416   6.389  10.617 -0.5667 -0.2166  0.0560
   18SAPC  H13A 2274   4.516   6.355  10.640 -0.4899 -1.2169 -1.6012
   18SAPC  H13B 2275   4.404   6.382  10.510 -0.6364 -0.3939  0.0762
   18SAPC  H13C 2276   4.399   6.492  10.646  0.8646  0.1074 -0.1410
   18SAPC   C14 2277   4.176   6.337  10.619  0.5491 -0.0987  0.4864
   18SAPC  H14A 2278   4.103   6.276  10.669  0.2107  0.6268  0.8951
   18SAPC  H14B 2279   4.147   6.440  10.630  0.5972  0.2861 -2.1768
   18SAPC  H14C 2280   4.181   6.297  10.518 -1.5642 -0.4322  0.4755
   18SAPC   C15 2281   4.312   6.319  10.818  0.0258 -0.3511 -0.3228
   18SAPC  H15A 2282   4.410   6.305  10.861 -0.2200 -1.7565 -0.1408
   18SAPC  H15B 2283   4.274   6.416  10.845 -0.8321 -0.2898 -1.6241
   18SAPC  H15C 2284   4.238   6.249  10.856  0.2766 -0.4483 -0.0069
   18SAPC   C11 2285   4.478   6.093  10.699 -0.3961  0.2517 -0.2920
   18SAPC  H11A 2286   4.483   6.104  10.809 -0.7264  1.2553 -0.3669
   18SAPC  H11B 2287   4.552   6.148  10.638  1.3034 -0.3916  1.1220
   18SAPC     P 2288   4.599   5.851  10.689  0.2078  0.1903 -0.0491
   18SAPC   O13 2289   4.700   5.902  10.782 -0.3907 -0.2585  0.1413
   18SAPC   O14 2290   4.539   5.718  10.731  0.1427 -0.5302  0.1461
   18SAPC   O12 2291   4.475   5.954  10.672 -0.1319  0.1427 -0.7195
   18SAPC   O11 2292   4.651   5.836  10.540  0.1131 -0.6452 -0.2526
   18SAPC    C1 2293   4.733   5.936  10.477 -1.0346 -0.0107 -0.0640
   18SAPC    HA 2294   4.693   6.039  10.488 -1.6123  0.1385 -2.6897
   18SAPC    HB 2295   4.838   5.938  10.513 -0.7809 -0.8003 -0.7140
   18SAPC    C2 2296   4.735   5.918  10.320 -0.2380 -0.7363  0.1786
   18SAPC    HS 2297   4.758   6.017  10.273 -1.8454  0.2402  1.3461
   18SAPC   O21 2298   4.616   5.872  10.271 -0.3327 -0.3370 -0.1575
   18SAPC   C21 2299   4.510   5.950  10.259 -0.8296  0.6977 -0.0395
   18SAPC   O22 2300   4.491   6.063  10.305  0.1546 -0.3513 -0.0319
   18SAPC   C22 2301   4.417   5.865  10.172  0.4133  1.2468  0.7927
   18SAPC   H2R 2302   4.473   5.814  10.090 -2.1286  0.1591 -0.3656
   18SAPC   H2S 2303   4.365   5.795  10.242  0.3336  2.4745  2.0024
   18SAPC    C3 2304   4.836   5.808  10.274  0.0390 -0.1151  0.0793
   18SAPC    HX 2305   4.818   5.715  10.331 -0.3369  0.5745  1.1231
   18SAPC    HY 2306   4.939   5.836  10.303  0.1499  0.6422 -0.9618
   18SAPC   O31 2307   4.838   5.782  10.133  0.1149  0.3862 -0.0397
   18SAPC   C31 2308   4.891   5.876  10.061 -0.1525  0.3229  0.4655
   18SAPC   O32 2309   4.901   5.991  10.086  0.1216 -0.7543 -0.1515
   18SAPC   C32 2310   4.914   5.809   9.921  0.2976  0.2766  0.0792
   18SAPC   H2X 2311   4.958   5.709   9.938 -1.1071  0.0409  2.9756
   18SAPC   H2Y 2312   5.002   5.865   9.883  1.6555 -0.9883  1.2257
   18SAPC   C23 2313   4.304   5.946  10.103  0.6069  0.0129 -0.0405
   18SAPC   H3R 2314   4.264   6.025  10.171 -2.2143 -1.7604  0.5048
   18SAPC   H3S 2315   4.218   5.878  10.087 -0.7840  0.7293  3.3942
   18SAPC   C24 2316   4.358   6.004   9.973 -0.3832  0.1428 -0.4113
   18SAPC   H4R 2317   4.384   5.925   9.899 -0.2016 -1.2905  1.1210
   18SAPC   H4S 2318   4.443   6.072   9.996 -2.6289  2.7182  0.7104
   18SAPC   C25 2319   4.251   6.088   9.913 -0.0688 -0.4378  0.4933
   18SAPC   H5R 2320   4.217   6.160   9.989  0.3971 -0.1631  0.4464
   18SAPC   C26 2321   4.200   6.084   9.790  0.7288  0.3792  0.2814
   18SAPC   H6R 2322   4.122   6.158   9.770  1.7958  1.7467  0.9315
   18SAPC   C27 2323   4.235   5.987   9.681 -0.1278 -0.2725 -0.2812
   18SAPC   H7R 2324   4.146   5.956   9.621 -0.0765 -1.6265  0.3055
   18SAPC   H7S 2325   4.276   5.893   9.723 -1.0550 -1.0721 -1.0930
   18SAPC   C28 2326   4.338   6.047   9.584 -0.0953  0.0671 -0.3725
   18SAPC   H8R 2327   4.417   6.102   9.637 -0.1846  0.4599 -0.6385
   18SAPC   C29 2328   4.329   6.050   9.453 -0.2215  0.2486 -0.0966
   18SAPC   H9R 2329   4.408   6.109   9.404  1.5981 -0.8627  1.3872
   18SAPC  C210 2330   4.215   5.993   9.369  0.1777 -0.0298  0.2476
   18SAPC  H10R 2331   4.148   6.080   9.349  2.2779  1.9153  1.2588
   18SAPC  H10S 2332   4.154   5.918   9.423 -1.6102  0.8907 -0.4006
   18SAPC  C211 2333   4.266   5.938   9.239 -0.2292 -0.3777  0.3385
   18SAPC  H11R 2334   4.369   5.900   9.243 -0.8258 -1.9753  1.8764
   18SAPC  C212 2335   4.201   5.905   9.128 -0.1002 -0.2572  0.8152
   18SAPC  H12R 2336   4.262   5.879   9.040 -2.6250  0.1871 -1.2110
   18SAPC  C213 2337   4.057   5.912   9.090  0.3201  1.1627 -0.1806
   18SAPC  H13R 2338   4.010   5.838   9.158  1.4015  0.8529  0.2550
   18SAPC  H13S 2339   4.049   5.868   8.988  1.1812  0.8319 -0.1172
   18SAPC  C214 2340   3.984   6.045   9.104 -0.2548  0.3813  0.5462
   18SAPC  H14R 2341   4.014   6.103   9.192  2.2889  2.9906 -1.8113
   18SAPC  C215 2342   3.903   6.111   9.015 -0.2596 -0.1124 -0.2591
   18SAPC  H15R 2343   3.852   6.200   9.054 -1.8273 -0.6418 -1.0125
   18SAPC  C216 2344   3.856   6.078   8.881 -0.2363  0.1205  0.2342
   18SAPC  H16R 2345   3.943   6.036   8.827 -0.2067 -0.3513  0.6378
   18SAPC  H16S 2346   3.833   6.169   8.821  1.0226 -0.1909 -0.7651
   18SAPC  C217 2347   3.749   5.969   8.878  0.4010 -0.3651 -0.1887
   18SAPC  H17R 2348   3.654   6.014   8.912 -0.6582 -2.4498 -0.2108
   18SAPC  H17S 2349   3.775   5.893   8.955 -0.6892 -0.2870  0.2716
   18SAPC  C218 2350   3.741   5.905   8.736  0.7721 -0.7310  0.4399
   18SAPC  H18R 2351   3.837   5.851   8.717 -0.7832 -2.4549 -4.0864
   18SAPC  H18S 2352   3.738   5.971   8.646  1.2274  0.5756  1.3581
   18SAPC  C219 2353   3.622   5.798   8.732  0.2012  0.0113 -0.3980
   18SAPC  H19R 2354   3.561   5.822   8.643  0.9980  1.1690 -0.6515
   18SAPC  H19S 2355   3.554   5.823   8.816 -0.0998  2.7242 -1.3546
   18SAPC  C220 2356   3.661   5.656   8.747 -0.2203 -0.3918 -0.5001
   18SAPC  H20R 2357   3.735   5.643   8.665  1.4424  2.7584  0.2998
   18SAPC  H20S 2358   3.581   5.582   8.732  2.0972 -2.9249 -1.1877
   18SAPC  H20T 2359   3.705   5.641   8.848 -1.5482 -3.2023 -0.2561
   18SAPC   C33 2360   4.798   5.827   9.827 -0.5519 -0.5612 -0.3656
   18SAPC   H3X 2361   4.769   5.932   9.809  0.2490 -0.6447 -2.3689
   18SAPC   H3Y 2362   4.706   5.775   9.863 -0.1396  0.9879  3.2966
   18SAPC   C34 2363   4.832   5.765   9.686 -0.0675 -0.5879  0.2338
   18SAPC   H4X 2364   4.825   5.655   9.692  1.1136 -0.7529 -1.0394
   18SAPC   H4Y 2365   4.939   5.786   9.666  0.1822  0.0069  1.9867
   18SAPC   C35 2366   4.745   5.825   9.571 -0.0872 -0.1175  0.3452
   18SAPC   H5X 2367   4.772   5.930   9.546  0.3392  0.0884  1.6286
   18SAPC   H5Y 2368   4.637   5.816   9.599 -0.4751  0.1550 -0.9748
   18SAPC   C36 2369   4.747   5.735   9.448  0.4594  0.0353 -0.5306
   18SAPC   H6X 2370   4.712   5.631   9.468 -0.6173  0.3251 -0.8441
   18SAPC   H6Y 2371   4.850   5.726   9.407 -0.4960  0.1208 -3.0913
   18SAPC   C37 2372   4.654   5.783   9.334 -0.1684  0.0091 -0.4927
   18SAPC   H7X 2373   4.695   5.879   9.297  1.6069 -0.5556 -0.0722
   18SAPC   H7Y 2374   4.556   5.802   9.383 -0.0375  1.6949 -0.8263
   18SAPC   C38 2375   4.642   5.683   9.222  0.1657  0.3422 -0.3526
   18SAPC   H8X 2376   4.625   5.580   9.259 -1.1889  0.3689 -0.8301
   18SAPC   H8Y 2377   4.740   5.685   9.170  1.1688 -1.4981  1.3215
   18SAPC   C39 2378   4.521   5.708   9.130 -0.3454  0.1697  0.0388
   18SAPC   H9X 2379   4.526   5.814   9.098  1.2179  0.3762  0.8302
   18SAPC   H9Y 2380   4.429   5.681   9.185  0.6820 -0.2545  1.6191
   18SAPC  C310 2381   4.524   5.622   9.008  0.2220  0.1482 -0.7786
   18SAPC  H10X 2382   4.512   5.518   9.046 -0.4420  0.3725 -0.3683
   18SAPC  H10Y 2383   4.618   5.633   8.950  2.3049 -0.4551  2.2574
   18SAPC  C311 2384   4.400   5.630   8.921 -0.3473  0.3266 -0.1638
   18SAPC  H11X 2385   4.308   5.663   8.974 -0.7460  0.4831 -0.9273
   18SAPC  H11Y 2386   4.385   5.540   8.857  1.4196  0.0982 -0.3007
   18SAPC  C312 2387   4.408   5.748   8.823 -0.3657  0.3814 -0.4234
   18SAPC  H12X 2388   4.499   5.738   8.760 -0.7147  3.7483 -1.6290
   18SAPC  H12Y 2389   4.407   5.843   8.880  3.4488  0.7332 -0.6969
   18SAPC  C313 2390   4.288   5.764   8.728 -0.5611 -0.4729 -0.5926
   18SAPC  H13X 2391   4.196   5.778   8.787 -0.7208 -1.4121 -0.6102
   18SAPC  H13Y 2392   4.285   5.673   8.664  0.3138 -0.2261 -0.9995
   18SAPC  C314 2393   4.312   5.892   8.646  0.2732 -0.1298  0.4376
   18SAPC  H14X 2394   4.414   5.895   8.603  0.8461  4.2833  1.5867
   18SAPC  H14Y 2395   4.321   5.976   8.718 -0.0988  0.9475 -0.7316
   18SAPC  C315 2396   4.194   5.911   8.552  0.0980  0.1318 -0.4291
   18SAPC  H15X 2397   4.098   5.919   8.607  1.8350 -0.5141  2.9216
   18SAPC  H15Y 2398   4.179   5.819   8.491 -1.4885 -0.0947  0.2471
   18SAPC  C316 2399   4.201   6.044   8.476  0.3269 -1.0330  0.8181
   18SAPC  H16X 2400   4.292   6.047   8.413 -0.9154 -1.5393 -1.0901
   18SAPC  H16Y 2401   4.214   6.126   8.550  2.1789 -0.7820  0.2554
   18SAPC  C317 2402   4.082   6.076   8.385  0.4726 -0.5832 -0.5640
   18SAPC  H17X 2403   4.074   6.183   8.356  0.6217 -0.3796  0.1360
   18SAPC  H17Y 2404   3.998   6.076   8.457  3.5507  0.8277  3.3740
   18SAPC  C318 2405   4.058   5.988   8.254 -0.2514  0.0787  0.0640
   18SAPC  H18X 2406   3.986   6.040   8.187 -1.0872 -1.2635 -0.1040
   18SAPC  H18Y 2407   4.019   5.887   8.281  0.1680 -0.4526 -1.2533
   18SAPC  H18Z 2408   4.152   5.982   8.195  1.3164  3.1872  1.9634
   19SAPC     N 2409   3.545   0.756  10.981 -0.2206 -0.3326 -0.0543
   19SAPC   C12 2410   3.509   0.736  10.836  0.6504 -0.2199  0.1904
   19SAPC  H12A 2411   3.461   0.826  10.801 -2.9085 -1.6998  0.8980
   19SAPC  H12B 2412   3.428   0.666  10.826 -1.7316  2.4473 -0.2386
   19SAPC   C13 2413   3.419   0.795  11.059  0.6395 -0.1613 -0.1006
   19SAPC  H13A 2414   3.443   0.826  11.160 -0.0985 -0.5954  0.2231
   19SAPC  H13B 2415   3.363   0.873  11.010  1.3257  0.7639  0.5471
   19SAPC  H13C 2416   3.352   0.711  11.071 -0.9779  1.2719  1.7747
   19SAPC   C14 2417   3.604   0.636  11.045  0.0602  0.6677 -0.2047
   19SAPC  H14A 2418   3.566   0.544  11.002  1.5638 -0.7552  1.3533
   19SAPC  H14B 2419   3.711   0.631  11.032  0.0497  2.2420 -1.0546
   19SAPC  H14C 2420   3.583   0.645  11.151 -0.9656  0.6003 -0.3919
   19SAPC   C15 2421   3.648   0.875  10.996  0.1893 -0.6977  0.5236
   19SAPC  H15A 2422   3.669   0.898  11.100  3.2863 -3.4080  0.6592
   19SAPC  H15B 2423   3.744   0.852  10.953 -0.2331 -2.3728  0.4095
   19SAPC  H15C 2424   3.602   0.962  10.951 -0.8793 -1.2112  0.5747
   19SAPC   C11 2425   3.629   0.702  10.735  0.0681  0.4845 -0.0658
   19SAPC  H11A 2426   3.702   0.784  10.748  1.2448 -0.4499 -0.5190
   19SAPC  H11B 2427   3.586   0.712  10.633 -2.3829  0.9553  0.9434
   19SAPC     P 2428   3.606   0.435  10.725  0.1354  0.1196  0.2444
   19SAPC   O13 2429   3.687   0.324  10.785  0.2967 -0.0902 -0.0977
   19SAPC   O14 2430   3.461   0.449  10.761 -0.3310 -0.2481  0.3920
   19SAPC   O12 2431   3.677   0.571  10.763  0.9991 -0.0179 -0.2409
   19SAPC   O11 2432   3.609   0.425  10.569 -0.2039 -0.2301 -0.1580
   19SAPC    C1 2433   3.547   0.311  10.504  0.6544 -0.3110  0.6809
   19SAPC    HA 2434   3.623   0.232  10.524  1.9530  0.7853  0.1976
   19SAPC    HB 2435   3.446   0.291  10.548 -0.8366  3.7136 -0.4775
   19SAPC    C2 2436   3.542   0.323  10.350 -0.2852  0.2735  0.2139
   19SAPC    HS 2437   3.645   0.349  10.316 -0.2281 -0.5600 -0.2778
   19SAPC   O21 2438   3.432   0.409  10.312  0.1271  0.0187 -0.1653
   19SAPC   C21 2439   3.451   0.544  10.316 -0.2548 -0.2570  0.3986
   19SAPC   O22 2440   3.559   0.599  10.330 -0.3205  0.3305  0.2196
   19SAPC   C22 2441   3.324   0.616  10.295  0.7417 -0.7599  0.5311
   19SAPC   H2R 2442   3.265   0.559  10.220  1.8162  0.3452 -1.2186
   19SAPC   H2S 2443   3.270   0.640  10.389 -1.0309 -0.2667 -0.5471
   19SAPC    C3 2444   3.518   0.173  10.291  0.5737 -0.2851 -0.7855
   19SAPC    HX 2445   3.409   0.153  10.282  1.0496 -3.8556 -0.2457
   19SAPC    HY 2446   3.557   0.109  10.373 -0.3380  1.5528  1.1852
   19SAPC   O31 2447   3.585   0.168  10.162  0.6989 -0.4677  0.6452
   19SAPC   C31 2448   3.706   0.114  10.148  0.3985 -0.3533 -0.4260
   19SAPC   O32 2449   3.779   0.076  10.239 -1.1400 -0.1611 -0.1677
   19SAPC   C32 2450   3.754   0.141  10.006  0.1253  0.3867 -0.0397
   19SAPC   H2X 2451   3.664   0.141   9.940 -0.5356  2.4575  0.7748
   19SAPC   H2Y 2452   3.823   0.056   9.991 -0.2666  0.2319 -1.0079
   19SAPC   C23 2453   3.347   0.752  10.229 -0.2985  0.2136 -0.1199
   19SAPC   H3R 2454   3.393   0.829  10.295 -1.3157  2.7198 -2.1821
   19SAPC   H3S 2455   3.248   0.800  10.212  0.5382  1.3520 -2.0980
   19SAPC   C24 2456   3.432   0.749  10.100 -0.4370 -0.3923 -0.1209
   19SAPC   H4R 2457   3.531   0.700  10.115 -0.8229 -1.1613 -0.0488
   19SAPC   H4S 2458   3.458   0.853  10.068 -0.6432  0.6844  2.8376
   19SAPC   C25 2459   3.347   0.696   9.981  0.4812 -0.5034  0.2914
   19SAPC   H5R 2460   3.259   0.759   9.963  1.3168  0.9098  1.0198
   19SAPC   C26 2461   3.371   0.593   9.900  0.1423  0.0094 -0.5434
   19SAPC   H6R 2462   3.294   0.549   9.834  3.1722 -1.2875 -3.5209
   19SAPC   C27 2463   3.497   0.510   9.890  0.6158 -0.0117 -0.3011
   19SAPC   H7R 2464   3.540   0.498   9.992 -2.9072 -1.8395  1.1301
   19SAPC   H7S 2465   3.568   0.569   9.828  1.3960  1.7533  2.1054
   19SAPC   C28 2466   3.471   0.371   9.842 -0.0002 -0.5189 -0.1227
   19SAPC   H8R 2467   3.418   0.314   9.920 -0.9342  0.6094  0.0957
   19SAPC   C29 2468   3.492   0.322   9.724  0.0994 -0.5312  0.5495
   19SAPC   H9R 2469   3.482   0.215   9.703 -0.7233 -0.3331 -0.1461
   19SAPC  C210 2470   3.556   0.395   9.612 -0.2418 -0.2118  0.1351
   19SAPC  H10R 2471   3.613   0.319   9.554 -0.5512 -1.0630  0.9212
   19SAPC  H10S 2472   3.629   0.465   9.657 -0.5250 -0.1641  0.5313
   19SAPC  C211 2473   3.468   0.479   9.523  0.9169  0.5005 -0.4272
   19SAPC  H11R 2474   3.377   0.524   9.564  0.7373 -0.8249  0.7040
   19SAPC  C212 2475   3.490   0.520   9.397 -0.2002  0.0131 -0.6024
   19SAPC  H12R 2476   3.414   0.591   9.362  0.2086  0.9488  0.3386
   19SAPC  C213 2477   3.614   0.499   9.313 -0.4727  0.0293  0.3143
   19SAPC  H13R 2478   3.706   0.484   9.372  0.4046  0.3485 -0.9288
   19SAPC  H13S 2479   3.632   0.596   9.262 -0.9065  0.6357  1.2904
   19SAPC  C214 2480   3.607   0.381   9.220 -0.2200 -0.2610 -0.5339
   19SAPC  H14R 2481   3.611   0.286   9.275  0.3987 -1.0367 -1.8688
   19SAPC  C215 2482   3.586   0.383   9.085  0.4308 -0.6643  0.2281
   19SAPC  H15R 2483   3.569   0.291   9.027 -2.0969  0.2932 -0.6735
   19SAPC  C216 2484   3.575   0.503   9.000  0.1056  0.0762 -0.0118
   19SAPC  H16R 2485   3.643   0.483   8.914  0.1226 -0.6978  0.1730
   19SAPC  H16S 2486   3.601   0.595   9.057  0.5692 -0.8543  1.3216
   19SAPC  C217 2487   3.430   0.542   8.950 -0.5771  0.2206 -0.4387
   19SAPC  H17R 2488   3.379   0.549   9.048  3.3949 -0.8447  1.9649
   19SAPC  H17S 2489   3.399   0.450   8.896 -2.3936  0.4964  0.0851
   19SAPC  C218 2490   3.433   0.671   8.869  0.4135 -0.1742 -0.0929
   19SAPC  H18R 2491   3.485   0.749   8.929  1.0629 -0.0950 -0.7360
   19SAPC  H18S 2492   3.332   0.703   8.838  0.0052 -1.3403 -0.0001
   19SAPC  C219 2493   3.512   0.661   8.735 -0.3625 -0.8547 -1.0893
   19SAPC  H19R 2494   3.458   0.592   8.666 -0.3765 -0.7195 -1.2157
   19SAPC  H19S 2495   3.614   0.619   8.749  0.8118  1.7192 -1.3203
   19SAPC  C220 2496   3.520   0.799   8.672  0.0463  0.1781  0.0170
   19SAPC  H20R 2497   3.573   0.797   8.574  1.9671  3.1913  0.8640
   19SAPC  H20S 2498   3.575   0.872   8.734 -0.1212 -0.5292  1.0125
   19SAPC  H20T 2499   3.418   0.836   8.648  0.5394  1.5888 -0.0042
   19SAPC   C33 2500   3.841   0.265  10.002 -0.3871  0.1628  0.5362
   19SAPC   H3X 2501   3.903   0.278  10.093 -0.5530  0.1214  0.6555
   19SAPC   H3Y 2502   3.770   0.350   9.994 -0.0795  0.6440  2.5941
   19SAPC   C34 2503   3.944   0.263   9.886 -0.5484  0.3425  0.2898
   19SAPC   H4X 2504   3.997   0.166   9.894 -1.0332  0.0558  0.0822
   19SAPC   H4Y 2505   4.004   0.353   9.910 -1.3519  0.9476  0.0949
   19SAPC   C35 2506   3.869   0.273   9.752 -0.0047  0.0590  0.5859
   19SAPC   H5X 2507   3.809   0.366   9.741  1.3942  0.6631 -6.1341
   19SAPC   H5Y 2508   3.805   0.182   9.749 -0.2849  0.2484  0.7109
   19SAPC   C36 2509   3.971   0.277   9.631  0.6608  0.4013  0.2784
   19SAPC   H6X 2510   4.031   0.184   9.634 -0.5759 -0.3955  1.8618
   19SAPC   H6Y 2511   4.041   0.363   9.644 -0.9095  2.1750 -2.0643
   19SAPC   C37 2512   3.898   0.288   9.493 -0.3247 -0.8228 -0.1844
   19SAPC   H7X 2513   3.847   0.385   9.473  1.4010  0.5643  1.7352
   19SAPC   H7Y 2514   3.815   0.214   9.499 -1.6281  0.4803 -1.3262
   19SAPC   C38 2515   3.993   0.265   9.380 -0.4131  0.0242 -0.4140
   19SAPC   H8X 2516   4.043   0.166   9.381  0.3977  0.3907 -1.8083
   19SAPC   H8Y 2517   4.070   0.345   9.383  0.3185 -0.6768 -0.1204
   19SAPC   C39 2518   3.916   0.270   9.245  0.3682  0.2812 -0.4648
   19SAPC   H9X 2519   3.859   0.366   9.247 -0.5034 -0.1556 -2.1347
   19SAPC   H9Y 2520   3.855   0.177   9.245 -0.1043  0.4592  3.0127
   19SAPC  C310 2521   3.995   0.284   9.119 -0.3854  0.2500 -0.2987
   19SAPC  H10X 2522   4.071   0.204   9.133 -2.5087 -1.6039  1.4190
   19SAPC  H10Y 2523   4.051   0.379   9.132  1.0220 -0.7386  1.3806
   19SAPC  C311 2524   3.926   0.292   8.988  0.4374 -0.1218  0.0707
   19SAPC  H11X 2525   3.864   0.384   8.979  1.9981  0.8712 -0.9604
   19SAPC  H11Y 2526   3.865   0.201   8.972  2.3427 -1.1229 -2.0952
   19SAPC  C312 2527   4.032   0.298   8.869  0.2888  0.3945  0.3358
   19SAPC  H12X 2528   4.106   0.216   8.883  1.2205  1.1652  0.0549
   19SAPC  H12Y 2529   4.091   0.393   8.873 -0.1013  0.8261 -2.2905
   19SAPC  C313 2530   3.975   0.289   8.727  0.6317  0.5609 -0.3005
   19SAPC  H13X 2531   3.893   0.363   8.725 -0.9834 -1.1444  0.1080
   19SAPC  H13Y 2532   3.909   0.199   8.722  0.8883  0.4165 -1.3342
   19SAPC  C314 2533   4.070   0.295   8.614  0.4874  0.4319  0.1582
   19SAPC  H14X 2534   4.139   0.208   8.620 -1.1575 -0.9229  0.4684
   19SAPC  H14Y 2535   4.126   0.390   8.621  0.6273  0.2611  1.9159
   19SAPC  C315 2536   4.000   0.278   8.479 -0.2877 -0.4075 -0.5906
   19SAPC  H15X 2537   3.909   0.341   8.475 -0.6517 -0.7683  1.3862
   19SAPC  H15Y 2538   3.950   0.180   8.461 -0.2460 -0.7115  0.8449
   19SAPC  C316 2539   4.081   0.323   8.362  0.7021  0.0665  0.7892
   19SAPC  H16X 2540   4.168   0.254   8.355  2.9033  2.7191 -0.3725
   19SAPC  H16Y 2541   4.127   0.421   8.387 -2.4302  1.5496  1.2031
   19SAPC  C317 2542   3.995   0.339   8.236 -0.2955  0.5013 -0.0413
   19SAPC  H17X 2543   3.905   0.403   8.250 -0.0217  0.5712  1.6820
   19SAPC  H17Y 2544   3.973   0.232   8.218  3.0999 -0.3235  0.0261
   19SAPC  C318 2545   4.080   0.387   8.116  0.4804 -0.0302 -0.4673
   19SAPC  H18X 2546   4.027   0.355   8.023  0.3417  0.3656 -0.5248
   19SAPC  H18Y 2547   4.185   0.351   8.119  0.4067 -0.2843 -0.8232
   19SAPC  H18Z 2548   4.076   0.497   8.129 -0.3165  0.0235 -1.0747
   20SAPC     N 2549   4.412   4.974  11.038  0.2876 -0.2676  0.2290
   20SAPC   C12 2550   4.355   4.847  11.102 -0.6462  0.0190 -0.4513
   20SAPC  H12A 2551   4.266   4.868  11.159 -0.2321  0.1131  0.1663
   20SAPC  H12B 2552   4.429   4.809  11.171 -0.6784  1.7754  0.6126
   20SAPC   C13 2553   4.297   5.060  10.984  0.2152  0.2989 -0.2498
   20SAPC  H13A 2554   4.260   5.008  10.897  2.0454  1.4403 -1.7817
   20SAPC  H13B 2555   4.217   5.072  11.055  0.0002  1.6302 -0.6850
   20SAPC  H13C 2556   4.332   5.153  10.941  1.3675 -0.8640 -1.9617
   20SAPC   C14 2557   4.490   5.056  11.133 -0.4383  0.7822 -0.1028
   20SAPC  H14A 2558   4.555   5.001  11.200 -3.2076 -3.0499 -0.2807
   20SAPC  H14B 2559   4.558   5.120  11.079  0.3512  1.0448  1.1513
   20SAPC  H14C 2560   4.427   5.121  11.191  0.6635  0.3714  1.6547
   20SAPC   C15 2561   4.501   4.931  10.918 -0.3438 -0.2940  0.2170
   20SAPC  H15A 2562   4.531   5.017  10.860  0.3642 -1.5850 -1.4136
   20SAPC  H15B 2563   4.584   4.881  10.965 -1.5521 -1.0155  1.6381
   20SAPC  H15C 2564   4.448   4.870  10.847  0.4968  1.9355 -2.5330
   20SAPC   C11 2565   4.315   4.735  11.000 -0.2216 -0.2647 -0.0395
   20SAPC  H11A 2566   4.281   4.649  11.061 -0.8668  0.1431  0.1891
   20SAPC  H11B 2567   4.401   4.699  10.939  0.1237  0.0348  0.2647
   20SAPC     P 2568   4.067   4.713  10.893 -0.2165 -0.0129  0.1554
   20SAPC   O13 2569   3.994   4.741  11.018  0.4077 -0.0264 -0.2898
   20SAPC   O14 2570   4.010   4.755  10.767 -0.2782 -0.2099  0.4931
   20SAPC   O12 2571   4.215   4.776  10.908  1.1089  0.5641 -0.0158
   20SAPC   O11 2572   4.092   4.555  10.893 -0.0358  0.6323 -0.1601
   20SAPC    C1 2573   4.186   4.488  10.805  0.6002  0.4900 -0.0231
   20SAPC    HA 2574   4.287   4.498  10.849  0.0330 -1.2956  1.8033
   20SAPC    HB 2575   4.173   4.378  10.816  0.9770  0.5016  0.5363
   20SAPC    C2 2576   4.168   4.513  10.654 -0.4075  0.4631  0.2086
   20SAPC    HS 2577   4.192   4.618  10.631  2.2800 -0.2951 -0.7230
   20SAPC   O21 2578   4.044   4.464  10.603 -0.4649 -0.1628 -0.4454
   20SAPC   C21 2579   3.989   4.540  10.516 -0.1117  0.3747 -0.1713
   20SAPC   O22 2580   4.038   4.645  10.471 -0.2114 -0.4930  0.4031
   20SAPC   C22 2581   3.861   4.471  10.479  0.2407 -0.2389  0.3009
   20SAPC   H2R 2582   3.894   4.371  10.443  1.3054 -0.9499  2.9636
   20SAPC   H2S 2583   3.806   4.448  10.573  0.8202 -1.0101  0.4652
   20SAPC    C3 2584   4.280   4.433  10.580 -0.0793  1.0693 -0.6083
   20SAPC    HX 2585   4.247   4.327  10.572  2.1971  0.0801  1.5823
   20SAPC    HY 2586   4.370   4.423  10.645 -0.9309 -1.2430  0.3178
   20SAPC   O31 2587   4.316   4.495  10.455  0.0463  0.2816 -0.2670
   20SAPC   C31 2588   4.244   4.450  10.350 -0.3362  0.5933  1.0009
   20SAPC   O32 2589   4.177   4.351  10.341 -0.0774 -0.1801  0.3237
   20SAPC   C32 2590   4.286   4.538  10.234  0.2707  0.2948  0.5169
   20SAPC   H2X 2591   4.382   4.592  10.246 -0.8804  2.6687 -0.2348
   20SAPC   H2Y 2592   4.201   4.610  10.231 -0.0046  0.1008  2.4196
   20SAPC   C23 2593   3.787   4.561  10.377  0.2088 -0.3548  1.0857
   20SAPC   H3R 2594   3.782   4.664  10.416 -0.0049  0.5376 -1.1521
   20SAPC   H3S 2595   3.684   4.522  10.364  0.0486  0.0767  1.0659
   20SAPC   C24 2596   3.858   4.564  10.241 -0.2593 -0.0249  0.0323
   20SAPC   H4R 2597   3.965   4.588  10.260 -0.2274 -0.0306 -0.1384
   20SAPC   H4S 2598   3.825   4.653  10.183  0.8410 -1.0000 -2.1855
   20SAPC   C25 2599   3.843   4.442  10.162 -0.2582 -0.2831  0.5375
   20SAPC   H5R 2600   3.917   4.365  10.190 -0.8304 -0.6180  1.1502
   20SAPC   C26 2601   3.774   4.418  10.045  1.1646 -0.5380 -0.6303
   20SAPC   H6R 2602   3.782   4.324   9.989 -0.1128  0.5838 -2.8502
   20SAPC   C27 2603   3.693   4.520   9.977  0.4764 -0.2164 -0.1322
   20SAPC   H7R 2604   3.626   4.573  10.048  0.0763  2.5010 -2.3851
   20SAPC   H7S 2605   3.635   4.457   9.906  0.2407 -1.6288  1.2445
   20SAPC   C28 2606   3.784   4.615   9.907  0.2203 -0.2641 -0.1065
   20SAPC   H8R 2607   3.814   4.703   9.966 -0.3373  0.8000 -1.3562
   20SAPC   C29 2608   3.836   4.605   9.786  0.2138  0.0234  1.2619
   20SAPC   H9R 2609   3.898   4.691   9.753 -0.7249 -0.4659 -2.1484
   20SAPC  C210 2610   3.811   4.502   9.681  0.6221 -0.3027 -0.0485
   20SAPC  H10R 2611   3.816   4.405   9.734  2.4351  0.1140  0.6049
   20SAPC  H10S 2612   3.891   4.514   9.605  0.1957 -0.3620 -0.5121
   20SAPC  C211 2613   3.671   4.526   9.627  0.1462 -0.2539  0.9068
   20SAPC  H11R 2614   3.596   4.523   9.707  1.5942 -0.7402  2.3146
   20SAPC  C212 2615   3.629   4.538   9.499 -0.1118  0.3027 -0.6070
   20SAPC  H12R 2616   3.521   4.558   9.488 -0.4068 -1.0306 -0.3210
   20SAPC  C213 2617   3.716   4.536   9.372 -0.0376  0.7574 -0.7434
   20SAPC  H13R 2618   3.686   4.463   9.294  0.7167 -0.9528  0.5308
   20SAPC  H13S 2619   3.817   4.491   9.385 -0.1664  0.4772 -0.7147
   20SAPC  C214 2620   3.738   4.669   9.318  0.0316  0.1329 -0.1034
   20SAPC  H14R 2621   3.759   4.752   9.388  0.3603  2.4572 -2.7571
   20SAPC  C215 2622   3.745   4.703   9.189  0.5173 -0.4612 -0.1429
   20SAPC  H15R 2623   3.771   4.808   9.167  0.3747 -0.0597  1.4929
   20SAPC  C216 2624   3.728   4.616   9.062 -0.7771  0.6040  0.3644
   20SAPC  H16R 2625   3.772   4.516   9.078  1.7676  1.4450 -0.8670
   20SAPC  H16S 2626   3.783   4.653   8.973  0.8157  0.0168  1.0666
   20SAPC  C217 2627   3.580   4.596   9.015  0.0638 -0.0297 -0.5992
   20SAPC  H17R 2628   3.545   4.697   8.985  1.4631  0.7662  0.3200
   20SAPC  H17S 2629   3.520   4.555   9.098  0.6182  1.0302  0.3561
   20SAPC  C218 2630   3.563   4.500   8.897 -0.3794 -0.2019  0.1037
   20SAPC  H18R 2631   3.604   4.400   8.921  0.9340  0.2105 -0.3419
   20SAPC  H18S 2632   3.615   4.530   8.804 -1.8618  0.1770 -0.6264
   20SAPC  C219 2633   3.408   4.498   8.875 -0.0049 -0.1365  1.1713
   20SAPC  H19R 2634   3.395   4.596   8.826  1.8551 -0.5452 -0.2687
   20SAPC  H19S 2635   3.335   4.500   8.958 -0.9418 -0.3906  0.3697
   20SAPC  C220 2636   3.361   4.399   8.770 -0.3889 -0.3446 -0.2660
   20SAPC  H20R 2637   3.363   4.297   8.815  0.1272 -0.6326 -0.9309
   20SAPC  H20S 2638   3.435   4.399   8.688 -0.1254  0.7150 -0.0393
   20SAPC  H20T 2639   3.260   4.426   8.732 -0.4944  1.6449  1.2712
   20SAPC   C33 2640   4.283   4.448  10.106  0.0860 -0.1913  0.5245
   20SAPC   H3X 2641   4.184   4.398  10.112  0.4959 -0.8060  4.4422
   20SAPC   H3Y 2642   4.366   4.375  10.095 -1.3033 -1.7351 -0.1110
   20SAPC   C34 2643   4.282   4.544   9.980  0.0833 -0.3293  0.0433
   20SAPC   H4X 2644   4.380   4.595   9.991  0.6136 -1.3046 -0.0986
   20SAPC   H4Y 2645   4.201   4.621   9.985  0.7212  0.3332  0.3552
   20SAPC   C35 2646   4.283   4.470   9.851  0.3830  0.0882 -0.6509
   20SAPC   H5X 2647   4.190   4.410   9.853  0.1794  0.3770  1.6038
   20SAPC   H5Y 2648   4.373   4.406   9.847  1.3085  1.2269  0.8318
   20SAPC   C36 2649   4.278   4.559   9.728  0.2182 -0.2327  0.3200
   20SAPC   H6X 2650   4.378   4.607   9.725  0.4422 -0.6833  0.5169
   20SAPC   H6Y 2651   4.192   4.630   9.733 -0.9866 -1.5934 -0.2397
   20SAPC   C37 2652   4.242   4.466   9.603 -0.2462 -0.2693 -0.2259
   20SAPC   H7X 2653   4.154   4.400   9.621 -1.3769  1.5389  1.1983
   20SAPC   H7Y 2654   4.334   4.404   9.615  0.1674  0.5620  1.1386
   20SAPC   C38 2655   4.247   4.534   9.469 -0.5566 -0.0374  0.3913
   20SAPC   H8X 2656   4.340   4.590   9.445 -0.5400 -0.6499 -1.0520
   20SAPC   H8Y 2657   4.167   4.610   9.473 -1.9351 -1.4292 -0.0619
   20SAPC   C39 2658   4.207   4.441   9.357  0.3687  0.0015  1.2824
   20SAPC   H9X 2659   4.117   4.378   9.378 -0.6718  2.0659  3.6394
   20SAPC   H9Y 2660   4.293   4.378   9.329 -0.4063  0.3428 -2.4544
   20SAPC  C310 2661   4.162   4.527   9.231 -1.0691 -0.4895  0.2125
   20SAPC  H10X 2662   4.256   4.565   9.187  0.7101 -1.2325  3.1194
   20SAPC  H10Y 2663   4.096   4.615   9.247  0.8879  1.0510  0.1243
   20SAPC  C311 2664   4.099   4.436   9.127 -0.4099 -0.2004  0.0582
   20SAPC  H11X 2665   4.005   4.402   9.176 -1.4214  1.9226 -0.3046
   20SAPC  H11Y 2666   4.177   4.360   9.101  0.9773  1.0344  0.4747
   20SAPC  C312 2667   4.050   4.511   9.002 -0.0592 -0.1231  0.2692
   20SAPC  H12X 2668   4.130   4.572   8.956  0.2266 -0.0334  0.8832
   20SAPC  H12Y 2669   3.972   4.583   9.033 -1.0087 -1.4472  1.0474
   20SAPC  C313 2670   4.002   4.410   8.905  0.0402  0.0182 -0.8712
   20SAPC  H13X 2671   3.933   4.334   8.948  0.0433  1.5029  1.9544
   20SAPC  H13Y 2672   4.080   4.342   8.866 -0.1113 -1.1622  0.7767
   20SAPC  C314 2673   3.922   4.467   8.785 -0.2040 -0.1289 -0.2810
   20SAPC  H14X 2674   3.984   4.528   8.716  0.3791 -0.2389  0.1352
   20SAPC  H14Y 2675   3.853   4.548   8.818  0.8684  0.3208  0.9429
   20SAPC  C315 2676   3.844   4.362   8.708 -0.1591 -0.3841 -0.1012
   20SAPC  H15X 2677   3.756   4.325   8.765 -0.8960  0.6132 -0.5778
   20SAPC  H15Y 2678   3.917   4.283   8.679  0.7194  1.1173 -2.2900
   20SAPC  C316 2679   3.769   4.421   8.582  0.0861 -0.2271 -0.4775
   20SAPC  H16X 2680   3.831   4.497   8.530 -0.1395  0.4368  0.2019
   20SAPC  H16Y 2681   3.680   4.479   8.615  0.3495 -1.1068  1.9380
   20SAPC  C317 2682   3.726   4.302   8.495  0.1685 -0.4185 -0.2474
   20SAPC  H17X 2683   3.662   4.239   8.561  0.7492  1.5903  2.4104
   20SAPC  H17Y 2684   3.807   4.233   8.464  0.9135  1.0945 -1.8167
   20SAPC  C318 2685   3.652   4.350   8.375 -0.3758  0.1993  0.2085
   20SAPC  H18X 2686   3.555   4.393   8.408  0.5345  0.8857  2.1509
   20SAPC  H18Y 2687   3.637   4.261   8.309  2.3751  0.8773 -1.5259
   20SAPC  H18Z 2688   3.718   4.421   8.321 -0.2253  0.6363  0.9628
   21SAPC     N 2689   3.661   4.005  10.943  0.3331  0.2167  0.1500
   21SAPC   C12 2690   3.697   3.901  10.835 -0.0377 -0.1507  0.0213
   21SAPC  H12A 2691   3.619   3.892  10.761  0.9700  0.1470 -1.0967
   21SAPC  H12B 2692   3.702   3.804  10.882  1.5257  0.3819  1.0458
   21SAPC   C13 2693   3.764   4.000  11.047 -0.0566 -0.6191  0.0612
   21SAPC  H13A 2694   3.769   3.908  11.104  0.0979  0.0588  1.1709
   21SAPC  H13B 2695   3.860   4.025  11.004 -0.0346  1.7217  1.2816
   21SAPC  H13C 2696   3.751   4.070  11.128  0.5654 -0.2114 -0.1832
   21SAPC   C14 2697   3.656   4.144  10.882  0.5965  0.6043  0.0296
   21SAPC  H14A 2698   3.750   4.183  10.848  1.8787 -0.9883  1.5769
   21SAPC  H14B 2699   3.588   4.139  10.798  3.4036 -0.5816 -2.3417
   21SAPC  H14C 2700   3.615   4.215  10.953  1.3633 -0.5535  1.6906
   21SAPC   C15 2701   3.527   3.969  11.005 -0.7047 -0.6690  0.3767
   21SAPC  H15A 2702   3.515   4.034  11.090  1.4732 -1.1587  1.1133
   21SAPC  H15B 2703   3.454   3.976  10.925 -0.0143 -0.7603 -0.2799
   21SAPC  H15C 2704   3.528   3.870  11.047 -0.6616 -0.4092  0.9990
   21SAPC   C11 2705   3.831   3.919  10.762 -0.5512  0.0415  0.0460
   21SAPC  H11A 2706   3.829   4.015  10.705 -4.1606 -0.6005 -1.2142
   21SAPC  H11B 2707   3.818   3.850  10.675 -0.9402 -2.0316  1.6610
   21SAPC     P 2708   4.084   3.969  10.805  0.0846 -0.3184 -0.0904
   21SAPC   O13 2709   4.081   4.109  10.860 -0.0452 -0.1650 -0.4236
   21SAPC   O14 2710   4.192   3.881  10.855 -0.9524  0.2271  0.2274
   21SAPC   O12 2711   3.951   3.900  10.837 -0.1736  0.0266  0.2073
   21SAPC   O11 2712   4.088   3.981  10.651 -0.1434 -0.4555 -0.7140
   21SAPC    C1 2713   4.074   4.093  10.566  1.0294  0.0719 -0.5870
   21SAPC    HA 2714   4.032   4.178  10.625  1.6324 -0.8644  1.2880
   21SAPC    HB 2715   4.174   4.123  10.527 -0.1237  0.1497 -3.7500
   21SAPC    C2 2716   4.002   4.070  10.437 -0.6704  0.6452  0.8010
   21SAPC    HS 2717   4.028   4.148  10.361 -0.5178 -0.1313  0.0385
   21SAPC   O21 2718   3.858   4.062  10.460 -0.6244  0.3643  0.4577
   21SAPC   C21 2719   3.776   4.088  10.370 -0.0767 -0.3611 -0.0405
   21SAPC   O22 2720   3.796   4.132  10.259 -0.6374 -0.3839 -0.3937
   21SAPC   C22 2721   3.643   4.070  10.432 -0.3351  0.4878 -0.2038
   21SAPC   H2R 2722   3.649   3.983  10.501  1.5154  0.0023 -0.9243
   21SAPC   H2S 2723   3.630   4.164  10.490  0.2362  0.1859  0.4308
   21SAPC    C3 2724   4.045   3.934  10.370 -0.1864 -0.0314 -0.2951
   21SAPC    HX 2725   3.982   3.858  10.421 -0.5259 -1.2554 -2.4210
   21SAPC    HY 2726   4.151   3.915  10.397 -0.8397 -2.3433  0.8383
   21SAPC   O31 2727   4.013   3.931  10.225 -0.3115  0.3720  0.1331
   21SAPC   C31 2728   4.101   3.989  10.141  0.0082 -1.1647 -0.4318
   21SAPC   O32 2729   4.210   4.033  10.182 -0.4161 -0.5015  0.4910
   21SAPC   C32 2730   4.046   4.002   9.996 -0.3079 -0.7615  0.3448
   21SAPC   H2X 2731   3.940   3.969   9.998 -1.3140  2.0296 -1.2386
   21SAPC   H2Y 2732   4.112   3.930   9.943  0.2193  0.7321 -1.1336
   21SAPC   C23 2733   3.524   4.045  10.338  0.2640 -0.0433  0.0492
   21SAPC   H3R 2734   3.529   4.122  10.258 -2.0582 -0.2161 -0.3505
   21SAPC   H3S 2735   3.426   4.055  10.389  0.6481  1.4697  0.5238
   21SAPC   C24 2736   3.511   3.899  10.284 -0.4580 -0.3282  0.5801
   21SAPC   H4R 2737   3.421   3.899  10.218 -0.8212  0.3771  1.0650
   21SAPC   H4S 2738   3.485   3.833  10.369 -1.3725 -1.4688 -0.5464
   21SAPC   C25 2739   3.626   3.848  10.210  0.4102  0.0863  0.4851
   21SAPC   H5R 2740   3.696   3.775  10.252  0.4710 -1.6468 -2.3485
   21SAPC   C26 2741   3.642   3.869  10.074  0.1562  0.1164 -0.4211
   21SAPC   H6R 2742   3.733   3.821  10.034 -0.1755  0.5035 -1.6890
   21SAPC   C27 2743   3.561   3.964   9.986 -0.0304 -0.5279 -0.2236
   21SAPC   H7R 2744   3.468   3.998  10.036  0.6807  0.3374  0.5473
   21SAPC   H7S 2745   3.531   3.899   9.901 -1.7594 -0.9882  0.6928
   21SAPC   C28 2746   3.638   4.088   9.942 -0.5948  0.0971 -0.4871
   21SAPC   H8R 2747   3.701   4.134  10.020 -2.2907  1.2651  0.2443
   21SAPC   C29 2748   3.627   4.144   9.819 -0.1176 -0.1219 -0.2439
   21SAPC   H9R 2749   3.684   4.237   9.805  2.4407 -1.1412  2.4112
   21SAPC  C210 2750   3.539   4.102   9.701 -0.3708 -0.0178 -0.1312
   21SAPC  H10R 2751   3.496   4.195   9.657 -0.8828 -0.0541  0.2900
   21SAPC  H10S 2752   3.458   4.049   9.755  0.8329 -0.4567  1.3128
   21SAPC  C211 2753   3.591   3.999   9.608  0.2774 -0.1288  0.4467
   21SAPC  H11R 2754   3.592   3.898   9.651 -2.0070 -0.7540 -0.8182
   21SAPC  C212 2755   3.638   4.019   9.482  0.1410  0.1919 -0.2853
   21SAPC  H12R 2756   3.706   3.942   9.441 -2.6202 -2.5915 -0.0530
   21SAPC  C213 2757   3.633   4.146   9.395 -0.0290  0.8378 -0.2334
   21SAPC  H13R 2758   3.669   4.227   9.462  1.4392  0.1135 -0.0973
   21SAPC  H13S 2759   3.525   4.170   9.381 -0.6503 -0.6509  1.6140
   21SAPC  C214 2760   3.719   4.134   9.268 -0.1062 -0.3597  0.8250
   21SAPC  H14R 2761   3.822   4.172   9.261 -0.5964  0.7308 -2.1874
   21SAPC  C215 2762   3.674   4.062   9.164  0.2286  0.7695 -0.1765
   21SAPC  H15R 2763   3.735   4.087   9.076  0.0472  1.0447 -0.2254
   21SAPC  C216 2764   3.545   3.981   9.146  0.1076 -0.6367 -0.9774
   21SAPC  H16R 2765   3.506   4.003   9.044 -1.2937  0.7543 -0.1779
   21SAPC  H16S 2766   3.471   4.005   9.225 -1.0654  0.7484 -2.4176
   21SAPC  C217 2767   3.556   3.824   9.151  0.3948  0.7681 -0.1332
   21SAPC  H17R 2768   3.448   3.803   9.158 -0.0197  2.5260 -0.7018
   21SAPC  H17S 2769   3.608   3.787   9.242  0.3062 -3.0791 -1.4701
   21SAPC  C218 2770   3.618   3.749   9.027  0.4646 -0.0711 -0.3784
   21SAPC  H18R 2771   3.718   3.788   9.000  1.8626 -0.8650  3.0127
   21SAPC  H18S 2772   3.556   3.771   8.938  0.5160 -0.2454 -0.4581
   21SAPC  C219 2773   3.628   3.595   9.042  0.3141  0.2580 -0.7251
   21SAPC  H19R 2774   3.706   3.584   9.120  1.4636 -0.5288 -1.9595
   21SAPC  H19S 2775   3.660   3.556   8.943  1.4189  0.9766 -0.6713
   21SAPC  C220 2776   3.491   3.527   9.072 -0.1932 -0.1113  0.1003
   21SAPC  H20R 2777   3.454   3.565   9.170 -1.9490 -0.4717 -0.3904
   21SAPC  H20S 2778   3.495   3.417   9.078 -0.3391 -0.1296 -0.1413
   21SAPC  H20T 2779   3.411   3.539   8.995  0.3728  2.6433 -0.1887
   21SAPC   C33 2780   4.088   4.141   9.938 -0.4760  0.1644 -0.5267
   21SAPC   H3X 2781   4.197   4.155   9.927 -0.3079 -1.6838 -1.5630
   21SAPC   H3Y 2782   4.054   4.223  10.005 -0.4019  0.5674 -0.9796
   21SAPC   C34 2783   4.029   4.151   9.798 -0.2055 -0.3380  0.1023
   21SAPC   H4X 2784   4.028   4.259   9.771 -0.2921 -0.9504 -2.6424
   21SAPC   H4Y 2785   3.929   4.104   9.802  0.2504 -1.4379 -0.8012
   21SAPC   C35 2786   4.108   4.084   9.688 -0.4564  0.3191  0.3091
   21SAPC   H5X 2787   4.101   3.974   9.703  1.6503  0.4380  2.8191
   21SAPC   H5Y 2788   4.216   4.107   9.691 -0.5489  0.7700  0.3352
   21SAPC   C36 2789   4.055   4.109   9.546 -0.1634  0.1324  0.5229
   21SAPC   H6X 2790   4.032   4.214   9.517 -0.8432 -0.5269 -1.4998
   21SAPC   H6Y 2791   3.958   4.057   9.535  0.7702 -2.0203  1.7772
   21SAPC   C37 2792   4.149   4.042   9.442  0.3844 -0.0158  0.3410
   21SAPC   H7X 2793   4.148   3.933   9.463 -2.6483 -0.1088  0.1846
   21SAPC   H7Y 2794   4.251   4.082   9.461  1.3809 -3.1829  2.6192
   21SAPC   C38 2795   4.101   4.054   9.297  0.1925 -0.4129  0.2188
   21SAPC   H8X 2796   4.087   4.161   9.271 -3.9457 -0.8919 -0.2630
   21SAPC   H8Y 2797   3.996   4.018   9.295 -0.6591  1.8188  1.2676
   21SAPC   C39 2798   4.185   3.979   9.188 -0.2924  0.0719 -0.6016
   21SAPC   H9X 2799   4.161   3.871   9.191  1.7727 -0.4323 -0.1491
   21SAPC   H9Y 2800   4.292   4.004   9.206 -0.4096 -0.3972  0.8951
   21SAPC  C310 2801   4.135   4.015   9.054 -0.8780 -0.0869  0.1676
   21SAPC  H10X 2802   4.176   4.114   9.028  0.1122 -1.0764 -2.3657
   21SAPC  H10Y 2803   4.025   4.028   9.047 -0.9151 -0.5067 -0.0805
   21SAPC  C311 2804   4.204   3.918   8.957 -0.1422 -0.2892  0.8214
   21SAPC  H11X 2805   4.184   3.812   8.982  0.0858 -0.8568 -1.2284
   21SAPC  H11Y 2806   4.313   3.938   8.948 -0.2697 -0.5442 -2.5749
   21SAPC  C312 2807   4.145   3.950   8.816 -0.1361  0.0288  0.1858
   21SAPC  H12X 2808   4.207   3.897   8.741  0.0470 -1.3774  1.2810
   21SAPC  H12Y 2809   4.147   4.057   8.787  2.7921  0.0874  0.2786
   21SAPC  C313 2810   3.997   3.898   8.809  0.0306 -0.8072 -0.8172
   21SAPC  H13X 2811   3.929   3.943   8.884 -0.3382 -0.3682 -1.4022
   21SAPC  H13Y 2812   4.003   3.789   8.825  0.2027 -0.9410 -1.7249
   21SAPC  C314 2813   3.937   3.927   8.671 -0.0654  0.5145  0.9550
   21SAPC  H14X 2814   3.998   3.900   8.582 -1.4963  1.0075 -0.2072
   21SAPC  H14Y 2815   3.928   4.035   8.649  1.5122  0.9191  2.0624
   21SAPC  C315 2816   3.790   3.867   8.649  0.1978  0.0315  0.3580
   21SAPC  H15X 2817   3.726   3.894   8.736  1.5822 -0.6296  1.6235
   21SAPC  H15Y 2818   3.799   3.756   8.645 -1.2013 -0.0787 -2.9847
   21SAPC  C316 2819   3.723   3.914   8.520 -0.2766  0.3518 -0.3414
   21SAPC  H16X 2820   3.793   3.887   8.438 -0.2037 -1.6477  0.3439
   21SAPC  H16Y 2821   3.711   4.024   8.531 -3.6466 -0.0528  1.2646
   21SAPC  C317 2822   3.582   3.869   8.508  0.6088  0.2768 -0.4488
   21SAPC  H17X 2823   3.540   3.880   8.611 -0.1224  0.2828 -0.7402
   21SAPC  H17Y 2824   3.576   3.762   8.478 -2.8646 -0.3745  1.8964
   21SAPC  C318 2825   3.495   3.942   8.410  0.6514 -0.1419 -0.2248
   21SAPC  H18X 2826   3.528   3.926   8.305 -1.6121 -2.0641 -0.7352
   21SAPC  H18Y 2827   3.499   4.046   8.449  1.6124 -1.2418  2.9116
   21SAPC  H18Z 2828   3.387   3.916   8.406  0.8288 -0.8412 -0.8902
   22SAPC     N 2829   1.332   6.739  10.956  0.1781  0.0541 -0.1596
   22SAPC   C12 2830   1.346   6.720  10.802 -0.2431  0.1895 -0.4349
   22SAPC  H12A 2831   1.292   6.805  10.762 -1.6737 -0.3482  0.3167
   22SAPC  H12B 2832   1.291   6.634  10.768 -0.3117 -0.3046  0.9079
   22SAPC   C13 2833   1.191   6.744  10.992 -0.2444  0.2832  0.2564
   22SAPC  H13A 2834   1.139   6.664  10.941  0.8505 -0.7560  0.7359
   22SAPC  H13B 2835   1.177   6.741  11.099 -0.8141 -0.2578  0.1731
   22SAPC  H13C 2836   1.144   6.832  10.950 -2.6732 -0.6049  0.9418
   22SAPC   C14 2837   1.387   6.623  11.031 -0.4282  1.3333 -0.2664
   22SAPC  H14A 2838   1.364   6.629  11.136  0.7680  1.4041  0.0154
   22SAPC  H14B 2839   1.351   6.524  11.006  1.5776 -0.2123  2.3328
   22SAPC  H14C 2840   1.495   6.621  11.025 -0.4717  1.8517 -1.4820
   22SAPC   C15 2841   1.398   6.866  11.003 -0.3250  0.3568 -1.0000
   22SAPC  H15A 2842   1.380   6.867  11.110  1.2684 -2.9966 -0.5670
   22SAPC  H15B 2843   1.500   6.852  10.972 -0.9935 -1.7555 -2.4983
   22SAPC  H15C 2844   1.371   6.959  10.955 -0.1187  1.2721  0.5970
   22SAPC   C11 2845   1.500   6.702  10.755  0.7565  0.1808 -0.7016
   22SAPC  H11A 2846   1.497   6.668  10.649  0.1921  0.7880 -0.8907
   22SAPC  H11B 2847   1.543   6.626  10.823 -0.2732  0.6929  0.5780
   22SAPC     P 2848   1.729   6.824  10.751 -0.5531  0.3686 -0.1455
   22SAPC   O13 2849   1.794   6.960  10.768  0.1444  0.2737 -0.2011
   22SAPC   O14 2850   1.782   6.724  10.845 -0.2862  0.0822  0.5157
   22SAPC   O12 2851   1.567   6.827  10.763  0.3625 -0.2801 -0.3801
   22SAPC   O11 2852   1.753   6.775  10.602  0.6503 -0.2140  0.3222
   22SAPC    C1 2853   1.695   6.829  10.479 -0.2385  0.4631  0.4675
   22SAPC    HA 2854   1.656   6.741  10.422  1.8073 -0.2255  0.0487
   22SAPC    HB 2855   1.609   6.894  10.506 -1.9879 -0.4684 -2.3794
   22SAPC    C2 2856   1.795   6.906  10.389  0.3336  0.3629 -0.2212
   22SAPC    HS 2857   1.826   6.999  10.441 -0.4164  1.1713 -1.1637
   22SAPC   O21 2858   1.732   6.920  10.266 -0.0037 -0.4621 -0.1656
   22SAPC   C21 2859   1.663   7.028  10.248 -0.5160 -0.1927  0.8584
   22SAPC   O22 2860   1.641   7.117  10.323  0.6244  0.3472 -0.7100
   22SAPC   C22 2861   1.624   7.040  10.092 -0.2669 -0.4614  0.0305
   22SAPC   H2R 2862   1.575   6.942  10.072  0.1430 -1.1012  1.9397
   22SAPC   H2S 2863   1.556   7.126  10.075  1.6217  0.7862 -1.6752
   22SAPC    C3 2864   1.922   6.819  10.365  0.4248  0.5789  0.0705
   22SAPC    HX 2865   1.968   6.781  10.459 -1.2618 -2.5938 -0.2312
   22SAPC    HY 2866   1.990   6.897  10.325 -1.7737  2.7031  0.2353
   22SAPC   O31 2867   1.899   6.705  10.277 -0.1708 -0.8052 -0.2270
   22SAPC   C31 2868   2.006   6.667  10.211  0.2521  0.4603 -0.6014
   22SAPC   O32 2869   2.115   6.722  10.205 -0.2105  0.3912 -0.4506
   22SAPC   C32 2870   1.959   6.542  10.129  0.0505 -0.0086 -0.6796
   22SAPC   H2X 2871   1.899   6.474  10.193 -0.4385 -0.7929 -1.9314
   22SAPC   H2Y 2872   2.050   6.481  10.107  0.5274  0.0610  1.0083
   22SAPC   C23 2873   1.749   7.065  10.005 -0.7612 -0.4248 -0.7368
   22SAPC   H3R 2874   1.810   6.976  10.031 -0.0936  0.8636  2.6608
   22SAPC   H3S 2875   1.808   7.151  10.043 -0.4000  0.0342 -2.2647
   22SAPC   C24 2876   1.726   7.085   9.858 -0.6898  0.0586 -0.2845
   22SAPC   H4R 2877   1.645   7.161   9.848 -1.3875 -0.6678 -0.2286
   22SAPC   H4S 2878   1.672   6.997   9.817 -1.3875  0.5565 -0.4527
   22SAPC   C25 2879   1.851   7.128   9.790 -0.4091  0.0526 -0.0541
   22SAPC   H5R 2880   1.919   7.198   9.841  0.5914  0.0097 -1.2819
   22SAPC   C26 2881   1.900   7.083   9.672 -0.0645  0.5473  0.3692
   22SAPC   H6R 2882   2.001   7.114   9.642  0.1542  1.6010  2.1095
   22SAPC   C27 2883   1.836   6.977   9.583 -0.2770  0.4285 -0.1780
   22SAPC   H7R 2884   1.748   6.926   9.627 -1.8145  0.4357 -2.9779
   22SAPC   H7S 2885   1.908   6.893   9.567  0.8831  1.4929 -0.7962
   22SAPC   C28 2886   1.780   7.038   9.459 -0.7479 -0.3802  0.0858
   22SAPC   H8R 2887   1.678   7.074   9.475  0.2181  2.5827  0.2881
   22SAPC   C29 2888   1.852   7.070   9.350  0.3952  0.4607 -0.3289
   22SAPC   H9R 2889   1.804   7.129   9.270  0.0998  2.3933  1.1888
   22SAPC  C210 2890   1.998   7.046   9.323 -0.0495  0.2671 -0.4560
   22SAPC  H10R 2891   2.006   6.998   9.223 -0.4170  1.2130 -0.9462
   22SAPC  H10S 2892   2.044   6.983   9.403  0.8842  0.1582 -1.0691
   22SAPC  C211 2893   2.083   7.180   9.322 -0.1787 -0.0841 -0.1202
   22SAPC  H11R 2894   2.028   7.267   9.284  0.3426  1.1006  1.7369
   22SAPC  C212 2895   2.209   7.196   9.368  0.1273  0.4900  0.3662
   22SAPC  H12R 2896   2.252   7.297   9.372  0.5800  0.3787 -1.2132
   22SAPC  C213 2897   2.295   7.090   9.435  1.0243  0.8007 -0.6499
   22SAPC  H13R 2898   2.328   7.013   9.362  1.2997  0.2948 -0.0001
   22SAPC  H13S 2899   2.235   7.042   9.515  1.9403 -0.5165 -0.7331
   22SAPC  C214 2900   2.411   7.154   9.504  0.3640  0.4649  0.3768
   22SAPC  H14R 2901   2.505   7.177   9.451  0.6707 -0.0277  0.7008
   22SAPC  C215 2902   2.406   7.204   9.630 -0.2585  0.4342  0.2570
   22SAPC  H15R 2903   2.487   7.264   9.674  0.8618 -0.0396 -1.1044
   22SAPC  C216 2904   2.286   7.197   9.720  0.1927  0.6450  0.2232
   22SAPC  H16R 2905   2.218   7.110   9.716 -1.0910  1.6429 -0.5597
   22SAPC  H16S 2906   2.224   7.282   9.683  0.2914  0.7314  0.2545
   22SAPC  C217 2907   2.324   7.193   9.861  0.1517  0.2164 -0.2355
   22SAPC  H17R 2908   2.376   7.287   9.893  0.9809  0.4474 -2.1364
   22SAPC  H17S 2909   2.386   7.106   9.892 -1.0092 -0.9469 -1.1079
   22SAPC  C218 2910   2.196   7.182   9.947  0.4828 -0.1507  0.0287
   22SAPC  H18R 2911   2.137   7.089   9.937  1.0122 -0.3269 -1.7440
   22SAPC  H18S 2912   2.129   7.264   9.913  0.3383 -0.8010 -1.3007
   22SAPC  C219 2913   2.231   7.197  10.099 -0.2694 -0.1832  0.4401
   22SAPC  H19R 2914   2.283   7.295  10.103  1.9349 -0.9041 -4.2136
   22SAPC  H19S 2915   2.299   7.111  10.116 -1.1332 -2.1170 -4.2029
   22SAPC  C220 2916   2.112   7.193  10.196 -0.3519  0.5823  0.7507
   22SAPC  H20R 2917   2.145   7.229  10.296 -0.6008  1.9796  0.3528
   22SAPC  H20S 2918   2.084   7.085  10.196  1.0804  0.1809 -0.3996
   22SAPC  H20T 2919   2.028   7.260  10.167  0.1195  0.9628  0.2500
   22SAPC   C33 2920   1.876   6.583  10.004 -0.3952 -0.5903  0.0058
   22SAPC   H3X 2921   1.798   6.653  10.040  0.0458 -0.9525  1.7234
   22SAPC   H3Y 2922   1.823   6.493   9.965 -0.0635 -0.8460  0.1477
   22SAPC   C34 2923   1.959   6.654   9.892  0.5299  0.2535 -0.2006
   22SAPC   H4X 2924   2.055   6.598   9.895 -0.4619 -1.6145 -1.2987
   22SAPC   H4Y 2925   1.974   6.759   9.924 -0.6957  0.2479  0.4459
   22SAPC   C35 2926   1.890   6.661   9.757 -0.7690  0.5434 -0.0421
   22SAPC   H5X 2927   1.955   6.720   9.690  0.5108  1.3171  1.8121
   22SAPC   H5Y 2928   1.802   6.728   9.770 -0.3417  0.6481  3.1300
   22SAPC   C36 2929   1.856   6.525   9.692 -0.5409 -0.3628 -0.7131
   22SAPC   H6X 2930   1.769   6.488   9.751  0.0378  0.8797  1.0111
   22SAPC   H6Y 2931   1.941   6.454   9.702  0.2014  0.1363 -2.9060
   22SAPC   C37 2932   1.837   6.530   9.541  0.0808 -0.3148 -0.2733
   22SAPC   H7X 2933   1.840   6.429   9.495  0.8929  0.0209 -0.9794
   22SAPC   H7Y 2934   1.913   6.593   9.490  2.2533 -2.5292  0.0873
   22SAPC   C38 2935   1.694   6.587   9.499 -0.0109 -0.8602 -0.0092
   22SAPC   H8X 2936   1.692   6.693   9.532  1.1947 -1.5411  2.4193
   22SAPC   H8Y 2937   1.615   6.522   9.542 -0.6394 -0.0854  0.0323
   22SAPC   C39 2938   1.668   6.593   9.347 -0.5917  0.2822  0.1685
   22SAPC   H9X 2939   1.762   6.643   9.316 -0.3671  0.0388  0.4466
   22SAPC   H9Y 2940   1.577   6.650   9.321 -0.4471  0.0084 -0.9990
   22SAPC  C310 2941   1.666   6.462   9.268 -0.1511 -0.8150  0.2345
   22SAPC  H10X 2942   1.597   6.389   9.316  0.0586 -1.2685 -0.1476
   22SAPC  H10Y 2943   1.768   6.421   9.252 -0.6540 -1.2328 -2.3515
   22SAPC  C311 2944   1.620   6.478   9.126 -0.1278  0.3343 -0.0998
   22SAPC  H11X 2945   1.660   6.571   9.081  0.5810 -0.0536 -0.2851
   22SAPC  H11Y 2946   1.510   6.492   9.124 -0.1888 -0.1454 -0.3702
   22SAPC  C312 2947   1.656   6.356   9.037 -0.1953  0.3533 -0.3198
   22SAPC  H12X 2948   1.601   6.271   9.082  1.3616 -0.0477  0.9395
   22SAPC  H12Y 2949   1.761   6.318   9.031 -0.3147 -0.7477  2.7771
   22SAPC  C313 2950   1.592   6.382   8.901  0.2589 -0.2626  0.2411
   22SAPC  H13X 2951   1.620   6.483   8.865 -1.8748  0.4138  0.3662
   22SAPC  H13Y 2952   1.485   6.378   8.930  0.9665  1.5736  3.6086
   22SAPC  C314 2953   1.612   6.267   8.795 -0.1883  0.1200  0.3486
   22SAPC  H14X 2954   1.702   6.207   8.822 -0.4738 -0.4529  0.0433
   22SAPC  H14Y 2955   1.633   6.309   8.695 -1.7553  0.8216  0.2931
   22SAPC  C315 2956   1.490   6.168   8.793  0.0901 -0.4354  0.2593
   22SAPC  H15X 2957   1.403   6.235   8.775  0.2826 -0.5255 -1.0983
   22SAPC  H15Y 2958   1.487   6.117   8.891  1.3150 -1.4499 -0.2062
   22SAPC  C316 2959   1.500   6.060   8.679 -0.0822 -0.1640 -0.0521
   22SAPC  H16X 2960   1.601   6.014   8.677 -0.6910 -1.5501  0.1486
   22SAPC  H16Y 2961   1.490   6.115   8.582  1.4598  0.1569 -0.0518
   22SAPC  C317 2962   1.392   5.953   8.686 -0.1630 -0.0326 -0.5185
   22SAPC  H17X 2963   1.294   6.004   8.669  0.4639  0.9676 -1.2818
   22SAPC  H17Y 2964   1.387   5.907   8.787 -0.5099 -0.4396 -0.7173
   22SAPC  C318 2965   1.410   5.849   8.576 -0.1993 -0.1343  0.1570
   22SAPC  H18X 2966   1.495   5.779   8.593 -0.8052 -1.5662 -2.2511
   22SAPC  H18Y 2967   1.434   5.895   8.478  0.6043 -1.2141 -0.1685
   22SAPC  H18Z 2968   1.315   5.794   8.562 -0.9531  1.0061  0.6418
   23SAPC     N 2969   4.463   3.170  11.267 -0.8134  0.6809  0.1766
   23SAPC   C12 2970   4.478   3.190  11.122 -0.7014 -0.6329 -0.7104
   23SAPC  H12A 2971   4.549   3.119  11.084  0.8323 -0.4536  1.6234
   23SAPC  H12B 2972   4.518   3.288  11.101  1.6531 -1.7587 -1.7237
   23SAPC   C13 2973   4.418   3.039  11.314 -0.3760  1.0698  0.1624
   23SAPC  H13A 2974   4.320   3.013  11.277 -0.2806 -0.8158  1.1147
   23SAPC  H13B 2975   4.487   2.962  11.283 -0.1475  1.3338  0.0135
   23SAPC  H13C 2976   4.411   3.036  11.422 -0.0542  1.0023  0.1811
   23SAPC   C14 2977   4.598   3.195  11.326 -0.2762 -0.3605 -0.2960
   23SAPC  H14A 2978   4.595   3.175  11.432 -0.1638  1.1929  0.0222
   23SAPC  H14B 2979   4.682   3.144  11.280  0.4726  0.3397  0.2489
   23SAPC  H14C 2980   4.616   3.301  11.321 -1.0562 -0.2610 -1.4837
   23SAPC   C15 2981   4.383   3.282  11.336 -0.1694  0.3059 -0.2057
   23SAPC  H15A 2982   4.437   3.375  11.329  0.9088 -0.2067  0.9187
   23SAPC  H15B 2983   4.284   3.283  11.293 -0.7026  1.9988  0.9476
   23SAPC  H15C 2984   4.367   3.262  11.441 -1.0610  0.7925 -0.2361
   23SAPC   C11 2985   4.341   3.185  11.045 -0.6549 -0.2840 -0.3448
   23SAPC  H11A 2986   4.277   3.104  11.088 -0.0650  0.2572  1.6908
   23SAPC  H11B 2987   4.358   3.151  10.941  0.9414 -0.8899  0.0873
   23SAPC     P 2988   4.309   3.435  10.991 -0.2523 -0.1208  0.4315
   23SAPC   O13 2989   4.254   3.555  11.062  0.2736 -0.8961  0.1725
   23SAPC   O14 2990   4.457   3.418  10.972  0.1035 -0.5853  0.0291
   23SAPC   O12 2991   4.262   3.305  11.066  0.0897 -0.0561  0.1922
   23SAPC   O11 2992   4.233   3.409  10.856  0.0214 -0.4488 -0.1004
   23SAPC    C1 2993   4.085   3.408  10.858  0.0544 -0.1708 -0.1635
   23SAPC    HA 2994   4.046   3.322  10.915  0.1054  0.1587  0.3716
   23SAPC    HB 2995   4.041   3.493  10.914 -0.7510 -1.5375  1.3484
   23SAPC    C2 2996   4.018   3.416  10.717 -0.3468 -0.0526 -0.1750
   23SAPC    HS 2997   3.909   3.399  10.728 -0.4640  0.4366 -0.5061
   23SAPC   O21 2998   4.065   3.322  10.621 -0.2447 -0.1609  0.2987
   23SAPC   C21 2999   4.034   3.195  10.640  0.7142 -0.4191  0.5096
   23SAPC   O22 3000   3.952   3.159  10.719 -0.5570  0.2217 -0.4356
   23SAPC   C22 3001   4.112   3.102  10.547  0.3039  0.1084  0.0491
   23SAPC   H2R 3002   4.215   3.102  10.589  1.2341 -0.6686 -2.1166
   23SAPC   H2S 3003   4.060   3.004  10.553 -0.1095  0.2475 -1.0253
   23SAPC    C3 3004   4.033   3.561  10.661  0.7807 -0.6174 -0.0443
   23SAPC    HX 3005   4.140   3.591  10.671  0.6844 -0.6334  1.3083
   23SAPC    HY 3006   3.995   3.642  10.727  1.4883  0.1863 -0.5971
   23SAPC   O31 3007   3.976   3.580  10.531  0.4620 -0.0779  0.6582
   23SAPC   C31 3008   4.057   3.556  10.429  0.5929 -0.0800  0.3948
   23SAPC   O32 3009   4.178   3.548  10.435  0.3250  0.7154  0.3868
   23SAPC   C32 3010   3.966   3.550  10.307 -0.2743  0.5128  0.4017
   23SAPC   H2X 3011   3.894   3.635  10.314  0.5322  1.1947  0.5537
   23SAPC   H2Y 3012   3.910   3.454  10.315  1.0323 -0.2696  0.4443
   23SAPC   C23 3013   4.113   3.156  10.398  0.0149  0.2127 -0.3007
   23SAPC   H3R 3014   4.205   3.113  10.354  0.5093 -0.8810  1.6921
   23SAPC   H3S 3015   4.113   3.267  10.403  0.8711  0.1939  0.3058
   23SAPC   C24 3016   3.989   3.106  10.322  0.3051 -0.3276  0.5728
   23SAPC   H4R 3017   3.984   3.175  10.235  2.6825  0.6814  1.1646
   23SAPC   H4S 3018   3.897   3.117  10.384  1.2612 -0.7637  2.1210
   23SAPC   C25 3019   4.001   2.969  10.269  0.0568 -0.2008  0.2225
   23SAPC   H5R 3020   4.028   2.893  10.345  1.0151  1.4285  1.5940
   23SAPC   C26 3021   4.008   2.920  10.139 -0.1817  0.4550 -0.4605
   23SAPC   H6R 3022   4.041   2.815  10.138 -0.9892  0.1833  0.1985
   23SAPC   C27 3023   3.995   3.003  10.011 -0.4782 -0.0669 -0.3907
   23SAPC   H7R 3024   4.038   2.948   9.924 -1.7210  2.6287 -2.8878
   23SAPC   H7S 3025   4.051   3.099  10.014  0.6673 -0.6936 -0.8139
   23SAPC   C28 3026   3.853   3.038   9.981 -0.5943  0.2294 -0.9479
   23SAPC   H8R 3027   3.777   2.996  10.048  0.3696 -2.4076 -1.3709
   23SAPC   C29 3028   3.822   3.096   9.863 -0.0586 -0.5292  1.3087
   23SAPC   H9R 3029   3.723   3.118   9.821  1.0672  1.3008 -0.5439
   23SAPC  C210 3030   3.930   3.129   9.759  0.0931 -0.3957 -0.3033
   23SAPC  H10R 3031   3.995   3.044   9.731  1.3830  0.4075  0.1501
   23SAPC  H10S 3032   3.999   3.204   9.803 -0.7813  0.3451 -0.1640
   23SAPC  C211 3033   3.871   3.194   9.632 -0.2736 -0.4778 -0.7685
   23SAPC  H11R 3034   3.847   3.299   9.649  1.8241 -0.0269 -0.3027
   23SAPC  C212 3035   3.824   3.128   9.519  0.2960  0.2561 -0.1355
   23SAPC  H12R 3036   3.768   3.189   9.446 -2.7698 -1.3031  0.7286
   23SAPC  C213 3037   3.831   2.976   9.494 -0.2285 -0.1819  0.0801
   23SAPC  H13R 3038   3.737   2.945   9.443 -0.5236  0.5393  0.1792
   23SAPC  H13S 3039   3.842   2.932   9.595  0.7231  0.4450  0.2643
   23SAPC  C214 3040   3.956   2.932   9.417 -0.0965  0.3482  0.6803
   23SAPC  H14R 3041   4.050   2.954   9.469  0.2811 -2.6252  1.4209
   23SAPC  C215 3042   3.958   2.868   9.290 -0.0191 -0.5177  0.1691
   23SAPC  H15R 3043   4.058   2.839   9.254 -1.0340 -1.9727 -1.6311
   23SAPC  C216 3044   3.842   2.823   9.210  0.0219  0.1644 -0.3696
   23SAPC  H16R 3045   3.832   2.875   9.113 -1.8551 -1.7786 -1.2979
   23SAPC  H16S 3046   3.743   2.829   9.262 -0.6760 -1.5035 -1.4167
   23SAPC  C217 3047   3.868   2.679   9.185  0.2600  0.4203  0.0219
   23SAPC  H17R 3048   3.878   2.633   9.285  0.2001  1.1158  0.3566
   23SAPC  H17S 3049   3.966   2.660   9.137  0.7028 -1.2232  1.4913
   23SAPC  C218 3050   3.759   2.623   9.086  0.1086  0.2371 -0.2124
   23SAPC  H18R 3051   3.668   2.685   9.102  1.1960  1.9854 -0.5470
   23SAPC  H18S 3052   3.725   2.519   9.104  0.3621  0.5298  2.2381
   23SAPC  C219 3053   3.815   2.644   8.937 -0.6943 -0.5094 -0.1214
   23SAPC  H19R 3054   3.897   2.573   8.914  0.5405 -0.3192  3.2065
   23SAPC  H19S 3055   3.854   2.748   8.935  1.2467 -1.1110  2.4444
   23SAPC  C220 3056   3.711   2.629   8.828 -0.3681  0.1024 -0.1237
   23SAPC  H20R 3057   3.647   2.543   8.858 -1.6959  1.3181  0.6242
   23SAPC  H20S 3058   3.762   2.604   8.732  1.4458  0.3965  0.7162
   23SAPC  H20T 3059   3.641   2.715   8.826 -2.0765 -1.2264  0.1546
   23SAPC   C33 3060   4.039   3.568  10.172  0.0112  0.4302 -0.0410
   23SAPC   H3X 3061   4.089   3.473  10.145 -1.4171 -0.4755  0.3904
   23SAPC   H3Y 3062   4.123   3.639  10.185  0.0493  0.2751  0.6387
   23SAPC   C34 3063   3.944   3.627  10.052  0.1118  0.0396  0.0866
   23SAPC   H4X 3064   3.917   3.730  10.085 -1.0278 -0.4225  0.6648
   23SAPC   H4Y 3065   3.851   3.566  10.043  0.5675 -0.5661 -0.6305
   23SAPC   C35 3066   4.022   3.634   9.915  0.3635 -0.0675 -0.5340
   23SAPC   H5X 3067   4.056   3.528   9.911  1.7567  0.3601 -0.8150
   23SAPC   H5Y 3068   4.109   3.701   9.934 -0.1620 -0.1926  2.8097
   23SAPC   C36 3069   3.925   3.683   9.806  0.0796  0.6786  0.4816
   23SAPC   H6X 3070   3.934   3.793   9.791 -0.5957  0.4840 -1.6373
   23SAPC   H6Y 3071   3.819   3.661   9.829  0.1510  1.6141  1.8747
   23SAPC   C37 3072   3.960   3.628   9.669 -0.5068  0.0657 -0.3144
   23SAPC   H7X 3073   3.943   3.518   9.664 -0.4386 -0.0115  0.9413
   23SAPC   H7Y 3074   4.067   3.650   9.648 -0.5509 -1.0215 -1.8543
   23SAPC   C38 3075   3.879   3.700   9.559  0.8965  0.5838 -0.2208
   23SAPC   H8X 3076   3.863   3.806   9.590  0.7743  0.6774 -0.5984
   23SAPC   H8Y 3077   3.778   3.653   9.562  0.6359  1.1494  1.4783
   23SAPC   C39 3078   3.932   3.699   9.417  0.0733  0.5099  0.2394
   23SAPC   H9X 3079   4.035   3.738   9.402  1.3746 -1.9442  2.0798
   23SAPC   H9Y 3080   3.877   3.761   9.342 -1.3495  0.4087  1.1565
   23SAPC  C310 3081   3.934   3.557   9.350 -0.5399 -0.0995 -0.6894
   23SAPC  H10X 3082   3.840   3.500   9.338 -0.4830 -0.1185 -1.0594
   23SAPC  H10Y 3083   3.991   3.491   9.420 -1.6507 -1.6590 -1.2144
   23SAPC  C311 3084   4.026   3.558   9.225 -0.1148  0.2032  1.2500
   23SAPC  H11X 3085   4.122   3.609   9.246  0.5128 -0.2523 -0.3813
   23SAPC  H11Y 3086   3.991   3.628   9.147  3.3228  0.5676 -0.1207
   23SAPC  C312 3087   4.036   3.418   9.151 -0.2160 -0.4558  0.7181
   23SAPC  H12X 3088   4.094   3.345   9.210  0.9253 -2.0650 -2.1909
   23SAPC  H12Y 3089   4.102   3.431   9.062  1.1318 -2.2230  1.4008
   23SAPC  C313 3090   3.904   3.366   9.091  0.7602 -0.1369  0.4487
   23SAPC  H13X 3091   3.875   3.424   9.001  1.6324  0.6554  0.6601
   23SAPC  H13Y 3092   3.816   3.362   9.159  1.4506 -2.0757  1.3163
   23SAPC  C314 3093   3.916   3.227   9.032 -0.3582  0.0579  0.1581
   23SAPC  H14X 3094   3.918   3.141   9.103 -1.3273  1.1048  1.5090
   23SAPC  H14Y 3095   4.010   3.211   8.975 -1.1725 -0.4647 -1.0810
   23SAPC  C315 3096   3.793   3.200   8.946  0.5486  0.1000  0.5741
   23SAPC  H15X 3097   3.764   3.287   8.884 -2.4991  0.0454  1.6976
   23SAPC  H15Y 3098   3.703   3.195   9.012  0.3841  0.1489  0.3553
   23SAPC  C316 3099   3.808   3.071   8.862  0.5685 -0.8664 -0.3705
   23SAPC  H16X 3100   3.806   2.982   8.929 -2.0167  0.8558  2.0791
   23SAPC  H16Y 3101   3.902   3.074   8.804 -0.1459 -1.9267 -1.6527
   23SAPC  C317 3102   3.695   3.057   8.753  0.4162  0.5799 -0.4904
   23SAPC  H17X 3103   3.714   2.962   8.697  0.2762 -0.0680  0.5269
   23SAPC  H17Y 3104   3.683   3.133   8.673 -0.9537  1.7428  0.7654
   23SAPC  C318 3105   3.561   3.040   8.829  0.3311 -0.2372 -0.1707
   23SAPC  H18X 3106   3.572   2.979   8.922  2.0432  0.7982  0.3563
   23SAPC  H18Y 3107   3.482   2.994   8.766  0.9316 -2.9410  0.8984
   23SAPC  H18Z 3108   3.519   3.132   8.873 -1.3756 -0.9326 -0.2842
   24SAPC     N 3109   0.111   1.836  11.390 -0.0634 -0.5293  0.1325
   24SAPC   C12 3110   0.260   1.815  11.342  0.6138  0.1596  0.2724
   24SAPC  H12A 3111   0.249   1.828  11.235 -0.8631 -2.1320  0.0663
   24SAPC  H12B 3112   0.292   1.716  11.372 -0.2720 -0.5766 -1.1129
   24SAPC   C13 3113   0.055   1.948  11.310 -0.7032  0.3688  0.0027
   24SAPC  H13A 3114   0.114   2.037  11.324 -0.2758  0.0151  0.4741
   24SAPC  H13B 3115   0.051   1.921  11.205 -0.3166  1.5185 -0.3265
   24SAPC  H13C 3116  -0.046   1.962  11.348 -0.8202 -1.1832  0.3331
   24SAPC   C14 3117   0.029   1.715  11.369 -0.8941 -0.5724 -0.5589
   24SAPC  H14A 3118   0.045   1.675  11.271  2.1743 -0.2810 -0.2604
   24SAPC  H14B 3119   0.055   1.639  11.441  4.2833  1.6434  0.3770
   24SAPC  H14C 3120  -0.075   1.738  11.389 -0.3274 -0.1684  2.5691
   24SAPC   C15 3121   0.114   1.868  11.539  0.7415  0.3690  0.3588
   24SAPC  H15A 3122   0.169   1.785  11.580 -0.2631 -0.4126  0.1689
   24SAPC  H15B 3123   0.168   1.960  11.555  1.3693  0.0641  0.0161
   24SAPC  H15C 3124   0.019   1.872  11.591  0.3287  1.5407 -0.4584
   24SAPC   C11 3125   0.364   1.910  11.388 -0.8980 -0.5742 -0.4619
   24SAPC  H11A 3126   0.465   1.886  11.349  0.2199  1.2332  1.1295
   24SAPC  H11B 3127   0.374   1.898  11.498  0.6713 -0.9074 -0.6113
   24SAPC     P 3128   0.378   2.087  11.198  0.2480  0.3011  0.2273
   24SAPC   O13 3129   0.263   2.151  11.125 -0.2350  0.0023  0.9551
   24SAPC   O14 3130   0.507   2.153  11.196  0.3458 -0.1349  0.2589
   24SAPC   O12 3131   0.341   2.049  11.349 -0.0079 -0.3938 -0.1145
   24SAPC   O11 3132   0.393   1.951  11.128  0.5515 -0.2548  0.4359
   24SAPC    C1 3133   0.517   1.916  11.059 -0.4579 -0.5646  0.0613
   24SAPC    HA 3134   0.606   1.923  11.125 -0.1281  2.0305 -0.5667
   24SAPC    HB 3135   0.522   1.809  11.030  4.0172 -0.2179 -1.1213
   24SAPC    C2 3136   0.543   1.983  10.915 -0.0364 -0.3559 -0.3137
   24SAPC    HS 3137   0.545   2.090  10.946 -1.8432 -1.3683  4.1117
   24SAPC   O21 3138   0.431   1.951  10.835 -0.0126 -0.3293 -0.1724
   24SAPC   C21 3139   0.411   2.038  10.732 -0.5544  0.1202 -0.1193
   24SAPC   O22 3140   0.486   2.135  10.711  0.2223  0.5380 -0.0196
   24SAPC   C22 3141   0.286   1.990  10.658 -0.5769  0.4036 -0.1769
   24SAPC   H2R 3142   0.248   1.889  10.681 -2.7790  1.6947  2.4549
   24SAPC   H2S 3143   0.206   2.051  10.705 -0.0812  0.5013  0.5474
   24SAPC    C3 3144   0.681   1.928  10.866  0.1619 -0.0983 -0.5890
   24SAPC    HX 3145   0.679   1.817  10.858 -0.4048 -0.0527 -1.1621
   24SAPC    HY 3146   0.754   1.951  10.947 -0.7225 -1.1289  0.5610
   24SAPC   O31 3147   0.718   1.970  10.734  0.3135 -0.4926 -0.4877
   24SAPC   C31 3148   0.781   2.086  10.741  0.4144 -0.8772  0.3107
   24SAPC   O32 3149   0.806   2.148  10.845 -0.4201 -0.1904 -0.3501
   24SAPC   C32 3150   0.829   2.121  10.596 -0.0474 -0.0293 -0.3183
   24SAPC   H2X 3151   0.925   2.065  10.593 -0.0723 -0.1776  0.9478
   24SAPC   H2Y 3152   0.868   2.224  10.606 -1.4081  0.3459  1.9067
   24SAPC   C23 3153   0.301   2.020  10.505 -0.1092  0.1815 -0.6124
   24SAPC   H3R 3154   0.401   1.976  10.484 -0.0695 -0.4350  0.7319
   24SAPC   H3S 3155   0.316   2.128  10.483 -1.2963  0.5679  0.3357
   24SAPC   C24 3156   0.180   1.981  10.424  0.0512 -0.5029  0.5484
   24SAPC   H4R 3157   0.151   1.875  10.444 -1.9173 -0.1935 -0.4179
   24SAPC   H4S 3158   0.200   1.981  10.315 -1.3488  1.4586  0.2566
   24SAPC   C25 3159   0.067   2.080  10.457  0.5052 -0.4640 -0.1286
   24SAPC   H5R 3160   0.020   2.075  10.557  1.0303  1.0874  0.2279
   24SAPC   C26 3161   0.012   2.167  10.367 -0.2228 -0.7043 -0.3503
   24SAPC   H6R 3162  -0.061   2.242  10.401  0.1892 -0.5312  0.1694
   24SAPC   C27 3163   0.062   2.187  10.225 -0.5183  0.0621  0.3942
   24SAPC   H7R 3164   0.136   2.116  10.185 -1.2233  1.0310 -2.9324
   24SAPC   H7S 3165   0.115   2.284  10.215  1.5324 -1.0589  0.0210
   24SAPC   C28 3166  -0.064   2.182  10.131  0.0037 -1.0636  0.2892
   24SAPC   H8R 3167  -0.143   2.116  10.167 -3.1505  2.3226  0.1644
   24SAPC   C29 3168  -0.077   2.252  10.012  0.9195 -0.1374  0.5552
   24SAPC   H9R 3169  -0.171   2.255   9.956  0.9549  1.9006  0.5163
   24SAPC  C210 3170   0.022   2.342   9.942  0.2139 -0.0662 -0.3539
   24SAPC  H10R 3171   0.112   2.365  10.003 -0.8142  0.8057  0.8838
   24SAPC  H10S 3172  -0.024   2.443   9.935  2.7483  1.3314  1.5355
   24SAPC  C211 3173   0.066   2.277   9.815  0.4440  0.5829  0.2659
   24SAPC  H11R 3174   0.143   2.199   9.825  1.7194  1.8417  0.5241
   24SAPC  C212 3175   0.034   2.305   9.687  0.2773 -0.3619  0.1162
   24SAPC  H12R 3176   0.073   2.239   9.608  2.8310  0.0136  0.9695
   24SAPC  C213 3177  -0.064   2.414   9.653 -0.1041  0.3426  0.0854
   24SAPC  H13R 3178  -0.012   2.493   9.594 -2.2451  1.1756 -0.7850
   24SAPC  H13S 3179  -0.084   2.476   9.743 -0.4247  1.8205 -0.9735
   24SAPC  C214 3180  -0.197   2.369   9.592  0.1217 -0.0599 -0.2826
   24SAPC  H14R 3181  -0.259   2.304   9.655 -2.5775  1.0346 -1.6448
   24SAPC  C215 3182  -0.254   2.408   9.475  0.2702 -0.2636  0.0445
   24SAPC  H15R 3183  -0.360   2.388   9.453 -0.3409  0.4878  2.1221
   24SAPC  C216 3184  -0.196   2.504   9.369 -0.2531 -0.5500  0.2094
   24SAPC  H16R 3185  -0.087   2.520   9.384  0.6583 -4.6748 -0.7453
   24SAPC  H16S 3186  -0.251   2.600   9.356  0.6167 -0.0548  0.1162
   24SAPC  C217 3187  -0.193   2.436   9.230 -0.3736  0.3279 -0.3250
   24SAPC  H17R 3188  -0.219   2.510   9.151  0.1530  2.3555  1.3294
   24SAPC  H17S 3189  -0.275   2.361   9.220  1.1656 -1.4461 -0.1596
   24SAPC  C218 3190  -0.070   2.352   9.199  0.5118  0.2000 -0.0876
   24SAPC  H18R 3191  -0.086   2.304   9.100 -2.8741 -0.5086  0.6667
   24SAPC  H18S 3192  -0.061   2.283   9.286  0.6419  0.5698  0.1903
   24SAPC  C219 3193   0.066   2.432   9.185  0.8189 -0.4936  0.3130
   24SAPC  H19R 3194   0.103   2.477   9.280  0.1507  2.7401 -0.8475
   24SAPC  H19S 3195   0.044   2.515   9.115  2.4983 -1.3228 -1.2602
   24SAPC  C220 3196   0.164   2.344   9.120  0.4981  0.0466  0.2625
   24SAPC  H20R 3197   0.262   2.396   9.115  0.5672  0.2662  2.6769
   24SAPC  H20S 3198   0.119   2.313   9.023  0.9381 -0.3020  0.1672
   24SAPC  H20T 3199   0.181   2.250   9.177 -0.6055 -1.0849 -1.1878
   24SAPC   C33 3200   0.727   2.104  10.482 -0.4712 -0.1008 -0.2146
   24SAPC   H3X 3201   0.649   2.034  10.516  1.3055 -0.3795  3.8264
   24SAPC   H3Y 3202   0.790   2.076  10.395 -1.5548 -0.2346 -0.9779
   24SAPC   C34 3203   0.655   2.239  10.457 -0.0856  0.1740  0.6916
   24SAPC   H4X 3204   0.732   2.316  10.434 -1.9549  1.2093 -2.7988
   24SAPC   H4Y 3205   0.591   2.259  10.545 -1.9934 -0.9746 -0.3581
   24SAPC   C35 3206   0.571   2.227  10.332  0.1654 -0.4842  0.9528
   24SAPC   H5X 3207   0.505   2.315  10.311  1.9505  0.4040 -1.5020
   24SAPC   H5Y 3208   0.508   2.136  10.341  1.8140 -1.8082 -0.2418
   24SAPC   C36 3209   0.659   2.206  10.198 -0.8400 -0.3935  0.3683
   24SAPC   H6X 3210   0.721   2.114  10.210  1.3631  1.2981  3.1700
   24SAPC   H6Y 3211   0.732   2.288  10.193 -2.0653  0.6549 -1.4532
   24SAPC   C37 3212   0.576   2.193  10.068 -0.2688  0.4114 -0.6142
   24SAPC   H7X 3213   0.500   2.117  10.094 -0.1389  0.4388 -0.1424
   24SAPC   H7Y 3214   0.631   2.147   9.982 -2.6079 -1.5256 -1.1794
   24SAPC   C38 3215   0.528   2.324  10.022 -0.1421  0.7307 -0.2482
   24SAPC   H8X 3216   0.606   2.403  10.027  0.6275 -0.0871  2.3647
   24SAPC   H8Y 3217   0.452   2.350  10.099  2.4086  0.8495  2.3894
   24SAPC   C39 3218   0.453   2.319   9.892 -0.8479  0.3594 -0.0723
   24SAPC   H9X 3219   0.415   2.422   9.871  0.5242  0.4121 -2.6960
   24SAPC   H9Y 3220   0.367   2.249   9.903 -0.8914 -0.0851 -2.5305
   24SAPC  C310 3221   0.540   2.274   9.768 -0.3690 -0.6421  0.2638
   24SAPC  H10X 3222   0.607   2.187   9.789 -0.3173 -0.5709  0.3912
   24SAPC  H10Y 3223   0.608   2.357   9.742 -2.3541  0.7829 -0.6188
   24SAPC  C311 3224   0.452   2.229   9.653  0.1711 -0.5601  0.7261
   24SAPC  H11X 3225   0.394   2.321   9.630  1.5758  1.5185  4.6031
   24SAPC  H11Y 3226   0.386   2.147   9.690 -0.3250  0.1123  1.3432
   24SAPC  C312 3227   0.540   2.189   9.527  0.2782 -0.0899  0.5018
   24SAPC  H12X 3228   0.594   2.094   9.547  2.1278  0.6259 -0.8437
   24SAPC  H12Y 3229   0.625   2.257   9.504 -1.0522  0.9491 -1.7281
   24SAPC  C313 3230   0.443   2.192   9.407 -0.3899  0.5746  0.6084
   24SAPC  H13X 3231   0.389   2.288   9.392 -0.2135  0.4274 -1.2782
   24SAPC  H13Y 3232   0.372   2.107   9.415  0.7499 -0.5487 -0.5756
   24SAPC  C314 3233   0.504   2.159   9.264  1.2678  0.3248  0.1778
   24SAPC  H14X 3234   0.433   2.188   9.184  2.5820  1.5978 -0.5827
   24SAPC  H14Y 3235   0.523   2.050   9.258  1.8960  0.4573 -0.3761
   24SAPC  C315 3236   0.629   2.244   9.228 -0.1308 -0.0154 -0.2753
   24SAPC  H15X 3237   0.708   2.211   9.299  1.2583  2.9555 -0.3041
   24SAPC  H15Y 3238   0.608   2.352   9.242  0.7210 -0.0404  1.5128
   24SAPC  C316 3239   0.686   2.221   9.084  0.5478 -0.5426  0.0422
   24SAPC  H16X 3240   0.720   2.115   9.083 -1.2210 -1.1492  0.7227
   24SAPC  H16Y 3241   0.774   2.289   9.074  0.4536  0.0378  2.5098
   24SAPC  C317 3242   0.580   2.239   8.975 -1.0559 -0.4333 -0.5315
   24SAPC  H17X 3243   0.553   2.346   8.980  1.0962  0.1753 -1.0762
   24SAPC  H17Y 3244   0.489   2.176   8.987  0.1574 -2.1202  0.3211
   24SAPC  C318 3245   0.638   2.215   8.843 -0.5278  0.3380 -0.2924
   24SAPC  H18X 3246   0.569   2.256   8.767  0.7732  0.8815 -1.2137
   24SAPC  H18Y 3247   0.662   2.108   8.827 -0.9693  0.2500 -0.3892
   24SAPC  H18Z 3248   0.735   2.268   8.833 -0.6554  0.3659 -1.6527
   25SAPC     N 3249   3.970   0.126   6.024  0.2675  0.2875  0.4123
   25SAPC   C12 3250   3.911   0.181   6.156 -0.0035  0.2408  0.1045
   25SAPC  H12A 3251   3.819   0.233   6.136  0.1016  0.9493  1.3287
   25SAPC  H12B 3252   3.977   0.262   6.184  1.1676 -0.3843 -0.7136
   25SAPC   C13 3253   3.888   0.005   5.969 -0.0182  0.1513 -0.0319
   25SAPC  H13A 3254   3.938  -0.036   5.883 -0.3292  0.1580 -0.2166
   25SAPC  H13B 3255   3.866  -0.066   6.047 -0.0427  1.5109  1.2372
   25SAPC  H13C 3256   3.789   0.046   5.953 -0.5799 -1.0833  0.1849
   25SAPC   C14 3257   3.999   0.237   5.925  0.1171  1.1327 -0.0138
   25SAPC  H14A 3258   4.051   0.207   5.835 -0.9550 -0.2603 -0.1910
   25SAPC  H14B 3259   3.909   0.292   5.903 -1.5947 -1.1797  0.8289
   25SAPC  H14C 3260   4.071   0.299   5.977  2.3092 -1.4923  0.2734
   25SAPC   C15 3261   4.110   0.060   6.062  0.2318 -0.2651  0.3192
   25SAPC  H15A 3262   4.147   0.015   5.971 -2.8330 -1.1422 -0.6019
   25SAPC  H15B 3263   4.177   0.134   6.104 -0.3472  0.2516  0.3487
   25SAPC  H15C 3264   4.094  -0.014   6.139  1.4492 -1.8643 -0.8883
   25SAPC   C11 3265   3.896   0.091   6.276 -0.4290  0.0495 -0.0156
   25SAPC  H11A 3266   3.859   0.152   6.362  2.5229 -0.7714  2.0005
   25SAPC  H11B 3267   3.992   0.056   6.318 -1.3068 -0.7009  1.4418
   25SAPC     P 3268   3.664  -0.019   6.258 -0.0043  0.2131  0.5015
   25SAPC   O13 3269   3.621   0.119   6.220  0.2753  0.0089  0.2398
   25SAPC   O14 3270   3.596  -0.125   6.174 -0.3072  0.1873 -0.7859
   25SAPC   O12 3271   3.823  -0.030   6.261 -0.4084  0.1807 -0.4127
   25SAPC   O11 3272   3.632  -0.040   6.403 -0.5175  0.0001  0.4780
   25SAPC    C1 3273   3.672  -0.160   6.481  0.4016 -0.5034 -0.6813
   25SAPC    HA 3274   3.762  -0.211   6.441  0.5799  0.2882 -1.3255
   25SAPC    HB 3275   3.677  -0.127   6.587  0.3164 -0.5523 -0.6623
   25SAPC    C2 3276   3.551  -0.259   6.502  0.2802  0.3173 -0.0174
   25SAPC    HS 3277   3.522  -0.288   6.399 -0.9612 -1.0039  0.6594
   25SAPC   O21 3278   3.435  -0.197   6.564  0.1163 -0.4096  0.0176
   25SAPC   C21 3279   3.331  -0.273   6.578 -0.2913  0.1146 -0.1514
   25SAPC   O22 3280   3.310  -0.371   6.510 -0.2778 -0.2309  0.1135
   25SAPC   C22 3281   3.228  -0.206   6.673  0.0264 -0.4378  0.5500
   25SAPC   H2R 3282   3.274  -0.156   6.761 -0.0839  0.2555  0.2193
   25SAPC   H2S 3283   3.183  -0.127   6.610 -1.9695  1.1994  3.7697
   25SAPC    C3 3284   3.605  -0.381   6.581 -0.5838 -0.5847 -0.5502
   25SAPC    HX 3285   3.703  -0.408   6.538  0.3478  0.4870  0.8085
   25SAPC    HY 3286   3.545  -0.471   6.557 -0.8658 -0.3362 -0.7898
   25SAPC   O31 3287   3.624  -0.349   6.722 -0.3504 -0.7652 -0.1980
   25SAPC   C31 3288   3.565  -0.426   6.815  0.7681 -0.1712  0.0882
   25SAPC   O32 3289   3.487  -0.516   6.794  0.5058  0.4009 -0.4063
   25SAPC   C32 3290   3.611  -0.386   6.950 -0.7487 -0.5479  0.0594
   25SAPC   H2X 3291   3.661  -0.286   6.945 -0.8628 -0.4750  0.3303
   25SAPC   H2Y 3292   3.694  -0.457   6.969 -0.1093  0.1751  0.0541
   25SAPC   C23 3293   3.112  -0.304   6.718  0.1265  1.1108  0.7725
   25SAPC   H3R 3294   3.064  -0.341   6.624 -0.2677  2.2548  0.4998
   25SAPC   H3S 3295   3.035  -0.246   6.773 -2.0914  0.7896 -1.7774
   25SAPC   C24 3296   3.159  -0.423   6.805  0.3049 -0.3118 -0.5814
   25SAPC   H4R 3297   3.214  -0.382   6.893  1.7068 -0.6944 -1.2561
   25SAPC   H4S 3298   3.241  -0.466   6.744  1.8359  1.5078  0.1066
   25SAPC   C25 3299   3.050  -0.529   6.833 -0.1897  0.1274 -0.6264
   25SAPC   H5R 3300   2.971  -0.538   6.758 -1.4099  0.0156  0.6322
   25SAPC   C26 3301   3.048  -0.620   6.937 -0.4083  0.1478 -0.3200
   25SAPC   H6R 3302   2.970  -0.698   6.939 -0.4305  0.1901  0.9782
   25SAPC   C27 3303   3.158  -0.640   7.037  0.3714 -0.2885 -0.3187
   25SAPC   H7R 3304   3.129  -0.597   7.135 -2.4453 -0.2573 -1.0871
   25SAPC   H7S 3305   3.234  -0.567   7.002 -0.6602  0.9023 -0.1186
   25SAPC   C28 3306   3.217  -0.773   7.053  0.2408 -1.0095  0.2645
   25SAPC   H8R 3307   3.247  -0.816   6.956  0.9755 -1.5158  0.7033
   25SAPC   C29 3308   3.237  -0.834   7.170  0.0720  0.4207 -0.4797
   25SAPC   H9R 3309   3.287  -0.932   7.171 -0.0210  0.3680 -1.1236
   25SAPC  C210 3310   3.207  -0.798   7.312  0.3070 -0.3761  0.4934
   25SAPC  H10R 3311   3.175  -0.885   7.373 -0.8788 -0.3708 -0.0898
   25SAPC  H10S 3312   3.123  -0.725   7.321 -0.8952 -1.5190 -0.8078
   25SAPC  C211 3313   3.325  -0.743   7.388  0.9488  0.0552  0.8864
   25SAPC  H11R 3314   3.406  -0.703   7.327 -0.5099  0.8990 -0.5831
   25SAPC  C212 3315   3.342  -0.732   7.518  0.5816  0.3161  0.1842
   25SAPC  H12R 3316   3.434  -0.690   7.561 -0.2681  2.5390 -0.0564
   25SAPC  C213 3317   3.252  -0.784   7.625  0.2528 -0.1161  0.1073
   25SAPC  H13R 3318   3.308  -0.841   7.703 -2.3025 -1.1825  1.2738
   25SAPC  H13S 3319   3.182  -0.857   7.578  0.0126 -0.5306  1.0868
   25SAPC  C214 3320   3.171  -0.670   7.684  0.6174 -0.2465  0.5373
   25SAPC  H14R 3321   3.088  -0.634   7.621  0.2337 -1.8797  0.0647
   25SAPC  C215 3322   3.170  -0.624   7.812 -0.3373  0.6422 -0.2469
   25SAPC  H15R 3323   3.108  -0.536   7.836  0.5060  0.9062  1.0675
   25SAPC  C216 3324   3.252  -0.669   7.933  0.6024  0.4551  0.0917
   25SAPC  H16R 3325   3.358  -0.686   7.906  0.6086  2.7176 -1.6293
   25SAPC  H16S 3326   3.218  -0.765   7.978 -0.7495  1.5698  1.5395
   25SAPC  C217 3327   3.247  -0.564   8.041 -0.3758 -0.3919  0.4042
   25SAPC  H17R 3328   3.268  -0.466   7.993 -1.3979  0.1005  0.9048
   25SAPC  H17S 3329   3.320  -0.587   8.121 -2.2646 -0.8935  2.0811
   25SAPC  C218 3330   3.111  -0.546   8.105  0.9753 -0.0420  0.0891
   25SAPC  H18R 3331   3.080  -0.636   8.162 -0.2856 -0.5923 -1.4157
   25SAPC  H18S 3332   3.033  -0.537   8.027  0.2340 -1.3456  0.6448
   25SAPC  C219 3333   3.091  -0.430   8.201  0.7425 -0.3412 -0.0136
   25SAPC  H19R 3334   3.108  -0.341   8.137  0.1782 -1.2030 -1.3913
   25SAPC  H19S 3335   3.166  -0.436   8.283  1.3929  1.2152 -0.4602
   25SAPC  C220 3336   2.948  -0.428   8.254 -0.5428  0.5944 -0.2014
   25SAPC  H20R 3337   2.929  -0.515   8.320 -0.1580  1.9075  1.7291
   25SAPC  H20S 3338   2.879  -0.456   8.171  0.4322 -0.8530 -0.5822
   25SAPC  H20T 3339   2.933  -0.337   8.316  1.7028  0.7975  0.1281
   25SAPC   C33 3340   3.523  -0.397   7.074  0.0743  0.0476  0.1133
   25SAPC   H3X 3341   3.593  -0.428   7.154  0.6278  0.7227 -0.1007
   25SAPC   H3Y 3342   3.447  -0.471   7.041 -0.9868  0.6001  1.2177
   25SAPC   C34 3343   3.462  -0.268   7.119 -0.1718 -0.2869 -0.4104
   25SAPC   H4X 3344   3.414  -0.224   7.029 -1.7941  0.7960  0.9190
   25SAPC   H4Y 3345   3.547  -0.201   7.143 -1.0108 -0.0941  2.3124
   25SAPC   C35 3346   3.379  -0.278   7.252  0.1867 -0.7847 -0.3929
   25SAPC   H5X 3347   3.289  -0.340   7.237  1.0401 -2.4385  0.9564
   25SAPC   H5Y 3348   3.352  -0.179   7.293  1.4811 -0.8938  0.8227
   25SAPC   C36 3349   3.459  -0.347   7.365 -0.5379 -0.0589 -0.0455
   25SAPC   H6X 3350   3.547  -0.281   7.381 -0.3147 -0.0852 -1.0891
   25SAPC   H6Y 3351   3.492  -0.447   7.332  0.4985 -0.3572  1.7373
   25SAPC   C37 3352   3.373  -0.352   7.500 -0.3956  0.1189  0.0019
   25SAPC   H7X 3353   3.441  -0.409   7.567  0.1811 -0.2628 -0.8784
   25SAPC   H7Y 3354   3.278  -0.411   7.495 -1.6740  2.1195 -0.3510
   25SAPC   C38 3355   3.346  -0.222   7.571  0.1908  0.5974 -0.0342
   25SAPC   H8X 3356   3.297  -0.137   7.519 -1.8338 -0.6931 -0.3278
   25SAPC   H8Y 3357   3.441  -0.177   7.607  0.2416  0.8442 -0.4671
   25SAPC   C39 3358   3.272  -0.253   7.700  0.0714 -0.0541  0.1814
   25SAPC   H9X 3359   3.317  -0.338   7.755  0.2889 -0.0969 -0.0601
   25SAPC   H9Y 3360   3.166  -0.285   7.685  0.0886 -0.0375  0.0176
   25SAPC  C310 3361   3.270  -0.135   7.793  0.2691  0.0408 -0.3288
   25SAPC  H10X 3362   3.214  -0.050   7.749 -1.1816 -0.7921 -0.1311
   25SAPC  H10Y 3363   3.376  -0.105   7.807  0.5383 -0.4977 -1.1298
   25SAPC  C311 3364   3.208  -0.161   7.930 -0.0829  0.1089  0.4746
   25SAPC  H11X 3365   3.269  -0.237   7.984 -1.6637 -0.1463  1.9624
   25SAPC  H11Y 3366   3.100  -0.182   7.922 -0.1099 -0.1404  1.3970
   25SAPC  C312 3367   3.218  -0.044   8.021 -0.1138  0.3551  0.1754
   25SAPC  H12X 3368   3.172  -0.079   8.116 -0.3011 -0.9897 -0.3818
   25SAPC  H12Y 3369   3.153   0.037   7.981 -1.8975  0.0536  2.2328
   25SAPC  C313 3370   3.362   0.015   8.049  1.0421  0.3181  0.3583
   25SAPC  H13X 3371   3.431   0.026   7.962  2.2195 -0.7471  1.1239
   25SAPC  H13Y 3372   3.413  -0.041   8.130  2.0104 -2.3227 -1.9141
   25SAPC  C314 3373   3.359   0.164   8.096  0.1524 -0.2250 -0.3122
   25SAPC  H14X 3374   3.271   0.164   8.165  0.9296 -1.9533  0.7496
   25SAPC  H14Y 3375   3.352   0.235   8.011  1.0812  0.1898 -0.0545
   25SAPC  C315 3376   3.490   0.203   8.170 -0.2402  0.2425  0.4705
   25SAPC  H15X 3377   3.565   0.214   8.089  0.3045 -2.8768  0.3912
   25SAPC  H15Y 3378   3.522   0.122   8.240 -0.2993  0.9336  1.3104
   25SAPC  C316 3379   3.473   0.330   8.252 -0.1308 -0.8890 -0.6911
   25SAPC  H16X 3380   3.404   0.308   8.336  0.8101  0.3611  0.4537
   25SAPC  H16Y 3381   3.420   0.395   8.180 -2.3646 -1.6140  0.2243
   25SAPC  C317 3382   3.609   0.389   8.304  0.0864  0.1357 -0.8403
   25SAPC  H17X 3383   3.676   0.416   8.220  0.8740  0.0568 -0.2570
   25SAPC  H17Y 3384   3.660   0.301   8.350  1.1573  0.6914 -0.9261
   25SAPC  C318 3385   3.608   0.506   8.402  0.0491  0.2361 -0.5556
   25SAPC  H18X 3386   3.711   0.542   8.423 -0.2209  1.1238 -0.7260
   25SAPC  H18Y 3387   3.566   0.476   8.500 -0.2521 -1.9446 -1.2854
   25SAPC  H18Z 3388   3.539   0.588   8.374  1.5259  2.3376  1.5792
   26SAPC     N 3389   3.846   2.878   6.066  0.6401 -0.4929 -0.1491
   26SAPC   C12 3390   3.757   2.819   6.179  0.4366 -0.1815  0.1192
   26SAPC  H12A 3391   3.817   2.744   6.229  1.3905 -0.9191 -2.0301
   26SAPC  H12B 3392   3.675   2.763   6.139  1.5314 -2.2511  0.6275
   26SAPC   C13 3393   3.969   2.948   6.120 -1.0971  0.5425 -0.2555
   26SAPC  H13A 3394   4.023   2.973   6.029 -2.1716  1.0207 -0.7857
   26SAPC  H13B 3395   3.935   3.022   6.190 -0.3573 -0.7321  1.5217
   26SAPC  H13C 3396   4.024   2.885   6.189 -0.2834  2.3240  0.7883
   26SAPC   C14 3397   3.890   2.774   5.978  0.2627 -0.0649 -0.0804
   26SAPC  H14A 3398   3.950   2.692   6.015 -0.1956 -0.6302 -0.5705
   26SAPC  H14B 3399   3.802   2.726   5.938  1.3554 -0.7710 -1.7128
   26SAPC  H14C 3400   3.923   2.821   5.887  0.4553 -0.1825 -0.0696
   26SAPC   C15 3401   3.773   2.987   5.992  0.2797  0.0909 -0.6089
   26SAPC  H15A 3402   3.765   3.077   6.052 -2.4472  0.7965 -1.8973
   26SAPC  H15B 3403   3.826   3.025   5.906 -0.1574  1.6765 -0.2174
   26SAPC  H15C 3404   3.672   2.956   5.971 -0.0249 -1.6685  2.7623
   26SAPC   C11 3405   3.698   2.920   6.280 -0.0021  0.2907  0.8097
   26SAPC  H11A 3406   3.647   2.860   6.359 -0.0237 -0.0659  0.5275
   26SAPC  H11B 3407   3.617   2.980   6.233  0.6759 -0.5052 -1.5453
   26SAPC     P 3408   3.827   3.023   6.491  0.2750  0.3548 -0.4958
   26SAPC   O13 3409   3.949   3.105   6.499  0.2548 -0.3676  0.4242
   26SAPC   O14 3410   3.705   3.064   6.563 -0.5322 -0.0766  0.5230
   26SAPC   O12 3411   3.789   3.011   6.335 -0.3776  0.1306 -0.3009
   26SAPC   O11 3412   3.870   2.876   6.521  0.0311  0.0038 -0.4058
   26SAPC    C1 3413   3.791   2.776   6.583 -0.3613  0.0566  0.3414
   26SAPC    HA 3414   3.683   2.785   6.557 -0.2574 -0.9407 -0.4560
   26SAPC    HB 3415   3.819   2.678   6.540 -1.9594 -0.5033  0.5150
   26SAPC    C2 3416   3.812   2.762   6.729  0.4020 -0.6599 -0.4497
   26SAPC    HS 3417   3.742   2.682   6.758 -0.8505  0.0866 -1.3280
   26SAPC   O21 3418   3.774   2.888   6.799  0.8029 -0.6799  0.0988
   26SAPC   C21 3419   3.642   2.909   6.814 -0.4771  0.2474 -0.6340
   26SAPC   O22 3420   3.549   2.835   6.785 -0.1329  0.0884  0.2805
   26SAPC   C22 3421   3.613   3.034   6.890 -0.0791 -0.0958 -0.0364
   26SAPC   H2R 3422   3.662   3.120   6.841 -4.0375  1.6639 -1.2934
   26SAPC   H2S 3423   3.504   3.052   6.895  0.2142  1.7073  0.4597
   26SAPC    C3 3424   3.965   2.723   6.767  0.2373  0.7411 -0.2068
   26SAPC    HX 3425   4.026   2.811   6.738 -0.1669  1.2196  0.3730
   26SAPC    HY 3426   3.993   2.634   6.706 -0.1978 -0.7149  1.6286
   26SAPC   O31 3427   3.986   2.689   6.910 -0.2689 -0.8064  0.2606
   26SAPC   C31 3428   3.926   2.585   6.959 -0.0250 -0.2916  0.6063
   26SAPC   O32 3429   3.856   2.505   6.900  0.2463  0.0159  0.0750
   26SAPC   C32 3430   3.934   2.588   7.113  0.1533 -0.0823 -0.1227
   26SAPC   H2X 3431   3.998   2.671   7.148  1.3884 -0.1902 -1.9863
   26SAPC   H2Y 3432   3.988   2.497   7.145 -0.3320 -0.1143  0.6343
   26SAPC   C23 3433   3.668   3.019   7.037 -0.0672  0.5354  0.2015
   26SAPC   H3R 3434   3.687   3.123   7.073 -1.6646  1.0409 -0.3174
   26SAPC   H3S 3435   3.767   2.969   7.030 -0.2721 -0.2010  2.0199
   26SAPC   C24 3436   3.577   2.937   7.130 -0.5671  0.2167 -0.4055
   26SAPC   H4R 3437   3.633   2.916   7.224 -0.6735  1.9030  0.0645
   26SAPC   H4S 3438   3.553   2.837   7.087  1.7879 -0.6384  0.1419
   26SAPC   C25 3439   3.456   3.015   7.174 -0.3041 -0.0012 -0.4693
   26SAPC   H5R 3440   3.395   3.068   7.099 -2.3840  1.1369  1.8727
   26SAPC   C26 3441   3.434   3.048   7.301 -0.6892  0.6577 -0.7202
   26SAPC   H6R 3442   3.345   3.112   7.313  0.8913  3.2265 -2.0027
   26SAPC   C27 3443   3.505   3.011   7.433  0.5542  0.1257  0.0603
   26SAPC   H7R 3444   3.569   3.100   7.455  0.3721  0.2258  0.1836
   26SAPC   H7S 3445   3.579   2.928   7.432 -0.6200 -0.9730  0.9780
   26SAPC   C28 3446   3.404   2.973   7.537 -0.0469 -0.1354 -0.5742
   26SAPC   H8R 3447   3.314   2.920   7.502  0.3186 -0.7384 -0.6018
   26SAPC   C29 3448   3.430   2.984   7.668 -0.5691 -0.2321 -0.4010
   26SAPC   H9R 3449   3.351   2.958   7.740  0.8843 -0.7106  1.0866
   26SAPC  C210 3450   3.549   3.044   7.735  0.5598 -0.5766 -0.5593
   26SAPC  H10R 3451   3.564   3.142   7.685 -0.6921  0.6642  1.3618
   26SAPC  H10S 3452   3.637   2.979   7.717  0.7490 -0.7135  0.7785
   26SAPC  C211 3453   3.527   3.061   7.885 -0.7233 -1.0158  0.5334
   26SAPC  H11R 3454   3.442   3.121   7.920  0.2290  0.7622 -0.0962
   26SAPC  C212 3455   3.603   3.004   7.985 -0.5346 -0.0147 -0.1680
   26SAPC  H12R 3456   3.582   3.040   8.087  0.1871  0.4590 -0.1791
   26SAPC  C213 3457   3.720   2.905   7.965 -0.2330  0.2278  0.1341
   26SAPC  H13R 3458   3.797   2.921   8.042 -1.2448  1.0739  1.0041
   26SAPC  H13S 3459   3.762   2.926   7.864 -0.8302 -0.4252 -0.2719
   26SAPC  C214 3460   3.673   2.758   7.964 -0.4874 -0.2682 -0.3465
   26SAPC  H14R 3461   3.577   2.734   7.916 -0.5133  1.0348 -0.9927
   26SAPC  C215 3462   3.736   2.658   8.023  0.3881  0.5262  0.2733
   26SAPC  H15R 3463   3.676   2.566   8.023  1.4858 -0.2234  1.1150
   26SAPC  C216 3464   3.861   2.667   8.102  0.2612  0.6789 -0.2044
   26SAPC  H16R 3465   3.896   2.772   8.101 -2.3571  1.6332  0.2313
   26SAPC  H16S 3466   3.942   2.609   8.052 -0.6767 -0.2669 -0.6544
   26SAPC  C217 3467   3.838   2.626   8.256  0.1781  0.2842 -1.0643
   26SAPC  H17R 3468   3.933   2.636   8.313  0.9752 -2.2198 -1.8434
   26SAPC  H17S 3469   3.816   2.517   8.250 -2.3939  0.7746 -1.6606
   26SAPC  C218 3470   3.725   2.708   8.323 -0.0272  0.3579 -0.2367
   26SAPC  H18R 3471   3.638   2.696   8.255  0.0873  0.0578 -0.3324
   26SAPC  H18S 3472   3.751   2.814   8.306  0.5632  0.0848 -1.0927
   26SAPC  C219 3473   3.690   2.676   8.472  0.5200  0.1989  0.0721
   26SAPC  H19R 3474   3.784   2.700   8.527  0.1865 -1.2866  1.3597
   26SAPC  H19S 3475   3.663   2.569   8.472 -1.3169  0.6130 -0.4219
   26SAPC  C220 3476   3.576   2.764   8.521 -0.4734 -0.5347 -0.3401
   26SAPC  H20R 3477   3.567   2.758   8.632 -1.0433 -1.3074 -0.4193
   26SAPC  H20S 3478   3.481   2.726   8.477 -0.0596 -1.5990 -0.3408
   26SAPC  H20T 3479   3.591   2.869   8.488  0.7637  0.2476  2.4003
   26SAPC   C33 3480   3.792   2.597   7.178 -0.4139 -0.5288  0.8187
   26SAPC   H3X 3481   3.716   2.527   7.135 -2.7686  2.2777  0.0350
   26SAPC   H3Y 3482   3.748   2.696   7.150 -0.0005 -0.2078  1.2977
   26SAPC   C34 3483   3.791   2.602   7.331 -0.1811  0.2932  0.7597
   26SAPC   H4X 3484   3.874   2.663   7.372  0.5703 -0.9199  1.0934
   26SAPC   H4Y 3485   3.820   2.501   7.366 -1.2479 -0.7789 -1.2558
   26SAPC   C35 3486   3.663   2.634   7.412 -0.0242 -0.3116 -0.1702
   26SAPC   H5X 3487   3.605   2.540   7.407 -0.9569  0.2418 -0.0241
   26SAPC   H5Y 3488   3.600   2.703   7.351  0.2710 -0.7190 -0.9622
   26SAPC   C36 3489   3.689   2.700   7.546 -0.3061  0.4611 -0.7964
   26SAPC   H6X 3490   3.598   2.719   7.607  1.1781  0.0961  1.7105
   26SAPC   H6Y 3491   3.740   2.798   7.530 -0.8777  0.7941 -0.6062
   26SAPC   C37 3492   3.795   2.629   7.632  0.2604 -0.5140 -0.3910
   26SAPC   H7X 3493   3.805   2.692   7.723  1.2252  0.5148 -1.1808
   26SAPC   H7Y 3494   3.893   2.629   7.580 -0.6157 -2.8289 -2.2470
   26SAPC   C38 3495   3.747   2.485   7.665  0.2820 -0.5475  0.4533
   26SAPC   H8X 3496   3.711   2.434   7.573  0.5320 -1.1560  0.6901
   26SAPC   H8Y 3497   3.662   2.488   7.736 -0.9463 -0.5704 -0.9532
   26SAPC   C39 3498   3.864   2.392   7.698 -0.5588  0.0455  0.3855
   26SAPC   H9X 3499   3.957   2.427   7.647  0.0285 -0.5263  1.0452
   26SAPC   H9Y 3500   3.843   2.291   7.657 -0.7872  0.4730 -0.5888
   26SAPC  C310 3501   3.881   2.391   7.845  0.4625 -0.0219  0.1829
   26SAPC  H10X 3502   3.787   2.374   7.901  0.4495 -1.0582 -0.1421
   26SAPC  H10Y 3503   3.909   2.492   7.881  1.1278  0.6354 -2.0133
   26SAPC  C311 3504   3.992   2.298   7.894 -0.3671 -0.2242 -1.0933
   26SAPC  H11X 3505   4.092   2.331   7.857  0.0638  0.9721  0.9543
   26SAPC  H11Y 3506   3.983   2.192   7.862 -1.1086 -0.1926 -0.9926
   26SAPC  C312 3507   4.000   2.291   8.049 -0.7510 -0.2612 -0.0066
   26SAPC  H12X 3508   3.901   2.252   8.081 -1.7977  1.7234 -0.6984
   26SAPC  H12Y 3509   4.005   2.389   8.099 -0.0628 -0.1938 -0.1940
   26SAPC  C313 3510   4.122   2.198   8.095 -0.1934  0.0817  0.0609
   26SAPC  H13X 3511   4.217   2.255   8.095 -0.1115  0.0009  1.6513
   26SAPC  H13Y 3512   4.130   2.118   8.018  2.1949  1.9089 -1.7096
   26SAPC  C314 3513   4.094   2.142   8.238  0.5621  0.0723  0.6736
   26SAPC  H14X 3514   4.144   2.044   8.251  0.9942  0.0859 -0.6953
   26SAPC  H14Y 3515   3.983   2.141   8.249  0.5163  1.4975  0.4763
   26SAPC  C315 3516   4.133   2.246   8.349  0.8139  0.5769  0.2787
   26SAPC  H15X 3517   4.084   2.343   8.329 -0.6137 -0.2208 -0.2485
   26SAPC  H15Y 3518   4.242   2.260   8.337  0.8456  0.9294  0.9609
   26SAPC  C316 3519   4.092   2.215   8.490 -0.5919  0.1122  0.4128
   26SAPC  H16X 3520   4.132   2.120   8.531  1.0081  0.1905 -0.8706
   26SAPC  H16Y 3521   3.981   2.210   8.500 -0.4769  0.8529  2.7358
   26SAPC  C317 3522   4.137   2.335   8.578 -0.0533  0.1706  0.1895
   26SAPC  H17X 3523   4.239   2.369   8.551 -0.0796 -1.0754 -1.6539
   26SAPC  H17Y 3524   4.151   2.315   8.687  0.8375 -2.5696 -0.3569
   26SAPC  C318 3525   4.047   2.466   8.567 -0.5789  0.1660 -0.2731
   26SAPC  H18X 3526   4.108   2.548   8.610  0.2546  0.9802 -2.8005
   26SAPC  H18Y 3527   3.951   2.460   8.623  0.7019 -0.8231  1.9460
   26SAPC  H18Z 3528   4.025   2.499   8.463  0.8188  0.5366 -0.4750
   27SAPC     N 3529   0.970   2.315   6.617 -0.0759 -0.6067 -0.5335
   27SAPC   C12 3530   0.963   2.202   6.720 -0.0972  0.5289  0.4935
   27SAPC  H12A 3531   0.959   2.109   6.665  0.2508  0.0404  1.2744
   27SAPC  H12B 3532   0.865   2.206   6.765 -0.2065 -0.8962  0.4364
   27SAPC   C13 3533   0.867   2.292   6.515 -0.8176 -0.1106  0.2749
   27SAPC  H13A 3534   0.765   2.298   6.552 -0.9901 -1.6589  0.1460
   27SAPC  H13B 3535   0.877   2.362   6.434  0.3412 -1.2027 -0.5582
   27SAPC  H13C 3536   0.874   2.192   6.474 -2.0307 -0.2932  0.4457
   27SAPC   C14 3537   0.953   2.448   6.683  0.3100  0.2224  0.6072
   27SAPC  H14A 3538   0.956   2.530   6.613 -0.3454  0.3305  0.6981
   27SAPC  H14B 3539   0.854   2.448   6.728  0.4649 -1.4384  1.0272
   27SAPC  H14C 3540   1.021   2.451   6.767  1.5555 -0.7814 -0.3303
   27SAPC   C15 3541   1.108   2.322   6.549  0.1177  0.0426  0.1523
   27SAPC  H15A 3542   1.135   2.225   6.510 -0.4731 -0.5265  1.1341
   27SAPC  H15B 3543   1.108   2.400   6.474 -0.7154  1.3675  1.4782
   27SAPC  H15C 3544   1.182   2.354   6.621  1.3583 -1.5860 -0.3420
   27SAPC   C11 3545   1.074   2.183   6.828  0.3919  0.0283  0.4586
   27SAPC  H11A 3546   1.173   2.174   6.779  1.0135 -2.0119  1.9760
   27SAPC  H11B 3547   1.059   2.088   6.884 -2.2323 -0.3369 -0.7232
   27SAPC     P 3548   1.209   2.378   6.946  0.0506  0.2893  0.1170
   27SAPC   O13 3549   1.275   2.384   6.811 -0.3723  0.5421 -0.2251
   27SAPC   O14 3550   1.174   2.506   7.002  0.4192 -0.5546 -0.1082
   27SAPC   O12 3551   1.082   2.290   6.922  0.3408  0.2299 -0.0345
   27SAPC   O11 3552   1.291   2.292   7.048 -0.1695  0.3686  0.7111
   27SAPC    C1 3553   1.270   2.151   7.060 -0.5741 -0.0801  0.3144
   27SAPC    HA 3554   1.167   2.124   7.094 -1.6398 -0.3739 -2.7821
   27SAPC    HB 3555   1.295   2.099   6.965  0.4035  0.6676  0.1528
   27SAPC    C2 3556   1.370   2.097   7.167  0.4746 -0.6859 -0.0591
   27SAPC    HS 3557   1.369   1.986   7.175  3.1760 -0.6999  1.0292
   27SAPC   O21 3558   1.346   2.160   7.291  0.2890 -0.5020 -0.0090
   27SAPC   C21 3559   1.268   2.101   7.368  0.7178  0.0927  0.3939
   27SAPC   O22 3560   1.207   1.995   7.334  0.0744  0.2827  0.1992
   27SAPC   C22 3561   1.260   2.160   7.510 -1.0349  0.3876  0.1499
   27SAPC   H2R 3562   1.180   2.236   7.520  0.1612  1.8888 -1.1938
   27SAPC   H2S 3563   1.230   2.087   7.588  1.8338 -1.1218 -0.0140
   27SAPC    C3 3564   1.521   2.120   7.127  0.4087 -0.2748 -0.9443
   27SAPC    HX 3565   1.535   2.229   7.108 -0.6840 -0.0946 -0.7664
   27SAPC    HY 3566   1.533   2.077   7.026  2.2820  0.4178 -1.0608
   27SAPC   O31 3567   1.617   2.047   7.211  0.0625 -0.2004 -0.0415
   27SAPC   C31 3568   1.689   2.129   7.281  0.3996 -0.0813 -0.0209
   27SAPC   O32 3569   1.677   2.249   7.297  0.4697  0.6079 -0.1842
   27SAPC   C32 3570   1.784   2.050   7.364 -0.5312  0.5210  0.2399
   27SAPC   H2X 3571   1.845   1.994   7.290  0.2695  1.8844 -0.1686
   27SAPC   H2Y 3572   1.729   1.980   7.430  0.9606 -0.1961  0.7911
   27SAPC   C23 3573   1.386   2.244   7.556 -0.1062  0.1065  0.0705
   27SAPC   H3R 3574   1.354   2.326   7.624  0.2032  0.5385 -0.2933
   27SAPC   H3S 3575   1.422   2.298   7.466  0.1087 -0.9422 -0.4936
   27SAPC   C24 3576   1.499   2.170   7.629  0.0430  0.1729  0.0015
   27SAPC   H4R 3577   1.573   2.248   7.660 -1.5097  1.1240  1.4621
   27SAPC   H4S 3578   1.549   2.098   7.560 -0.1243 -1.7731  1.8184
   27SAPC   C25 3579   1.445   2.092   7.742 -0.3231 -0.3065 -0.1849
   27SAPC   H5R 3580   1.396   1.999   7.710 -3.9835  1.4909 -0.2423
   27SAPC   C26 3581   1.444   2.130   7.870 -0.0211  0.1440 -0.4596
   27SAPC   H6R 3582   1.407   2.066   7.951  2.6799  1.3188  1.9084
   27SAPC   C27 3583   1.481   2.269   7.927 -0.5574  0.2147 -0.1015
   27SAPC   H7R 3584   1.503   2.347   7.850  0.7725  1.6265  1.6257
   27SAPC   H7S 3585   1.582   2.261   7.973 -0.3488  0.0053 -0.5811
   27SAPC   C28 3586   1.379   2.333   8.011  0.0501 -0.2823 -0.2921
   27SAPC   H8R 3587   1.294   2.379   7.957 -0.3183 -1.0465 -0.3692
   27SAPC   C29 3588   1.373   2.338   8.149  0.1708 -0.0758  0.0520
   27SAPC   H9R 3589   1.288   2.390   8.195  2.3173  1.4571  2.5052
   27SAPC  C210 3590   1.471   2.275   8.245  0.3136 -0.5195  0.3072
   27SAPC  H10R 3591   1.501   2.346   8.325 -0.4843  0.0834  0.0840
   27SAPC  H10S 3592   1.562   2.234   8.197  0.4095 -0.0054  0.0499
   27SAPC  C211 3593   1.399   2.161   8.316 -0.1248 -0.0512 -0.3374
   27SAPC  H11R 3594   1.413   2.061   8.271 -2.8751 -0.1921 -1.0564
   27SAPC  C212 3595   1.318   2.157   8.419 -0.4630  0.2754 -0.0858
   27SAPC  H12R 3596   1.278   2.064   8.462 -0.7105 -0.2483 -1.3892
   27SAPC  C213 3597   1.275   2.271   8.503  0.7409  1.1725 -0.2493
   27SAPC  H13R 3598   1.310   2.365   8.455  2.7382 -0.3016 -1.8290
   27SAPC  H13S 3599   1.319   2.265   8.605  0.5851  1.8217 -0.1359
   27SAPC  C214 3600   1.127   2.280   8.498 -0.2658 -0.1030  0.7312
   27SAPC  H14R 3601   1.093   2.280   8.393  0.8282 -1.6440  0.3434
   27SAPC  C215 3602   1.039   2.305   8.593 -0.1474 -0.6902 -0.0448
   27SAPC  H15R 3603   0.932   2.310   8.566 -0.2582  0.6610  0.5671
   27SAPC  C216 3604   1.079   2.317   8.739  0.2296  0.2383 -0.1281
   27SAPC  H16R 3605   1.011   2.387   8.792 -0.0699 -0.3397  0.2589
   27SAPC  H16S 3606   1.176   2.371   8.747  1.3872 -1.8471  0.9320
   27SAPC  C217 3607   1.079   2.185   8.822  0.3991  0.3071 -0.2764
   27SAPC  H17R 3608   1.154   2.117   8.778 -0.2407 -0.1921 -0.6104
   27SAPC  H17S 3609   0.981   2.132   8.822  0.3862  0.3214  0.3350
   27SAPC  C218 3610   1.109   2.216   8.966 -0.3005  0.8827 -0.3361
   27SAPC  H18R 3611   1.053   2.308   8.993 -0.1013  1.5796 -2.1553
   27SAPC  H18S 3612   1.214   2.249   8.978 -0.2448  0.5350  0.1882
   27SAPC  C219 3613   1.081   2.106   9.070 -1.2122 -0.3227 -0.1432
   27SAPC  H19R 3614   1.156   2.025   9.075 -1.2558 -0.2941  1.5432
   27SAPC  H19S 3615   0.980   2.060   9.061  0.1863 -4.2286  1.5022
   27SAPC  C220 3616   1.088   2.163   9.215 -0.4029  1.2895  1.3398
   27SAPC  H20R 3617   1.193   2.192   9.235  1.6834 -2.1501 -3.0031
   27SAPC  H20S 3618   1.055   2.089   9.290 -3.0202  2.2477  1.2617
   27SAPC  H20T 3619   1.021   2.252   9.214  0.9741  2.3718  0.0070
   27SAPC   C33 3620   1.866   2.149   7.441  0.6237  0.3380  0.2721
   27SAPC   H3X 3621   1.791   2.200   7.506  1.2319  1.7277 -0.0883
   27SAPC   H3Y 3622   1.920   2.222   7.377 -0.0277 -0.3025 -1.0453
   27SAPC   C34 3623   1.961   2.075   7.540 -0.4139 -0.8620 -0.5093
   27SAPC   H4X 3624   1.999   1.983   7.490  0.1460 -0.8227 -0.1598
   27SAPC   H4Y 3625   1.890   2.036   7.616 -0.1335 -0.1934  0.1029
   27SAPC   C35 3626   2.065   2.163   7.602  0.6790  0.2162 -0.4101
   27SAPC   H5X 3627   2.009   2.248   7.647  1.7100  0.1565  1.0515
   27SAPC   H5Y 3628   2.140   2.196   7.527  0.9941 -1.7266 -0.9931
   27SAPC   C36 3629   2.142   2.097   7.725 -0.6318  0.1512  1.1409
   27SAPC   H6X 3630   2.249   2.126   7.717 -0.2537 -0.9553  1.9719
   27SAPC   H6Y 3631   2.130   1.987   7.715 -0.2172  0.2915 -1.7269
   27SAPC   C37 3632   2.115   2.128   7.879  0.2615  0.0719  1.1114
   27SAPC   H7X 3633   2.006   2.106   7.884  0.3982 -1.3422 -1.0028
   27SAPC   H7Y 3634   2.131   2.235   7.904 -0.2631  0.6074 -0.7483
   27SAPC   C38 3635   2.192   2.032   7.968 -0.1730  0.4118  0.0420
   27SAPC   H8X 3636   2.303   2.044   7.966 -0.1155 -0.1520 -0.4492
   27SAPC   H8Y 3637   2.186   1.924   7.942 -1.7689  0.5235 -0.1360
   27SAPC   C39 3638   2.154   2.036   8.116 -0.5501  0.3219 -0.1620
   27SAPC   H9X 3639   2.201   1.952   8.172 -1.6584 -0.7278 -0.7590
   27SAPC   H9Y 3640   2.049   2.002   8.127  0.1537 -0.9531  4.6149
   27SAPC  C310 3641   2.195   2.166   8.181 -0.0125 -0.8542 -1.2108
   27SAPC  H10X 3642   2.131   2.243   8.133 -1.7900 -1.6821 -0.2971
   27SAPC  H10Y 3643   2.301   2.189   8.159 -0.0074 -0.4242 -0.7388
   27SAPC  C311 3644   2.176   2.156   8.329 -0.3187 -0.0784  0.0647
   27SAPC  H11X 3645   2.203   2.250   8.382  1.0237  1.5192 -3.1694
   27SAPC  H11Y 3646   2.253   2.080   8.354  0.6835  0.7385 -0.4610
   27SAPC  C312 3647   2.041   2.095   8.388  0.2217 -0.4090  0.6169
   27SAPC  H12X 3648   2.005   2.030   8.306  0.4193 -1.2205  1.1617
   27SAPC  H12Y 3649   1.973   2.183   8.397  1.2613  0.8746 -2.5720
   27SAPC  C313 3650   2.054   2.022   8.524 -0.4336  0.0381  0.1135
   27SAPC  H13X 3651   2.081   2.091   8.606  2.1624 -1.2014  0.3861
   27SAPC  H13Y 3652   2.131   1.942   8.514 -1.8598 -1.3337 -0.4288
   27SAPC  C314 3653   1.925   1.945   8.561 -0.8220 -0.2485 -0.6310
   27SAPC  H14X 3654   1.961   1.877   8.641  0.0789  0.6988 -0.2117
   27SAPC  H14Y 3655   1.892   1.891   8.470 -0.9374  0.2153 -0.8668
   27SAPC  C315 3656   1.807   2.041   8.607 -0.1399 -0.5611 -0.8498
   27SAPC  H15X 3657   1.775   2.092   8.514 -0.3927  1.3734  0.2359
   27SAPC  H15Y 3658   1.841   2.118   8.680  0.6068 -0.3104 -1.4445
   27SAPC  C316 3659   1.691   1.971   8.671  0.4538  0.3084 -0.4915
   27SAPC  H16X 3660   1.733   1.912   8.755  2.0690 -1.3541 -2.3703
   27SAPC  H16Y 3661   1.642   1.894   8.608  1.2309 -1.7251  1.2658
   27SAPC  C317 3662   1.587   2.068   8.721 -0.0182  0.5783 -0.0309
   27SAPC  H17X 3663   1.545   2.137   8.645  1.4678  0.7443 -0.7403
   27SAPC  H17Y 3664   1.636   2.135   8.795  2.3937 -0.7479 -0.3022
   27SAPC  C318 3665   1.476   1.995   8.802 -0.2942  0.4030  0.2713
   27SAPC  H18X 3666   1.422   1.920   8.741 -0.1440  0.8288 -0.3952
   27SAPC  H18Y 3667   1.418   2.073   8.856 -1.2123  0.8993 -1.3621
   27SAPC  H18Z 3668   1.527   1.934   8.880  0.8436 -0.6240 -1.2255
   28SAPC     N 3669   0.207   6.086   6.377 -1.2888 -1.0241 -0.4771
   28SAPC   C12 3670   0.219   5.942   6.387 -0.1550  0.2548  0.5571
   28SAPC  H12A 3671   0.317   5.920   6.427 -0.6493 -2.4776  0.4503
   28SAPC  H12B 3672   0.226   5.895   6.290  0.7262 -0.3265  0.8949
   28SAPC   C13 3673   0.329   6.136   6.300 -0.4377 -0.1489  0.2486
   28SAPC  H13A 3674   0.340   6.084   6.206  0.4245 -1.5256  1.0707
   28SAPC  H13B 3675   0.312   6.238   6.270 -2.4819 -0.4822  0.1496
   28SAPC  H13C 3676   0.420   6.130   6.358 -0.9578  3.4088  1.6997
   28SAPC   C14 3677   0.095   6.134   6.297 -0.1278  0.8254 -0.2156
   28SAPC  H14A 3678   0.084   6.240   6.317 -0.5164  1.5169 -3.5875
   28SAPC  H14B 3679   0.107   6.111   6.192 -1.2215  2.6566 -0.7840
   28SAPC  H14C 3680   0.009   6.077   6.331  0.8969 -0.5115  0.2452
   28SAPC   C15 3681   0.211   6.161   6.514 -0.6895  0.0931  0.2203
   28SAPC  H15A 3682   0.129   6.139   6.580  1.1228 -3.5125  1.5561
   28SAPC  H15B 3683   0.305   6.127   6.555  0.4577  3.6568  0.8965
   28SAPC  H15C 3684   0.226   6.268   6.509 -0.7685  0.1057  0.2608
   28SAPC   C11 3685   0.108   5.872   6.475  0.3202  0.2370  0.4016
   28SAPC  H11A 3686   0.106   5.918   6.576 -2.1345  2.4793 -0.5474
   28SAPC  H11B 3687   0.135   5.765   6.475 -0.3880  0.0485 -0.5518
   28SAPC     P 3688  -0.110   5.800   6.330  0.0012 -0.3443 -0.1312
   28SAPC   O13 3689  -0.199   5.879   6.238 -0.0512  0.1607  0.2442
   28SAPC   O14 3690  -0.028   5.689   6.278 -0.7090 -0.1148  0.3389
   28SAPC   O12 3691  -0.018   5.899   6.415  0.1389  0.6045 -0.3919
   28SAPC   O11 3692  -0.197   5.741   6.447  0.2231 -0.0269  0.3113
   28SAPC    C1 3693  -0.157   5.617   6.509  0.7381  0.1016  0.8020
   28SAPC    HA 3694  -0.116   5.539   6.442  0.6643  0.9622 -0.2560
   28SAPC    HB 3695  -0.074   5.627   6.582  1.4748 -1.3859  0.2033
   28SAPC    C2 3696  -0.288   5.556   6.572  0.3136  0.4556  0.4220
   28SAPC    HS 3697  -0.357   5.547   6.485  0.3102 -2.1859  0.6249
   28SAPC   O21 3698  -0.339   5.642   6.667  0.5714  0.2037 -0.3449
   28SAPC   C21 3699  -0.464   5.622   6.691 -0.2371 -0.7209 -0.4403
   28SAPC   O22 3700  -0.546   5.554   6.630 -0.2972 -0.2440  0.0679
   28SAPC   C22 3701  -0.510   5.711   6.821 -0.4393  0.0849  0.3588
   28SAPC   H2R 3702  -0.437   5.668   6.894  0.5670 -2.5991 -2.0426
   28SAPC   H2S 3703  -0.487   5.819   6.805  0.6633 -0.0775  0.7219
   28SAPC    C3 3704  -0.273   5.408   6.613  0.0087 -0.1664  0.4924
   28SAPC    HX 3705  -0.250   5.337   6.531 -1.9749  0.4711 -0.6506
   28SAPC    HY 3706  -0.378   5.377   6.632 -0.8128  0.5424 -2.4769
   28SAPC   O31 3707  -0.186   5.394   6.730  0.2365 -0.0666 -0.0277
   28SAPC   C31 3708  -0.246   5.396   6.850 -0.6243  0.2028  0.2030
   28SAPC   O32 3709  -0.364   5.408   6.865  0.1368  0.3766  0.4455
   28SAPC   C32 3710  -0.135   5.384   6.962 -0.5066  0.1709  0.0755
   28SAPC   H2X 3711  -0.074   5.478   6.963 -0.5441  0.2762 -2.1397
   28SAPC   H2Y 3712  -0.064   5.313   6.916 -2.0137 -0.3782 -1.5088
   28SAPC   C23 3713  -0.654   5.698   6.871 -1.1588 -0.7085 -0.5214
   28SAPC   H3R 3714  -0.654   5.597   6.915 -0.6072 -0.4764  0.0266
   28SAPC   H3S 3715  -0.726   5.714   6.788 -0.2357 -1.2740 -1.4574
   28SAPC   C24 3716  -0.682   5.778   6.991 -0.7697 -0.4538  0.1405
   28SAPC   H4R 3717  -0.607   5.762   7.072  1.0510 -1.9246 -1.7291
   28SAPC   H4S 3718  -0.682   5.884   6.957 -0.2836 -0.3837  0.3470
   28SAPC   C25 3719  -0.820   5.760   7.043 -0.1045  0.0784 -0.3576
   28SAPC   H5R 3720  -0.899   5.797   6.976  0.1768  0.1763 -0.6328
   28SAPC   C26 3721  -0.867   5.710   7.163  0.2525  0.1260  0.3656
   28SAPC   H6R 3722  -0.977   5.708   7.174  0.1483  1.6122 -0.0876
   28SAPC   C27 3723  -0.797   5.650   7.281 -0.0128  0.4369  0.0767
   28SAPC   H7R 3724  -0.695   5.615   7.256 -0.8000 -2.3735  0.4504
   28SAPC   H7S 3725  -0.868   5.567   7.301 -1.2469  2.1369  3.7402
   28SAPC   C28 3726  -0.791   5.750   7.396  0.4859 -0.1294  0.3009
   28SAPC   H8R 3727  -0.786   5.851   7.354  1.0705 -0.1017  0.4334
   28SAPC   C29 3728  -0.810   5.723   7.529 -0.0288  0.3928  0.8344
   28SAPC   H9R 3729  -0.824   5.813   7.590  0.0705  1.0265 -0.0521
   28SAPC  C210 3730  -0.844   5.580   7.582 -0.1138 -0.2043 -0.4673
   28SAPC  H10R 3731  -0.805   5.568   7.685  0.1512  1.1164 -0.3949
   28SAPC  H10S 3732  -0.784   5.506   7.524  0.4702  0.4508 -0.7238
   28SAPC  C211 3733  -0.991   5.557   7.567 -0.1891  0.5953 -0.1956
   28SAPC  H11R 3734  -1.041   5.574   7.471 -3.9760  0.0261  1.4967
   28SAPC  C212 3735  -1.080   5.525   7.660 -0.5537  0.7010 -0.0619
   28SAPC  H12R 3736  -1.187   5.517   7.635 -0.4754  1.3173 -0.6365
   28SAPC  C213 3737  -1.046   5.493   7.802 -0.4786  0.1490 -0.4341
   28SAPC  H13R 3738  -0.967   5.559   7.844  0.2959 -0.0497 -1.5444
   28SAPC  H13S 3739  -0.998   5.393   7.807  1.8502  1.2603  3.3253
   28SAPC  C214 3740  -1.165   5.483   7.904 -0.7697 -0.0645  0.7013
   28SAPC  H14R 3741  -1.257   5.449   7.854 -0.1409  0.4189 -0.8375
   28SAPC  C215 3742  -1.167   5.529   8.029  0.3775  0.9053 -0.4243
   28SAPC  H15R 3743  -1.254   5.509   8.094  0.7298  0.3417 -0.1063
   28SAPC  C216 3744  -1.056   5.602   8.102  0.1889 -0.3026 -0.5209
   28SAPC  H16R 3745  -1.097   5.647   8.195  1.7379  0.9168 -0.3867
   28SAPC  H16S 3746  -1.024   5.687   8.037  0.8665  1.5808  2.1056
   28SAPC  C217 3747  -0.955   5.502   8.146  0.6636 -0.3407  0.3405
   28SAPC  H17R 3748  -0.878   5.570   8.188 -0.3414  1.1804 -0.2110
   28SAPC  H17S 3749  -0.906   5.450   8.060  2.3401 -1.6854  2.0074
   28SAPC  C218 3750  -0.997   5.407   8.256 -0.2992 -0.0466 -0.8016
   28SAPC  H18R 3751  -1.078   5.341   8.220 -1.5776  0.1403  1.5225
   28SAPC  H18S 3752  -1.040   5.459   8.344  1.4249  2.2468 -1.2378
   28SAPC  C219 3753  -0.881   5.305   8.311 -0.0332  0.5220  0.4035
   28SAPC  H19R 3754  -0.874   5.227   8.233 -1.5313  1.9827 -1.2778
   28SAPC  H19S 3755  -0.920   5.261   8.406  0.2458 -0.6847 -0.0217
   28SAPC  C220 3756  -0.734   5.354   8.313 -0.5232 -0.5340 -0.0718
   28SAPC  H20R 3757  -0.708   5.393   8.213  2.3069 -2.4064 -0.1778
   28SAPC  H20S 3758  -0.658   5.276   8.335  2.0515  2.1796  1.3475
   28SAPC  H20T 3759  -0.724   5.436   8.387  3.6341  0.7470 -1.7744
   28SAPC   C33 3760  -0.178   5.345   7.106 -0.7146 -1.0883 -0.6453
   28SAPC   H3X 3761  -0.232   5.248   7.104 -0.9851 -0.9857  0.6737
   28SAPC   H3Y 3762  -0.249   5.418   7.149 -0.1974 -1.4212  0.8137
   28SAPC   C34 3763  -0.056   5.333   7.197  0.4144 -0.0152  0.3362
   28SAPC   H4X 3764  -0.007   5.429   7.224  0.9907 -1.0113  3.1781
   28SAPC   H4Y 3765   0.015   5.263   7.149 -0.8649 -1.1604  0.0488
   28SAPC   C35 3766  -0.094   5.268   7.342  0.0329  0.0731  0.8017
   28SAPC   H5X 3767  -0.156   5.178   7.321 -1.1765  1.1338 -0.3824
   28SAPC   H5Y 3768  -0.159   5.330   7.408 -0.3006 -0.1465  0.6822
   28SAPC   C36 3769   0.022   5.213   7.422 -0.4240 -0.7078  0.9417
   28SAPC   H6X 3770   0.088   5.297   7.454 -1.4854  0.0091  1.2838
   28SAPC   H6Y 3771   0.076   5.140   7.359 -1.0614 -0.4475  0.0829
   28SAPC   C37 3772  -0.025   5.137   7.549  0.2298  0.6861  0.0472
   28SAPC   H7X 3773  -0.065   5.039   7.515 -0.5739  0.6487  1.0641
   28SAPC   H7Y 3774  -0.113   5.189   7.594 -1.3577 -1.8286  0.0320
   28SAPC   C38 3775   0.075   5.102   7.657 -0.4106  0.2525  0.0595
   28SAPC   H8X 3776   0.150   5.036   7.609  0.7981 -0.4835  2.7753
   28SAPC   H8Y 3777   0.028   5.031   7.728  0.2664  0.4573  0.7204
   28SAPC   C39 3778   0.121   5.217   7.747  0.3023  0.2405 -0.0084
   28SAPC   H9X 3779   0.032   5.275   7.779 -0.7669 -0.7148 -1.1504
   28SAPC   H9Y 3780   0.178   5.298   7.696 -0.3112 -0.5201 -1.9808
   28SAPC  C310 3781   0.188   5.163   7.878 -0.0486  0.1584 -0.3401
   28SAPC  H10X 3782   0.271   5.093   7.859 -0.9456 -0.5978 -1.5751
   28SAPC  H10Y 3783   0.116   5.104   7.939  0.2839  1.7669  1.7421
   28SAPC  C311 3784   0.229   5.288   7.962  0.1360 -0.1549 -0.1308
   28SAPC  H11X 3785   0.125   5.325   7.978 -0.7159 -2.1789 -0.5781
   28SAPC  H11Y 3786   0.289   5.361   7.904  1.9291 -0.5069  1.2031
   28SAPC  C312 3787   0.286   5.241   8.095 -0.3100 -0.3170  0.0347
   28SAPC  H12X 3788   0.396   5.222   8.093 -0.6413 -2.8779  1.1566
   28SAPC  H12Y 3789   0.225   5.153   8.126 -1.0358  0.4303  0.7793
   28SAPC  C313 3790   0.273   5.360   8.188  0.1817  0.1523  0.0269
   28SAPC  H13X 3791   0.168   5.393   8.177 -0.4217 -2.2719 -2.5644
   28SAPC  H13Y 3792   0.332   5.443   8.142  2.5865 -1.4105  0.0984
   28SAPC  C314 3793   0.312   5.335   8.331 -0.0200  0.1402  0.0740
   28SAPC  H14X 3794   0.292   5.426   8.392  1.7938  0.8786 -0.3620
   28SAPC  H14Y 3795   0.423   5.330   8.340  0.1212  1.0900 -1.0043
   28SAPC  C315 3796   0.246   5.208   8.393  0.1488 -0.4969 -0.1060
   28SAPC  H15X 3797   0.274   5.113   8.344  1.8922  1.7557 -3.9590
   28SAPC  H15Y 3798   0.136   5.220   8.382  0.2516  0.0717 -0.5317
   28SAPC  C316 3799   0.292   5.184   8.539  0.1858  0.1632 -0.2183
   28SAPC  H16X 3800   0.262   5.254   8.620  1.3491 -0.4824  0.8045
   28SAPC  H16Y 3801   0.403   5.183   8.534  0.1396 -1.4343 -1.6776
   28SAPC  C317 3802   0.241   5.043   8.586  0.2556  0.0480  0.3692
   28SAPC  H17X 3803   0.286   4.966   8.520 -0.8505 -0.7074  0.4620
   28SAPC  H17Y 3804   0.132   5.050   8.568  0.1709  0.8720  1.1264
   28SAPC  C318 3805   0.269   5.011   8.735 -0.2309  0.5095 -0.3737
   28SAPC  H18X 3806   0.193   5.064   8.797  1.1042 -0.5618  2.3701
   28SAPC  H18Y 3807   0.374   5.039   8.754 -0.0998  0.3197 -0.8132
   28SAPC  H18Z 3808   0.256   4.901   8.745  0.0090  0.3822 -1.4154
   29SAPC     N 3809   3.165   2.121   5.903 -0.3436 -0.5055 -0.0715
   29SAPC   C12 3810   3.280   2.113   6.011 -0.0949 -0.3562  0.3987
   29SAPC  H12A 3811   3.359   2.178   5.977  1.5275 -2.6572 -0.4866
   29SAPC  H12B 3812   3.317   2.011   6.013 -0.7451 -0.5858  1.4682
   29SAPC   C13 3813   3.224   2.122   5.767  0.6868 -0.5401  0.1949
   29SAPC  H13A 3814   3.307   2.053   5.764  1.1523 -0.0114  0.5575
   29SAPC  H13B 3815   3.158   2.091   5.688  0.1074  0.3856  0.2926
   29SAPC  H13C 3816   3.255   2.221   5.734 -1.5918  0.4271  0.7717
   29SAPC   C14 3817   3.069   2.008   5.915  0.5137  0.3979 -0.5102
   29SAPC  H14A 3818   3.026   1.991   5.818 -0.9357  0.6147  0.0573
   29SAPC  H14B 3819   3.133   1.926   5.945 -1.8720 -0.2644  3.7130
   29SAPC  H14C 3820   2.992   2.006   5.992 -0.3650  0.2793 -1.3765
   29SAPC   C15 3821   3.095   2.252   5.920 -0.4305  0.5502  0.9183
   29SAPC  H15A 3822   3.066   2.291   5.824 -0.6388  0.4749  0.9513
   29SAPC  H15B 3823   3.006   2.243   5.979 -0.3075  0.3144  1.0700
   29SAPC  H15C 3824   3.156   2.330   5.962  1.3694  0.6006 -1.5409
   29SAPC   C11 3825   3.249   2.140   6.158  0.4245 -0.4341 -0.9382
   29SAPC  H11A 3826   3.205   2.241   6.172  1.3455 -0.1094 -0.2821
   29SAPC  H11B 3827   3.341   2.150   6.220 -0.4059  2.6691 -0.0206
   29SAPC     P 3828   3.180   1.915   6.289  0.4149 -0.0208 -0.5271
   29SAPC   O13 3829   3.058   1.833   6.292  0.2390  0.0316 -0.1785
   29SAPC   O14 3830   3.298   1.852   6.234 -0.6673 -0.2475  0.2234
   29SAPC   O12 3831   3.144   2.045   6.214  0.4629  0.2812 -0.3541
   29SAPC   O11 3832   3.210   1.981   6.432 -0.4784 -0.2101 -0.2577
   29SAPC    C1 3833   3.322   1.952   6.517 -0.0652 -0.0587  0.2329
   29SAPC    HA 3834   3.309   1.852   6.565  0.7576 -0.5791 -0.5873
   29SAPC    HB 3835   3.417   1.943   6.460  1.3952  1.5999  2.2535
   29SAPC    C2 3836   3.345   2.069   6.614 -0.5972 -0.7290  0.6483
   29SAPC    HS 3837   3.434   2.048   6.677  0.5916 -2.1177 -1.3725
   29SAPC   O21 3838   3.220   2.087   6.688  0.6372 -0.3551  0.2966
   29SAPC   C21 3839   3.207   2.017   6.795 -0.5967  0.2076  0.0588
   29SAPC   O22 3840   3.291   1.940   6.841  0.2581  0.3086  0.7056
   29SAPC   C22 3841   3.077   2.058   6.859 -0.0331 -0.1337 -0.1773
   29SAPC   H2R 3842   3.033   2.146   6.808 -0.2138 -0.0389  0.1396
   29SAPC   H2S 3843   3.004   1.979   6.834  1.1843 -2.1714  2.2778
   29SAPC    C3 3844   3.382   2.204   6.532  0.0511 -0.1563  0.1868
   29SAPC    HX 3845   3.291   2.232   6.475  1.4625  1.4452 -1.4235
   29SAPC    HY 3846   3.460   2.175   6.459  0.6084 -2.3143  1.5364
   29SAPC   O31 3847   3.432   2.303   6.632 -0.1762 -0.1101 -0.0915
   29SAPC   C31 3848   3.366   2.418   6.633  0.2999 -0.0474  0.8914
   29SAPC   O32 3849   3.281   2.453   6.549 -0.1006 -0.2591  0.1013
   29SAPC   C32 3850   3.411   2.504   6.749 -1.0713 -0.3337  0.8949
   29SAPC   H2X 3851   3.352   2.597   6.755  0.6422  0.8916 -0.2980
   29SAPC   H2Y 3852   3.514   2.534   6.721 -1.5570 -0.6384 -1.4608
   29SAPC   C23 3853   3.090   2.087   7.011 -0.1678  0.8287  0.8345
   29SAPC   H3R 3854   3.189   2.049   7.045 -1.3148 -3.6974 -0.1634
   29SAPC   H3S 3855   3.018   2.027   7.071  0.2315  0.4520  0.9399
   29SAPC   C24 3856   3.065   2.236   7.053 -0.1492  0.1622 -0.1249
   29SAPC   H4R 3857   3.143   2.303   7.010  0.3305 -0.7515 -0.7151
   29SAPC   H4S 3858   3.091   2.244   7.161 -3.3023  0.5857  0.6926
   29SAPC   C25 3859   2.932   2.287   7.016 -0.0276 -0.1454 -0.0582
   29SAPC   H5R 3860   2.849   2.255   7.080 -1.9451  4.7717  0.3449
   29SAPC   C26 3861   2.899   2.361   6.911 -0.1579 -0.3759  1.1591
   29SAPC   H6R 3862   2.795   2.397   6.903 -0.1750 -0.6405  0.0396
   29SAPC   C27 3863   2.987   2.420   6.802  0.2281  0.1628 -0.3154
   29SAPC   H7R 3864   2.958   2.371   6.706  0.4133  0.5334 -0.5623
   29SAPC   H7S 3865   3.097   2.404   6.814  0.3358  1.8161  1.1698
   29SAPC   C28 3866   2.981   2.568   6.798  0.4612  0.9479  0.7736
   29SAPC   H8R 3867   2.936   2.597   6.702  0.5321  0.9539  0.7418
   29SAPC   C29 3868   3.018   2.664   6.882 -0.0186 -0.6985  0.0320
   29SAPC   H9R 3869   3.012   2.773   6.864 -1.0459 -0.1246  3.1856
   29SAPC  C210 3870   3.076   2.635   7.022  0.3229 -0.5382 -0.1801
   29SAPC  H10R 3871   3.135   2.541   7.017  0.3614 -0.4527 -1.9957
   29SAPC  H10S 3872   3.003   2.607   7.101  1.0960 -3.0492 -0.2479
   29SAPC  C211 3873   3.164   2.747   7.080 -0.0125  0.0967 -0.0904
   29SAPC  H11R 3874   3.211   2.827   7.020  1.3603  0.5104  1.4633
   29SAPC  C212 3875   3.206   2.743   7.208  0.2846  0.1108  0.3656
   29SAPC  H12R 3876   3.263   2.829   7.247  0.3684  1.7462 -2.9600
   29SAPC  C213 3877   3.157   2.642   7.309  0.2385 -0.3327 -0.0265
   29SAPC  H13R 3878   3.099   2.555   7.270 -0.8463 -1.0813  2.9437
   29SAPC  H13S 3879   3.081   2.693   7.371 -0.6054 -0.8405 -0.6295
   29SAPC  C214 3880   3.263   2.591   7.404 -0.5160 -0.3701 -0.6835
   29SAPC  H14R 3881   3.361   2.587   7.353 -1.5757 -0.2109 -2.8655
   29SAPC  C215 3882   3.251   2.565   7.540 -0.3790  0.0299  0.3701
   29SAPC  H15R 3883   3.336   2.516   7.589  0.8261  1.6676  0.0004
   29SAPC  C216 3884   3.121   2.585   7.627 -0.0455 -0.5036 -0.3306
   29SAPC  H16R 3885   3.089   2.489   7.672 -0.6864  0.2320  0.8198
   29SAPC  H16S 3886   3.038   2.637   7.575 -0.1632 -0.3117  0.0478
   29SAPC  C217 3887   3.158   2.664   7.753 -0.0515 -0.4226  0.3232
   29SAPC  H17R 3888   3.070   2.706   7.806 -0.3724 -2.1852  1.2564
   29SAPC  H17S 3889   3.215   2.752   7.718  0.7632 -1.2722 -0.5412
   29SAPC  C218 3890   3.237   2.578   7.851 -0.3511 -0.0451 -1.3976
   29SAPC  H18R 3891   3.336   2.562   7.803 -0.3788  0.3327 -1.5824
   29SAPC  H18S 3892   3.193   2.477   7.864 -1.8230  0.8212  1.2999
   29SAPC  C219 3893   3.243   2.634   7.994  0.3506 -0.2484  0.7298
   29SAPC  H19R 3894   3.140   2.620   8.035 -0.5853  0.4565 -1.2366
   29SAPC  H19S 3895   3.263   2.743   7.992  0.4141 -0.2654  0.2622
   29SAPC  C220 3896   3.349   2.562   8.075  0.3855  0.2755 -0.4280
   29SAPC  H20R 3897   3.342   2.452   8.057  3.7718 -0.7903  3.3348
   29SAPC  H20S 3898   3.333   2.577   8.183 -1.5433 -1.3966 -0.4295
   29SAPC  H20T 3899   3.454   2.595   8.055 -0.2515  2.9039  0.1801
   29SAPC   C33 3900   3.420   2.418   6.876  0.2408  0.4990  0.0215
   29SAPC   H3X 3901   3.331   2.351   6.882  0.9004 -0.3391  0.6864
   29SAPC   H3Y 3902   3.412   2.491   6.960  1.0420  1.1008 -0.4115
   29SAPC   C34 3903   3.541   2.327   6.908 -0.1276 -0.4890 -0.6173
   29SAPC   H4X 3904   3.625   2.395   6.932 -0.4181 -0.3486  0.0216
   29SAPC   H4Y 3905   3.565   2.268   6.816  1.3729 -0.8091 -0.0652
   29SAPC   C35 3906   3.518   2.225   7.016  0.0887 -0.4061  0.3749
   29SAPC   H5X 3907   3.602   2.152   7.018  2.2927  1.8342  4.7422
   29SAPC   H5Y 3908   3.424   2.169   6.998 -0.0620  0.4656 -1.7968
   29SAPC   C36 3909   3.512   2.284   7.150 -0.1140 -0.3250 -0.5996
   29SAPC   H6X 3910   3.436   2.364   7.158  2.4218  2.0481  1.6926
   29SAPC   H6Y 3911   3.609   2.329   7.182 -0.1021 -0.4277 -0.4893
   29SAPC   C37 3912   3.487   2.187   7.262 -0.1648 -0.0948 -0.1492
   29SAPC   H7X 3913   3.573   2.118   7.264 -1.8808 -2.3483 -0.4908
   29SAPC   H7Y 3914   3.394   2.131   7.237 -0.5830  0.2695  0.5240
   29SAPC   C38 3915   3.482   2.253   7.403  0.2743 -0.9102 -0.5014
   29SAPC   H8X 3916   3.394   2.321   7.407  1.1995  0.2953  1.7635
   29SAPC   H8Y 3917   3.579   2.304   7.422  0.3731 -1.2269 -0.1415
   29SAPC   C39 3918   3.472   2.151   7.514 -0.0648 -0.3492 -0.3644
   29SAPC   H9X 3919   3.570   2.098   7.515  0.0264 -0.1826 -0.3630
   29SAPC   H9Y 3920   3.391   2.076   7.501  0.1452 -0.3166 -2.0921
   29SAPC  C310 3921   3.473   2.223   7.655 -0.0712  0.2194  0.5982
   29SAPC  H10X 3922   3.369   2.253   7.680 -0.3264  1.5441 -1.6899
   29SAPC  H10Y 3923   3.543   2.309   7.650 -1.9959  1.8035 -1.8821
   29SAPC  C311 3924   3.523   2.134   7.771 -0.3027  0.5870 -0.7601
   29SAPC  H11X 3925   3.625   2.100   7.741 -0.4601  1.4706 -2.4056
   29SAPC  H11Y 3926   3.452   2.050   7.786 -2.2962  2.4719  1.0178
   29SAPC  C312 3927   3.521   2.211   7.902  0.1989 -0.1825  0.3091
   29SAPC  H12X 3928   3.413   2.236   7.915 -0.2675 -0.6446 -2.1369
   29SAPC  H12Y 3929   3.586   2.299   7.886  2.1189 -1.4796  0.6981
   29SAPC  C313 3930   3.580   2.149   8.023  0.3883 -0.3940 -0.1858
   29SAPC  H13X 3931   3.690   2.138   8.030  0.6256  1.9593  0.4663
   29SAPC  H13Y 3932   3.545   2.043   8.027 -0.2151 -0.4582 -3.8614
   29SAPC  C314 3933   3.539   2.218   8.155 -0.3691 -0.2081  0.8899
   29SAPC  H14X 3934   3.429   2.212   8.169 -0.6997  1.6048 -0.5535
   29SAPC  H14Y 3935   3.575   2.322   8.136  2.6955 -1.0393  1.4841
   29SAPC  C315 3936   3.612   2.169   8.285 -0.6456 -0.7002 -0.9662
   29SAPC  H15X 3937   3.720   2.173   8.260 -0.7901 -0.3058 -1.5307
   29SAPC  H15Y 3938   3.602   2.065   8.323 -0.1301 -1.2798 -2.3456
   29SAPC  C316 3939   3.600   2.283   8.393  0.2990  0.3239  0.7821
   29SAPC  H16X 3940   3.492   2.306   8.399 -0.3319 -1.7537 -1.1424
   29SAPC  H16Y 3941   3.640   2.376   8.346 -1.6942  1.0515  0.4489
   29SAPC  C317 3942   3.660   2.237   8.524 -0.0406  0.5234  0.1813
   29SAPC  H17X 3943   3.667   2.331   8.582 -0.7980  0.8411 -0.2242
   29SAPC  H17Y 3944   3.761   2.192   8.509 -0.2748  0.1837 -0.3906
   29SAPC  C318 3945   3.581   2.129   8.605 -0.6852  0.4153  0.2660
   29SAPC  H18X 3946   3.585   2.028   8.559 -0.6795 -0.3666  1.9081
   29SAPC  H18Y 3947   3.474   2.158   8.617 -0.5658  0.9590  0.0802
   29SAPC  H18Z 3948   3.628   2.121   8.705  0.0301  0.9907 -0.0114
   30SAPC     N 3949   4.109   2.187   5.922  0.4689 -0.0976  0.0769
   30SAPC   C12 3950   4.047   2.273   6.028 -0.1058  0.4930 -0.2657
   30SAPC  H12A 3951   3.948   2.243   6.057 -0.0170  2.0295  1.9016
   30SAPC  H12B 3952   4.029   2.372   5.989 -1.6688  0.2167 -0.2987
   30SAPC   C13 3953   4.252   2.231   5.891  0.1715  0.0027 -0.8467
   30SAPC  H13A 3954   4.299   2.247   5.987 -0.8232 -0.6593 -0.2230
   30SAPC  H13B 3955   4.308   2.154   5.841  0.3325 -0.1904 -0.3721
   30SAPC  H13C 3956   4.261   2.326   5.841  1.4861 -0.3033 -1.2254
   30SAPC   C14 3957   4.117   2.043   5.972 -0.1843  0.0173 -0.0249
   30SAPC  H14A 3958   4.187   2.036   6.054  1.3510 -1.5087 -1.3811
   30SAPC  H14B 3959   4.022   2.000   5.999  0.7750  0.0589  3.9590
   30SAPC  H14C 3960   4.151   1.978   5.893 -2.5281 -0.8651 -0.3872
   30SAPC   C15 3961   4.034   2.198   5.791  0.1958  0.0693 -0.2436
   30SAPC  H15A 3962   4.088   2.148   5.712  0.2659 -4.2703  2.2418
   30SAPC  H15B 3963   3.935   2.155   5.789 -0.6356  1.8833 -1.5818
   30SAPC  H15C 3964   4.030   2.305   5.774  0.1984  0.4456  1.9005
   30SAPC   C11 3965   4.115   2.284   6.170  0.2385  0.3997  0.7295
   30SAPC  H11A 3966   4.148   2.182   6.198  1.5299 -0.4583 -3.3124
   30SAPC  H11B 3967   4.036   2.309   6.244  0.9874  3.2300  0.7071
   30SAPC     P 3968   4.205   2.530   6.165 -0.0783  0.0617 -0.1858
   30SAPC   O13 3969   4.341   2.592   6.133  0.9087  0.0040  0.0906
   30SAPC   O14 3970   4.094   2.562   6.068  0.1975 -0.2763  0.7648
   30SAPC   O12 3971   4.222   2.377   6.190  0.0840 -0.0604  0.1263
   30SAPC   O11 3972   4.159   2.575   6.308  0.1461  0.0395  0.5734
   30SAPC    C1 3973   4.146   2.711   6.341  0.1879 -1.3457  0.0063
   30SAPC    HA 3974   4.157   2.775   6.251  0.6277  0.8243  1.5168
   30SAPC    HB 3975   4.043   2.729   6.378  0.3083 -2.2544  0.8104
   30SAPC    C2 3976   4.237   2.757   6.460  0.3270  0.5721  0.4676
   30SAPC    HS 3977   4.343   2.744   6.427  0.7217  1.2387  1.4008
   30SAPC   O21 3978   4.203   2.668   6.570  0.4013 -0.0754 -0.1099
   30SAPC   C21 3979   4.304   2.623   6.648 -0.1845  0.1757 -0.4800
   30SAPC   O22 3980   4.421   2.630   6.619  0.2309 -0.1913  0.5767
   30SAPC   C22 3981   4.242   2.558   6.770 -0.4633 -0.2881 -0.3387
   30SAPC   H2R 3982   4.222   2.646   6.835 -4.4144 -0.3372 -1.2809
   30SAPC   H2S 3983   4.146   2.509   6.743 -0.3561  0.1574 -1.5819
   30SAPC    C3 3984   4.215   2.902   6.510  0.1929 -0.0854 -0.1161
   30SAPC    HX 3985   4.111   2.913   6.549 -0.4930  0.3101 -1.9252
   30SAPC    HY 3986   4.221   2.977   6.429  0.4312  1.3786  1.2090
   30SAPC   O31 3987   4.307   2.942   6.620 -0.1508  0.8421  0.0619
   30SAPC   C31 3988   4.414   3.014   6.585 -0.1214  0.1459 -0.7441
   30SAPC   O32 3989   4.434   3.066   6.476  0.1042 -0.1482  0.2862
   30SAPC   C32 3990   4.518   3.027   6.694 -0.0782  0.4541 -0.2708
   30SAPC   H2X 3991   4.510   3.133   6.725  0.1395  0.8488 -1.4899
   30SAPC   H2Y 3992   4.614   3.008   6.642 -0.0877 -1.8543  0.4663
   30SAPC   C23 3993   4.331   2.452   6.832 -0.3580 -0.0575 -0.1293
   30SAPC   H3R 3994   4.427   2.503   6.856 -1.3614  2.5959 -1.4347
   30SAPC   H3S 3995   4.347   2.367   6.762  0.2879  2.0364 -2.6784
   30SAPC   C24 3996   4.281   2.401   6.969  0.0380 -0.8602 -0.0013
   30SAPC   H4R 3997   4.201   2.329   6.942 -0.7451  0.0586 -0.2094
   30SAPC   H4S 3998   4.230   2.484   7.023 -0.2126 -0.6895 -0.4890
   30SAPC   C25 3999   4.389   2.340   7.052 -0.3947  0.7967  0.1477
   30SAPC   H5R 4000   4.452   2.274   6.991  1.0241 -1.0065  3.3579
   30SAPC   C26 4001   4.423   2.356   7.177  0.2667 -0.8813 -0.3258
   30SAPC   H6R 4002   4.520   2.316   7.212  0.6473  0.6131  0.4246
   30SAPC   C27 4003   4.357   2.452   7.276 -0.0659 -0.3937 -0.5269
   30SAPC   H7R 4004   4.329   2.546   7.224  1.1073 -0.0433 -0.5539
   30SAPC   H7S 4005   4.432   2.479   7.352 -2.0296 -0.4511  1.5252
   30SAPC   C28 4006   4.237   2.401   7.353  0.8860  0.0736 -0.1305
   30SAPC   H8R 4007   4.145   2.454   7.327  0.9989  1.0361  1.3119
   30SAPC   C29 4008   4.227   2.307   7.448 -0.1248  0.6399 -0.8946
   30SAPC   H9R 4009   4.134   2.294   7.507 -0.7159 -0.2012 -1.9761
   30SAPC  C210 4010   4.339   2.214   7.502  0.6590 -0.3051  0.0153
   30SAPC  H10R 4011   4.439   2.262   7.512  0.8828 -1.0233  1.4955
   30SAPC  H10S 4012   4.352   2.135   7.425 -0.1182 -0.2359 -0.1911
   30SAPC  C211 4013   4.304   2.144   7.628 -0.2139  1.0017 -0.1818
   30SAPC  H11R 4014   4.200   2.107   7.627 -0.1411  0.7581 -1.8268
   30SAPC  C212 4015   4.386   2.118   7.730 -0.0179  0.2434 -0.3450
   30SAPC  H12R 4016   4.359   2.074   7.827 -0.8309  0.8210 -0.2977
   30SAPC  C213 4017   4.522   2.176   7.727  0.3031 -0.0198  0.2987
   30SAPC  H13R 4018   4.517   2.287   7.721 -0.5636 -0.0724 -0.1192
   30SAPC  H13S 4019   4.572   2.139   7.634 -3.5838 -1.1984 -1.5498
   30SAPC  C214 4020   4.607   2.118   7.831  0.5895 -0.5482  0.4549
   30SAPC  H14R 4021   4.658   2.024   7.807 -0.6489 -0.8295 -1.2261
   30SAPC  C215 4022   4.619   2.157   7.954 -0.0740  0.5569 -0.6407
   30SAPC  H15R 4023   4.695   2.096   8.006 -1.6777 -1.6546 -0.7692
   30SAPC  C216 4024   4.550   2.272   8.024 -0.1397  0.0193  0.3923
   30SAPC  H16R 4025   4.451   2.234   8.057  1.1253 -2.2139  1.8120
   30SAPC  H16S 4026   4.532   2.353   7.950 -2.0654  0.8965  1.7236
   30SAPC  C217 4027   4.633   2.328   8.147 -0.2186 -0.0707  0.6534
   30SAPC  H17R 4028   4.570   2.406   8.195  0.3698 -0.2964  1.8359
   30SAPC  H17S 4029   4.737   2.365   8.130  0.1335 -0.1001  2.5848
   30SAPC  C218 4030   4.627   2.216   8.258 -0.0665 -0.8788  0.7142
   30SAPC  H18R 4031   4.709   2.149   8.223 -0.7681 -1.0338 -0.7130
   30SAPC  H18S 4032   4.537   2.152   8.253 -0.2144 -0.6476 -3.1666
   30SAPC  C219 4033   4.675   2.259   8.399 -0.4800 -0.1357 -0.3804
   30SAPC  H19R 4034   4.761   2.330   8.388 -1.0474  0.8708  1.2257
   30SAPC  H19S 4035   4.710   2.166   8.449 -2.2109  1.2519  3.8297
   30SAPC  C220 4036   4.579   2.336   8.496 -0.6668 -0.1771 -0.3659
   30SAPC  H20R 4037   4.607   2.328   8.603 -0.4295  1.9520 -0.2202
   30SAPC  H20S 4038   4.487   2.274   8.490 -1.3927  0.9854 -2.2463
   30SAPC  H20T 4039   4.569   2.445   8.477 -0.2320  0.0115  0.4607
   30SAPC   C33 4040   4.509   2.922   6.799 -0.4096 -0.2184 -1.2796
   30SAPC   H3X 4041   4.609   2.906   6.845 -0.9440  0.1065  0.0357
   30SAPC   H3Y 4042   4.490   2.822   6.754 -2.7953 -0.0117 -0.8139
   30SAPC   C34 4043   4.400   2.945   6.901 -0.3656 -0.5101  0.8656
   30SAPC   H4X 4044   4.313   2.908   6.842  0.2574 -0.8846  0.1644
   30SAPC   H4Y 4045   4.387   3.053   6.922  1.4077  0.0438 -0.6383
   30SAPC   C35 4046   4.414   2.867   7.031  0.3043  0.0471 -0.9700
   30SAPC   H5X 4047   4.444   2.762   7.013  1.9932  0.1588  0.8474
   30SAPC   H5Y 4048   4.318   2.871   7.087  1.3656  2.1630  0.8917
   30SAPC   C36 4049   4.504   2.930   7.138  0.0712  0.0954 -0.6268
   30SAPC   H6X 4050   4.604   2.944   7.091  0.8413  0.1283  0.9585
   30SAPC   H6Y 4051   4.503   2.862   7.226 -1.6791 -1.1799 -1.5618
   30SAPC   C37 4052   4.458   3.066   7.183  0.5547 -0.3979  0.4502
   30SAPC   H7X 4053   4.358   3.064   7.231 -0.0650  1.0985 -0.7071
   30SAPC   H7Y 4054   4.457   3.138   7.099 -1.4370 -0.8842  0.0051
   30SAPC   C38 4055   4.545   3.128   7.297 -0.2346  0.0685 -0.1965
   30SAPC   H8X 4056   4.497   3.225   7.323  3.0473  1.6066  0.6644
   30SAPC   H8Y 4057   4.648   3.147   7.262  0.1850 -0.5117  0.6699
   30SAPC   C39 4058   4.563   3.042   7.428  0.3661  0.9168  0.5693
   30SAPC   H9X 4059   4.616   3.098   7.508  0.3498  0.9186  0.5785
   30SAPC   H9Y 4060   4.621   2.952   7.399  1.2886  1.4837  0.6172
   30SAPC  C310 4061   4.429   3.002   7.491  0.5468 -0.4090  0.3131
   30SAPC  H10X 4062   4.360   2.955   7.417  1.5830 -0.1503 -0.8426
   30SAPC  H10Y 4063   4.367   3.089   7.520 -0.3245 -0.4512 -1.2950
   30SAPC  C311 4064   4.449   2.907   7.613 -0.6547 -0.1480 -0.4585
   30SAPC  H11X 4065   4.516   2.943   7.693 -0.8970  0.1840 -0.4026
   30SAPC  H11Y 4066   4.519   2.831   7.574  0.0502 -0.0378  0.5703
   30SAPC  C312 4067   4.317   2.854   7.680  0.3937  0.4896 -0.4590
   30SAPC  H12X 4068   4.275   2.796   7.595  2.2361 -0.5855 -0.7024
   30SAPC  H12Y 4069   4.250   2.942   7.692  1.5378  1.0248  3.3509
   30SAPC  C313 4070   4.342   2.767   7.804  0.0552 -1.6773  0.6768
   30SAPC  H13X 4071   4.374   2.831   7.889 -0.4372 -0.7825  0.2044
   30SAPC  H13Y 4072   4.430   2.704   7.780 -1.8808 -4.5584  0.6308
   30SAPC  C314 4073   4.214   2.680   7.834 -0.3135  0.8027 -1.0639
   30SAPC  H14X 4074   4.185   2.626   7.742 -1.4534  0.8081 -0.7239
   30SAPC  H14Y 4075   4.122   2.737   7.858  0.5693  1.2259  1.6946
   30SAPC  C315 4076   4.240   2.590   7.959  0.1423 -0.0495  0.2280
   30SAPC  H15X 4077   4.342   2.551   7.940 -0.7909 -2.6867  0.1939
   30SAPC  H15Y 4078   4.160   2.515   7.979 -1.7636  2.3455  2.1167
   30SAPC  C316 4079   4.254   2.679   8.087  0.1706  1.1155  0.5317
   30SAPC  H16X 4080   4.162   2.739   8.103 -0.2840  0.3970  0.6260
   30SAPC  H16Y 4081   4.342   2.745   8.069  1.4186 -0.7272 -0.5064
   30SAPC  C317 4082   4.284   2.603   8.215  0.6086 -0.1032  0.6839
   30SAPC  H17X 4083   4.359   2.529   8.179  0.4448 -0.2232  0.5913
   30SAPC  H17Y 4084   4.201   2.538   8.249  0.5693 -1.4213 -1.7285
   30SAPC  C318 4085   4.333   2.679   8.336  0.3182  0.3162 -0.6252
   30SAPC  H18X 4086   4.257   2.744   8.386  0.2244 -0.3243  0.0829
   30SAPC  H18Y 4087   4.426   2.734   8.311  1.3686 -1.0042  0.2459
   30SAPC  H18Z 4088   4.361   2.595   8.403 -1.3061  1.7607  2.0424
   31SAPC     N 4089   3.592   4.522   6.174 -0.0420 -0.2674  0.3772
   31SAPC   C12 4090   3.624   4.611   6.290 -0.1579 -0.3609  0.1417
   31SAPC  H12A 4091   3.543   4.679   6.314  0.0573 -0.4837  1.2636
   31SAPC  H12B 4092   3.712   4.671   6.273  1.4613 -2.9540 -1.1275
   31SAPC   C13 4093   3.466   4.435   6.180  0.2489 -0.1913  0.9907
   31SAPC  H13A 4094   3.376   4.490   6.204 -0.1531 -0.2228 -0.3523
   31SAPC  H13B 4095   3.460   4.380   6.087 -1.4549 -0.5198  1.2761
   31SAPC  H13C 4096   3.477   4.372   6.267  0.2191 -0.8310  0.5377
   31SAPC   C14 4097   3.579   4.611   6.055  0.2886 -0.4376 -0.1423
   31SAPC  H14A 4098   3.675   4.661   6.047  1.3083 -2.0177  1.3065
   31SAPC  H14B 4099   3.568   4.550   5.967  1.4796  1.3697 -1.6043
   31SAPC  H14C 4100   3.503   4.685   6.073  2.6703  1.9060  0.9400
   31SAPC   C15 4101   3.702   4.432   6.153 -0.0413  0.7998  0.0242
   31SAPC  H15A 4102   3.704   4.348   6.221 -0.8756 -0.8641 -1.9050
   31SAPC  H15B 4103   3.692   4.385   6.057  2.3711 -1.2810  0.6999
   31SAPC  H15C 4104   3.801   4.474   6.161  0.9893 -1.6497  1.0219
   31SAPC   C11 4105   3.651   4.531   6.418  0.7535 -0.2745  0.0139
   31SAPC  H11A 4106   3.558   4.472   6.433 -0.5126  1.2396 -1.4576
   31SAPC  H11B 4107   3.667   4.609   6.496 -0.0897 -0.8895  0.8265
   31SAPC     P 4108   3.780   4.320   6.514  0.1749 -0.5161 -0.2147
   31SAPC   O13 4109   3.659   4.238   6.495  0.4934  0.3888  0.0201
   31SAPC   O14 4110   3.906   4.257   6.472  0.2415 -1.0617  1.1950
   31SAPC   O12 4111   3.761   4.440   6.418 -0.0241  0.7814 -0.2062
   31SAPC   O11 4112   3.784   4.391   6.651 -0.4046 -0.1608 -0.1633
   31SAPC    C1 4113   3.878   4.500   6.671  0.2156  1.4289  0.3521
   31SAPC    HA 4114   3.971   4.482   6.613  0.3774 -2.3286  1.5135
   31SAPC    HB 4115   3.824   4.593   6.642 -0.8031  1.1474  1.3026
   31SAPC    C2 4116   3.902   4.525   6.821  1.0364 -0.3024 -1.1586
   31SAPC    HS 4117   3.939   4.628   6.839 -0.5465  0.4063 -1.7250
   31SAPC   O21 4118   3.990   4.424   6.876 -0.0359 -0.0832  0.5996
   31SAPC   C21 4119   4.119   4.446   6.844 -0.2038  0.0134 -0.3144
   31SAPC   O22 4120   4.160   4.537   6.774  0.0806  0.2117 -0.3509
   31SAPC   C22 4121   4.220   4.349   6.915  0.6995  0.1470 -0.1472
   31SAPC   H2R 4122   4.226   4.369   7.024 -1.2472  0.4029 -0.0571
   31SAPC   H2S 4123   4.186   4.245   6.894 -0.4487  0.1960  1.3504
   31SAPC    C3 4124   3.759   4.523   6.896 -0.5504 -0.1882 -1.2524
   31SAPC    HX 4125   3.702   4.431   6.872  0.3029 -0.4296 -2.4184
   31SAPC    HY 4126   3.705   4.606   6.846  1.1400  0.4102 -2.1570
   31SAPC   O31 4127   3.781   4.535   7.041  0.2933  0.1086 -0.2226
   31SAPC   C31 4128   3.758   4.655   7.083  0.0930  0.8442  0.1855
   31SAPC   O32 4129   3.710   4.748   7.022 -0.6606 -0.1298  0.4619
   31SAPC   C32 4130   3.824   4.657   7.224  0.5928 -0.3225  0.0244
   31SAPC   H2X 4131   3.930   4.626   7.212  1.3268  2.0964 -0.2119
   31SAPC   H2Y 4132   3.770   4.576   7.278 -2.3100  0.1391 -1.9377
   31SAPC   C23 4133   4.367   4.366   6.858 -0.1450  0.7105  0.1695
   31SAPC   H3R 4134   4.385   4.474   6.880 -1.7878  0.9724  0.4073
   31SAPC   H3S 4135   4.367   4.335   6.751 -1.0259  0.0465  0.3524
   31SAPC   C24 4136   4.462   4.283   6.944  0.6469 -0.3537  0.8993
   31SAPC   H4R 4137   4.477   4.330   7.044 -0.0907 -0.2910  0.9908
   31SAPC   H4S 4138   4.561   4.294   6.895 -0.9777  0.9423 -2.3855
   31SAPC   C25 4139   4.410   4.143   6.957  0.2105  0.0660  0.0871
   31SAPC   H5R 4140   4.385   4.087   6.865  1.0316 -0.1343 -0.0197
   31SAPC   C26 4141   4.405   4.080   7.076 -0.3533 -0.2815  0.4983
   31SAPC   H6R 4142   4.335   3.995   7.078 -0.8913  0.1503  0.2800
   31SAPC   C27 4143   4.447   4.111   7.223  0.1706 -0.1318  0.3949
   31SAPC   H7R 4144   4.352   4.144   7.270  0.9152  3.1112 -0.1238
   31SAPC   H7S 4145   4.510   4.203   7.216  2.1647 -1.2905  2.0371
   31SAPC   C28 4146   4.510   3.980   7.273 -0.6993  0.5113 -0.3116
   31SAPC   H8R 4147   4.562   3.914   7.201 -0.7244 -0.9468  0.9600
   31SAPC   C29 4148   4.513   3.951   7.405 -0.5401 -0.0104  0.5751
   31SAPC   H9R 4149   4.547   3.851   7.435  0.0651  0.4372  1.3952
   31SAPC  C210 4150   4.465   4.037   7.514 -0.3307 -0.1090  0.1594
   31SAPC  H10R 4151   4.467   3.982   7.611  1.3362 -1.4109 -0.5628
   31SAPC  H10S 4152   4.360   4.070   7.502 -0.3709  0.9078  2.5848
   31SAPC  C211 4153   4.559   4.157   7.530  0.0345 -0.6210 -0.2913
   31SAPC  H11R 4154   4.614   4.189   7.441 -0.8206 -0.6581 -0.8425
   31SAPC  C212 4155   4.578   4.226   7.641 -0.6040 -0.5255  0.6511
   31SAPC  H12R 4156   4.657   4.302   7.635  0.5450 -1.8054 -2.5317
   31SAPC  C213 4157   4.503   4.211   7.774  0.1350 -0.4817 -0.7187
   31SAPC  H13R 4158   4.586   4.190   7.844 -1.0295 -0.5388  0.6740
   31SAPC  H13S 4159   4.428   4.129   7.777 -1.3001  0.7986 -0.2169
   31SAPC  C214 4160   4.437   4.344   7.808  0.8702  0.2727 -0.2411
   31SAPC  H14R 4161   4.498   4.411   7.870 -0.4413 -0.1174  1.5568
   31SAPC  C215 4162   4.316   4.384   7.757  0.5023  0.1149 -0.7654
   31SAPC  H15R 4163   4.274   4.482   7.781  1.4631  1.4107 -3.7664
   31SAPC  C216 4164   4.228   4.315   7.655 -0.3196  0.1215  0.2147
   31SAPC  H16R 4165   4.126   4.306   7.698 -0.1494  1.7031  1.0130
   31SAPC  H16S 4166   4.259   4.211   7.627 -1.4098  0.2125 -1.4817
   31SAPC  C217 4167   4.215   4.391   7.526  0.2504 -0.5638  0.5158
   31SAPC  H17R 4168   4.312   4.395   7.473 -1.2840  2.4341 -2.4724
   31SAPC  H17S 4169   4.187   4.498   7.539 -0.7059 -0.8705  1.0846
   31SAPC  C218 4170   4.099   4.333   7.444  0.0637  0.7480  0.3157
   31SAPC  H18R 4171   3.996   4.341   7.484 -0.6819 -1.8238 -0.8534
   31SAPC  H18S 4172   4.113   4.223   7.438  0.9119  0.8311  0.6250
   31SAPC  C219 4173   4.109   4.389   7.297  0.1770  0.8449 -0.1288
   31SAPC  H19R 4174   4.211   4.372   7.255  0.6263 -0.1613  1.3054
   31SAPC  H19S 4175   4.090   4.498   7.305 -3.9277  0.2369  0.4343
   31SAPC  C220 4176   4.009   4.331   7.204 -0.5209 -0.1802  0.6837
   31SAPC  H20R 4177   4.004   4.220   7.218 -1.2546 -0.1439  0.7676
   31SAPC  H20S 4178   4.026   4.358   7.098 -0.6797 -1.1175  0.4109
   31SAPC  H20T 4179   3.907   4.363   7.234 -0.7497 -1.5824  1.5514
   31SAPC   C33 4180   3.815   4.785   7.300 -0.4558  0.1990 -0.3337
   31SAPC   H3X 4181   3.726   4.844   7.270 -1.9370 -1.6455  0.1855
   31SAPC   H3Y 4182   3.890   4.856   7.260 -2.9559  2.5257 -1.1703
   31SAPC   C34 4183   3.802   4.772   7.448 -0.1921 -1.2419  0.3634
   31SAPC   H4X 4184   3.716   4.713   7.487  1.0665 -2.7526  0.9622
   31SAPC   H4Y 4185   3.797   4.869   7.501  0.5169  0.8117 -3.0528
   31SAPC   C35 4186   3.936   4.717   7.499  0.7104 -0.6440  0.5964
   31SAPC   H5X 4187   4.019   4.789   7.484  0.1075 -0.0965 -0.2181
   31SAPC   H5Y 4188   3.953   4.619   7.450  2.0974 -0.9931  1.7220
   31SAPC   C36 4189   3.924   4.686   7.651 -0.1770 -0.6481 -0.3046
   31SAPC   H6X 4190   4.019   4.643   7.690 -0.0567 -0.1835 -0.0738
   31SAPC   H6Y 4191   3.845   4.611   7.670 -1.0596  0.1790 -0.6174
   31SAPC   C37 4192   3.898   4.804   7.742  0.4268 -0.0329  0.6305
   31SAPC   H7X 4193   3.792   4.833   7.724  0.2512 -1.8769 -1.7789
   31SAPC   H7Y 4194   3.965   4.889   7.716  2.6295 -1.1587  2.3180
   31SAPC   C38 4195   3.926   4.777   7.892 -0.3127 -0.0460 -0.5977
   31SAPC   H8X 4196   4.029   4.737   7.901 -0.5832 -0.2385  3.4835
   31SAPC   H8Y 4197   3.855   4.704   7.936  2.0779 -1.6462  0.7685
   31SAPC   C39 4198   3.911   4.897   7.992 -0.4982  0.5293 -0.1262
   31SAPC   H9X 4199   3.889   4.849   8.090 -0.5669 -0.3987 -0.5890
   31SAPC   H9Y 4200   3.812   4.936   7.959 -0.4346 -0.1824 -1.2123
   31SAPC  C310 4201   4.023   5.000   7.997 -1.0549 -0.4568  0.0914
   31SAPC  H10X 4202   4.057   5.025   7.894  0.0311  0.1185  0.5794
   31SAPC  H10Y 4203   4.112   4.961   8.052 -1.3750 -0.0384  0.9254
   31SAPC  C311 4204   3.994   5.136   8.060 -0.0436  0.4084  1.2771
   31SAPC  H11X 4205   3.938   5.190   7.980  1.8908  2.0612  0.9798
   31SAPC  H11Y 4206   4.091   5.187   8.077  1.4432 -1.3938 -1.0988
   31SAPC  C312 4207   3.912   5.133   8.194 -0.1268 -0.3052 -0.4353
   31SAPC  H12X 4208   3.814   5.082   8.182 -1.0704  0.6082  2.4478
   31SAPC  H12Y 4209   3.898   5.240   8.223  0.8123 -0.4830  0.7415
   31SAPC  C313 4210   4.005   5.070   8.298  0.5405  0.4815 -0.4683
   31SAPC  H13X 4211   4.101   5.125   8.300  1.0733 -0.4582  0.7800
   31SAPC  H13Y 4212   4.012   4.963   8.270  0.1310  1.0225 -2.8727
   31SAPC  C314 4213   3.945   5.092   8.443  0.4906  1.0334 -0.1386
   31SAPC  H14X 4214   3.948   5.005   8.512  0.0581  0.9417 -0.2261
   31SAPC  H14Y 4215   3.836   5.117   8.446  0.3014  0.2479 -0.0551
   31SAPC  C315 4216   4.015   5.207   8.527 -0.0521 -0.0039 -0.4138
   31SAPC  H15X 4217   4.108   5.160   8.563 -1.0827 -1.1048  0.9381
   31SAPC  H15Y 4218   3.940   5.232   8.606 -0.0207  1.2653 -0.7651
   31SAPC  C316 4219   4.043   5.332   8.448 -0.1979  0.0137 -0.1066
   31SAPC  H16X 4220   3.951   5.376   8.404  0.2282  1.1334  0.1034
   31SAPC  H16Y 4221   4.115   5.315   8.364 -0.6438 -1.1118 -0.2858
   31SAPC  C317 4222   4.100   5.437   8.539 -0.4042  0.3187  0.4014
   31SAPC  H17X 4223   4.135   5.527   8.484 -0.4091 -1.2373 -2.3219
   31SAPC  H17Y 4224   4.196   5.411   8.590  0.2981  2.7584  0.4428
   31SAPC  C318 4225   4.008   5.491   8.649  1.3715 -0.1353 -0.2813
   31SAPC  H18X 4226   3.980   5.407   8.716  0.8300 -0.7372 -1.2393
   31SAPC  H18Y 4227   3.916   5.519   8.593  1.8975  1.3787 -0.4269
   31SAPC  H18Z 4228   4.046   5.570   8.717 -0.9161  0.6463  0.1684
   32SAPC     N 4229   0.705   4.694   5.909  0.5208  0.0690 -0.2952
   32SAPC   C12 4230   0.569   4.663   5.974  0.5014 -0.4720 -0.0809
   32SAPC  H12A 4231   0.580   4.617   6.071 -1.0134 -2.1617 -0.6459
   32SAPC  H12B 4232   0.528   4.591   5.904 -1.8756  2.4189 -1.9146
   32SAPC   C13 4233   0.673   4.772   5.782 -0.4565 -0.3131 -0.0087
   32SAPC  H13A 4234   0.677   4.878   5.798 -0.7826 -0.1376 -1.0060
   32SAPC  H13B 4235   0.743   4.740   5.705  0.0377  2.4473 -0.7995
   32SAPC  H13C 4236   0.573   4.747   5.749 -0.3934 -1.7961  0.8429
   32SAPC   C14 4237   0.794   4.775   5.999  0.0722 -0.2385  0.2089
   32SAPC  H14A 4238   0.738   4.865   6.024  1.3022  1.0006 -1.2985
   32SAPC  H14B 4239   0.839   4.722   6.082 -0.5801  0.9382  1.3552
   32SAPC  H14C 4240   0.871   4.826   5.943 -1.0690  3.7608  1.9015
   32SAPC   C15 4241   0.771   4.559   5.889  0.2423 -0.2885  0.5730
   32SAPC  H15A 4242   0.719   4.500   5.814  0.5814  0.6407 -0.4271
   32SAPC  H15B 4243   0.867   4.572   5.841 -0.3759  1.4224 -0.2835
   32SAPC  H15C 4244   0.786   4.501   5.979  0.5036  0.2221  0.8616
   32SAPC   C11 4245   0.473   4.782   5.995 -0.6326 -0.2238 -0.4581
   32SAPC  H11A 4246   0.384   4.731   6.037 -0.2833 -2.5737 -2.3946
   32SAPC  H11B 4247   0.438   4.825   5.898 -0.9458  2.3784  0.7109
   32SAPC     P 4248   0.501   4.891   6.238  0.2752  0.1487 -0.5789
   32SAPC   O13 4249   0.369   4.824   6.264 -0.5931 -0.3066  0.2477
   32SAPC   O14 4250   0.617   4.835   6.309 -0.1570  0.1669 -0.4251
   32SAPC   O12 4251   0.526   4.887   6.079 -0.2264 -0.6339  0.3408
   32SAPC   O11 4252   0.481   5.048   6.250 -0.0380  0.0690  0.2188
   32SAPC    C1 4253   0.580   5.149   6.269 -0.4594  0.3587 -0.2188
   32SAPC    HA 4254   0.684   5.112   6.255 -0.2537  1.2950 -1.3451
   32SAPC    HB 4255   0.572   5.234   6.198  0.3303  0.4340 -0.2362
   32SAPC    C2 4256   0.563   5.207   6.409  0.0183  0.2191 -0.0856
   32SAPC    HS 4257   0.633   5.291   6.428 -2.1297  1.6263  2.3012
   32SAPC   O21 4258   0.574   5.114   6.515  0.0089  0.1826 -0.1989
   32SAPC   C21 4259   0.698   5.066   6.532  0.3916 -0.8203 -0.4465
   32SAPC   O22 4260   0.798   5.105   6.475 -0.3599  0.2657  0.5702
   32SAPC   C22 4261   0.700   4.970   6.652 -0.0761  0.7370 -0.5056
   32SAPC   H2R 4262   0.658   4.874   6.615 -3.2242  2.4820 -1.7767
   32SAPC   H2S 4263   0.804   4.951   6.687  0.1067 -3.0859 -2.5963
   32SAPC    C3 4264   0.421   5.254   6.427  0.1414  0.1481 -0.3150
   32SAPC    HX 4265   0.341   5.178   6.420 -1.2712  1.3619  1.5581
   32SAPC    HY 4266   0.402   5.328   6.346  3.1768 -0.4721 -1.7187
   32SAPC   O31 4267   0.414   5.315   6.558 -0.1745 -0.0836 -0.6295
   32SAPC   C31 4268   0.299   5.387   6.578  0.0677  0.1747 -0.2484
   32SAPC   O32 4269   0.214   5.389   6.495  0.5393 -0.1839  0.5387
   32SAPC   C32 4270   0.291   5.451   6.715 -0.1905 -0.1286 -0.2120
   32SAPC   H2X 4271   0.362   5.536   6.712 -1.9056  1.3361 -1.4958
   32SAPC   H2Y 4272   0.322   5.378   6.793 -1.2312 -0.0866  0.2488
   32SAPC   C23 4273   0.602   5.014   6.764 -0.2691  0.4467  0.2484
   32SAPC   H3R 4274   0.595   4.934   6.841  2.8827  1.3610  1.6589
   32SAPC   H3S 4275   0.505   5.038   6.715  1.2289  0.5977 -2.9176
   32SAPC   C24 4276   0.643   5.148   6.832 -0.5331 -0.1978 -0.3693
   32SAPC   H4R 4277   0.558   5.162   6.901  0.7265 -0.8175  1.3768
   32SAPC   H4S 4278   0.663   5.226   6.756  2.1457 -0.1005  0.3202
   32SAPC   C25 4279   0.775   5.136   6.914  0.0499  1.0966 -0.0414
   32SAPC   H5R 4280   0.870   5.150   6.861 -0.8037  1.1646 -1.6258
   32SAPC   C26 4281   0.784   5.098   7.043 -0.1766 -0.1867 -0.1105
   32SAPC   H6R 4282   0.886   5.095   7.084  0.8852  0.6244 -2.4851
   32SAPC   C27 4283   0.678   5.060   7.141  0.0942  0.5176 -0.1597
   32SAPC   H7R 4284   0.574   5.066   7.102 -0.1472  0.6556  0.4961
   32SAPC   H7S 4285   0.686   5.140   7.218 -1.8867  0.9402 -0.3373
   32SAPC   C28 4286   0.699   4.919   7.203  0.4628  0.4554 -0.1989
   32SAPC   H8R 4287   0.644   4.841   7.148 -1.9003  1.2398  0.8998
   32SAPC   C29 4288   0.728   4.880   7.323 -0.1864  0.0748  0.6107
   32SAPC   H9R 4289   0.726   4.772   7.344 -0.1372 -0.1615 -0.5284
   32SAPC  C210 4290   0.775   4.970   7.433 -0.4554  0.2481 -0.4377
   32SAPC  H10R 4291   0.694   4.997   7.503  0.2504 -0.2365  0.5912
   32SAPC  H10S 4292   0.819   5.065   7.395  2.4268 -1.1784 -0.9548
   32SAPC  C211 4293   0.887   4.897   7.501 -0.3013 -1.0396 -1.0614
   32SAPC  H11R 4294   0.967   4.860   7.435 -0.8964  0.3127 -2.5907
   32SAPC  C212 4295   0.896   4.877   7.637 -0.1049 -0.2352  0.7448
   32SAPC  H12R 4296   0.986   4.831   7.680  0.6696  1.1205  0.6111
   32SAPC  C213 4297   0.799   4.913   7.754 -0.8473  0.1807 -0.1242
   32SAPC  H13R 4298   0.726   4.987   7.715  3.0034  4.0458 -0.8058
   32SAPC  H13S 4299   0.856   4.978   7.824  2.4786  1.0128 -3.3243
   32SAPC  C214 4300   0.736   4.794   7.824  0.0468  0.4043 -0.7981
   32SAPC  H14R 4301   0.656   4.739   7.772  2.5881 -1.8006 -2.6760
   32SAPC  C215 4302   0.744   4.755   7.954 -0.6100  0.0816  0.4693
   32SAPC  H15R 4303   0.688   4.667   7.990 -0.9766  0.5380  1.0429
   32SAPC  C216 4304   0.846   4.819   8.044  0.2093  0.1109 -0.0410
   32SAPC  H16R 4305   0.943   4.835   7.992 -0.0565 -1.8989 -1.2789
   32SAPC  H16S 4306   0.860   4.740   8.121  3.6962 -0.0074 -0.6403
   32SAPC  C217 4307   0.788   4.953   8.107  0.0261  0.0392 -0.2176
   32SAPC  H17R 4308   0.775   5.024   8.024  3.7295 -0.0457 -1.0283
   32SAPC  H17S 4309   0.860   4.997   8.179  0.6328  0.3014 -0.9752
   32SAPC  C218 4310   0.663   4.928   8.194 -0.8821  0.2528  0.5124
   32SAPC  H18R 4311   0.659   4.820   8.221  0.7003 -0.1260 -0.6467
   32SAPC  H18S 4312   0.570   4.945   8.135 -0.1615 -0.0717 -0.7482
   32SAPC  C219 4313   0.648   5.003   8.328  0.4197 -0.5236 -0.1708
   32SAPC  H19R 4314   0.730   4.977   8.397  1.2137  0.4063 -0.7385
   32SAPC  H19S 4315   0.551   4.966   8.368  0.3786 -0.0075  0.2342
   32SAPC  C220 4316   0.641   5.158   8.328  0.1353 -0.3079  0.3670
   32SAPC  H20R 4317   0.741   5.202   8.304 -0.0791 -0.7910 -1.5625
   32SAPC  H20S 4318   0.603   5.209   8.419  0.6437  4.2434 -1.6861
   32SAPC  H20T 4319   0.588   5.200   8.240  1.1814 -1.8053 -1.0389
   32SAPC   C33 4320   0.158   5.524   6.734  0.1223  0.5407  0.3123
   32SAPC   H3X 4321   0.076   5.449   6.738  1.5138 -1.1815 -1.3749
   32SAPC   H3Y 4322   0.139   5.576   6.638  2.4915  1.4967  0.3022
   32SAPC   C34 4323   0.151   5.620   6.850  0.2649 -0.3625 -0.6588
   32SAPC   H4X 4324   0.051   5.664   6.870  1.0646  2.3947 -2.2342
   32SAPC   H4Y 4325   0.221   5.704   6.832 -0.2753  0.2509  0.0178
   32SAPC   C35 4326   0.202   5.556   6.984 -0.8437 -0.9441 -0.3366
   32SAPC   H5X 4327   0.299   5.511   6.956 -1.0339 -0.7411 -1.3804
   32SAPC   H5Y 4328   0.134   5.474   7.017 -2.0003  0.2209  0.2823
   32SAPC   C36 4329   0.208   5.664   7.093 -0.2561  0.6186  0.4973
   32SAPC   H6X 4330   0.106   5.704   7.108 -1.5806 -2.4977  0.7506
   32SAPC   H6Y 4331   0.279   5.735   7.044  0.6854 -1.4670 -1.3742
   32SAPC   C37 4332   0.264   5.611   7.226  0.2793 -0.2913  1.0332
   32SAPC   H7X 4333   0.372   5.590   7.217  0.4497  0.4222  1.3323
   32SAPC   H7Y 4334   0.219   5.521   7.272 -0.9296  0.4740  1.4134
   32SAPC   C38 4335   0.255   5.713   7.334  0.0179 -0.1998 -0.0417
   32SAPC   H8X 4336   0.149   5.737   7.357 -0.2801 -0.5632 -1.0077
   32SAPC   H8Y 4337   0.296   5.811   7.301 -0.5347  0.6239  1.6126
   32SAPC   C39 4338   0.332   5.682   7.457 -0.5011  0.0401 -0.5711
   32SAPC   H9X 4339   0.436   5.648   7.435 -0.0271 -0.8089  2.5800
   32SAPC   H9Y 4340   0.278   5.609   7.520 -0.3831  2.1811  2.1598
   32SAPC  C310 4341   0.349   5.802   7.548  0.0020  0.2422 -0.3201
   32SAPC  H10X 4342   0.247   5.819   7.587 -0.9780 -1.8498 -1.7495
   32SAPC  H10Y 4343   0.377   5.893   7.491 -2.2403  1.2021  0.0364
   32SAPC  C311 4344   0.441   5.779   7.669  0.0434  0.0171 -0.1475
   32SAPC  H11X 4345   0.452   5.877   7.720 -0.0222  0.9764 -1.8912
   32SAPC  H11Y 4346   0.544   5.773   7.627  0.3395 -0.8999  0.6779
   32SAPC  C312 4347   0.378   5.677   7.771  0.4527  0.6271 -0.4998
   32SAPC  H12X 4348   0.367   5.574   7.730 -0.2241 -0.8996  3.1639
   32SAPC  H12Y 4349   0.277   5.718   7.788  0.8460  0.6981  2.0053
   32SAPC  C313 4350   0.446   5.670   7.907 -0.4212 -0.3828 -0.3449
   32SAPC  H13X 4351   0.542   5.724   7.891 -0.1315 -0.7134  0.2350
   32SAPC  H13Y 4352   0.477   5.569   7.943 -0.5448  1.0487  4.3979
   32SAPC  C314 4353   0.366   5.731   8.018  0.6677 -0.2845  0.5322
   32SAPC  H14X 4354   0.271   5.676   8.036  0.8489 -0.7140  0.2051
   32SAPC  H14Y 4355   0.352   5.839   8.000 -0.1130 -0.3005  1.0267
   32SAPC  C315 4356   0.440   5.714   8.154 -0.1228  0.9801 -0.2960
   32SAPC  H15X 4357   0.542   5.757   8.155  0.9751 -1.3128  2.9993
   32SAPC  H15Y 4358   0.462   5.607   8.175 -2.6245 -0.5099 -4.1201
   32SAPC  C316 4359   0.353   5.780   8.260 -0.2045  0.3760 -0.3981
   32SAPC  H16X 4360   0.245   5.756   8.251 -0.0878 -0.0873 -0.5922
   32SAPC  H16Y 4361   0.365   5.888   8.238  2.0625  0.5853  1.4680
   32SAPC  C317 4362   0.407   5.758   8.404  0.8302 -0.2572  0.5205
   32SAPC  H17X 4363   0.504   5.809   8.421  0.4620  0.3993  0.6660
   32SAPC  H17Y 4364   0.429   5.650   8.420 -1.4418 -0.4630  2.9117
   32SAPC  C318 4365   0.301   5.797   8.513  1.0738 -0.0521 -0.5659
   32SAPC  H18X 4366   0.329   5.744   8.606  0.1853 -0.7150 -0.6683
   32SAPC  H18Y 4367   0.198   5.767   8.486  1.5229 -1.9235 -0.3273
   32SAPC  H18Z 4368   0.309   5.907   8.525 -0.6624  0.1403 -0.9309
   33POPC     N 4369   5.519   6.442  10.892  0.2519  0.1052 -0.5352
   33POPC   C12 4370   5.433   6.355  10.802  0.5945 -0.1346  0.6456
   33POPC  H12A 4371   5.437   6.250  10.827 -0.9225  0.0156  1.6193
   33POPC  H12B 4372   5.465   6.354  10.699  0.9535 -2.0249  0.7368
   33POPC   C13 4373   5.454   6.456  11.027  0.1781 -0.8301 -0.3921
   33POPC  H13A 4374   5.374   6.528  11.018 -0.2629 -1.2550  0.0798
   33POPC  H13B 4375   5.427   6.363  11.074  0.9703 -0.3651  1.0612
   33POPC  H13C 4376   5.530   6.502  11.089  0.8260 -0.6571 -1.2801
   33POPC   C14 4377   5.649   6.378  10.917 -0.2995  0.4768 -0.5249
   33POPC  H14A 4378   5.647   6.282  10.967  1.5066  0.6034 -0.1416
   33POPC  H14B 4379   5.705   6.367  10.825  0.3454  1.2352 -0.2315
   33POPC  H14C 4380   5.716   6.442  10.972  0.9559 -1.8022  0.7700
   33POPC   C15 4381   5.542   6.579  10.836  0.0109 -0.2717 -0.5370
   33POPC  H15A 4382   5.455   6.627  10.794  1.4267  1.4944 -1.5637
   33POPC  H15B 4383   5.605   6.563  10.750 -1.6922 -3.3824 -1.3815
   33POPC  H15C 4384   5.598   6.645  10.900  1.9868 -0.8634 -1.5709
   33POPC   C11 4385   5.287   6.394  10.786  0.3963 -0.2844 -0.1002
   33POPC  H11A 4386   5.225   6.370  10.875  0.6216 -1.8450 -0.3290
   33POPC  H11B 4387   5.251   6.318  10.713 -1.4187  1.1208 -0.7318
   33POPC     P 4388   5.269   6.575  10.591  0.0854  0.2657 -0.0600
   33POPC   O13 4389   5.397   6.643  10.561  0.2028 -0.1216 -0.4754
   33POPC   O14 4390   5.145   6.661  10.568  0.3354  0.1281 -0.1953
   33POPC   O12 4391   5.276   6.531  10.738  0.5334  0.1558 -0.1719
   33POPC   O11 4392   5.265   6.442  10.511 -0.1689  0.3969 -0.1675
   33POPC    C1 4393   5.146   6.387  10.460 -0.2113  0.5977 -0.0292
   33POPC    HA 4394   5.118   6.285  10.494  0.5986 -0.0487 -1.2018
   33POPC    HB 4395   5.058   6.453  10.477  0.4735  1.4176  0.3785
   33POPC    C2 4396   5.165   6.364  10.300 -0.2982 -0.1649 -0.5406
   33POPC    HS 4397   5.249   6.293  10.285 -0.8719 -0.7985 -0.8266
   33POPC   O21 4398   5.194   6.492  10.251  0.0170  0.1874 -1.0678
   33POPC   C21 4399   5.276   6.487  10.150 -1.3248  0.0597  0.1440
   33POPC   O22 4400   5.333   6.388  10.107  0.9838  0.6020 -0.1562
   33POPC   C22 4401   5.299   6.626  10.088  0.4028  0.0708  0.4616
   33POPC   H2R 4402   5.410   6.637  10.082  0.3540  0.6910  0.6108
   33POPC   H2S 4403   5.258   6.701  10.159 -1.8366 -1.9770  1.4616
   33POPC    C3 4404   5.040   6.295  10.232  0.1071 -1.0134 -0.2480
   33POPC    HX 4405   4.957   6.365  10.256  1.8166  1.3050 -0.6764
   33POPC    HY 4406   5.032   6.197  10.283 -0.4681 -0.1502  1.4052
   33POPC   O31 4407   5.050   6.287  10.088 -0.1765 -0.5877  0.3435
   33POPC   C31 4408   5.122   6.185  10.046 -0.2154  0.2635 -0.5375
   33POPC   O32 4409   5.173   6.094  10.111 -0.3116 -0.6252  0.1543
   33POPC   C32 4410   5.113   6.193   9.891 -0.2842  0.7034 -0.2286
   33POPC   H2X 4411   5.119   6.298   9.855  0.5163  0.5166 -0.6878
   33POPC   H2Y 4412   5.013   6.152   9.868 -0.2259  0.5875 -0.2764
   33POPC   C23 4413   5.223   6.641   9.952  0.1199 -0.3818  0.0977
   33POPC   H3R 4414   5.213   6.747   9.921  0.4362 -0.2186  0.5424
   33POPC   H3S 4415   5.121   6.603   9.973 -0.1787  0.3863  0.0688
   33POPC   C24 4416   5.277   6.555   9.831 -0.0931  0.3182  0.1058
   33POPC   H4R 4417   5.291   6.451   9.868  2.2645  0.2941 -0.6992
   33POPC   H4S 4418   5.373   6.593   9.791  0.0252  0.4776  0.5411
   33POPC   C25 4419   5.181   6.555   9.712 -0.0252 -0.3753 -1.0655
   33POPC   H5R 4420   5.125   6.651   9.706 -0.7308 -0.6856  0.0741
   33POPC   H5S 4421   5.100   6.480   9.725  0.4641 -0.6491  0.7669
   33POPC   C26 4422   5.251   6.550   9.570 -0.3473  0.2270  0.0500
   33POPC   H6R 4423   5.302   6.452   9.561  1.7598  1.2960 -0.2675
   33POPC   H6S 4424   5.329   6.628   9.566 -1.1522  1.1675  1.8810
   33POPC   C27 4425   5.140   6.573   9.453 -0.4865 -0.7266  0.5675
   33POPC   H7R 4426   5.079   6.661   9.482  0.1871  0.5735 -1.6793
   33POPC   H7S 4427   5.067   6.490   9.458  1.2174 -2.3060  0.3383
   33POPC   C28 4428   5.204   6.589   9.309  0.0402 -0.2316 -0.8374
   33POPC   H8R 4429   5.283   6.667   9.300  3.1564 -3.1925 -1.1059
   33POPC   H8S 4430   5.124   6.598   9.232  0.4250  0.3998 -1.1735
   33POPC   C29 4431   5.263   6.455   9.277 -0.1616 -0.0981  0.1087
   33POPC   H91 4432   5.297   6.401   9.367  0.5458 -0.3173 -0.2833
   33POPC  C210 4433   5.269   6.388   9.162 -1.0119 -0.1436  0.1750
   33POPC  H101 4434   5.300   6.283   9.155 -2.8513 -0.7812  0.8388
   33POPC  C211 4435   5.227   6.451   9.029 -0.0665  0.1414 -0.0448
   33POPC  H11R 4436   5.218   6.561   9.042 -1.5036 -0.0523  0.7468
   33POPC  H11S 4437   5.131   6.403   9.000 -0.7551  0.7046  1.2387
   33POPC  C212 4438   5.321   6.421   8.919 -0.2717  0.5930 -0.0282
   33POPC  H12R 4439   5.311   6.313   8.893  0.2470  0.4437  0.3707
   33POPC  H12S 4440   5.425   6.443   8.951 -0.1606 -0.3294  0.2823
   33POPC  C213 4441   5.296   6.493   8.782 -0.4759  0.9617  0.1635
   33POPC  H13R 4442   5.377   6.481   8.707 -2.3319  3.3081 -2.4059
   33POPC  H13S 4443   5.283   6.596   8.823 -0.8009  0.2867  1.8410
   33POPC  C214 4444   5.176   6.456   8.696  0.4021 -0.2071 -0.1266
   33POPC  H14R 4445   5.081   6.481   8.748  0.1662  1.7646 -1.4057
   33POPC  H14S 4446   5.186   6.347   8.682  0.9283 -0.1657 -0.0669
   33POPC  C215 4447   5.181   6.544   8.573  0.1745  1.3020  0.5305
   33POPC  H15R 4448   5.279   6.527   8.524  0.3211  1.6390  0.6976
   33POPC  H15S 4449   5.163   6.652   8.593 -3.8906  0.7083  0.9092
   33POPC  C216 4450   5.074   6.496   8.465 -0.4573  0.7436 -0.7354
   33POPC  H16R 4451   4.976   6.501   8.517 -0.3597  0.5506 -0.5348
   33POPC  H16S 4452   5.080   6.388   8.441 -1.5052  0.8522 -1.5673
   33POPC  C217 4453   5.065   6.583   8.339 -0.8520  0.1476  0.0648
   33POPC  H17R 4454   4.977   6.545   8.282 -1.2358  0.1694  0.6320
   33POPC  H17S 4455   5.154   6.563   8.276 -1.3034  1.6517 -1.1120
   33POPC  C218 4456   5.053   6.732   8.350  0.4452  0.1400 -0.4589
   33POPC  H18R 4457   4.980   6.753   8.432 -0.4047  2.6369 -1.7593
   33POPC  H18S 4458   4.998   6.782   8.268 -2.6309 -1.2952  0.5280
   33POPC  H18T 4459   5.152   6.776   8.371  0.1594  1.1602 -1.1986
   33POPC   C33 4460   5.223   6.123   9.809 -0.4525  0.9495 -0.4397
   33POPC   H3X 4461   5.223   6.013   9.824 -1.9141  0.9323 -0.4668
   33POPC   H3Y 4462   5.322   6.154   9.848 -0.0357  0.3146 -0.9586
   33POPC   C34 4463   5.218   6.142   9.655 -0.2576  0.6999 -0.4906
   33POPC   H4X 4464   5.289   6.064   9.620  0.1187  1.7668 -2.2708
   33POPC   H4Y 4465   5.251   6.248   9.642 -3.3011  2.0393  1.6377
   33POPC   C35 4466   5.088   6.114   9.582  0.1913  0.1088 -0.8589
   33POPC   H5X 4467   5.007   6.180   9.621  1.2453  0.1847  1.3654
   33POPC   H5Y 4468   5.048   6.012   9.601  1.9121 -0.2346  1.2678
   33POPC   C36 4469   5.105   6.155   9.439 -0.2305  0.1756  1.0247
   33POPC   H6X 4470   5.187   6.092   9.399  0.3137  1.4064  0.1292
   33POPC   H6Y 4471   5.143   6.258   9.457  1.7448 -0.6035  1.5503
   33POPC   C37 4472   4.976   6.123   9.370  0.6212 -0.0592 -0.1475
   33POPC   H7X 4473   4.892   6.185   9.410 -0.9804 -1.2713 -1.5210
   33POPC   H7Y 4474   4.956   6.015   9.387 -1.1878 -0.0710 -1.9652
   33POPC   C38 4475   4.992   6.143   9.216 -0.2678  0.0835  0.1222
   33POPC   H8X 4476   5.092   6.108   9.184 -0.2364  2.8065 -3.3431
   33POPC   H8Y 4477   4.980   6.251   9.194  1.0239  0.0844 -0.6696
   33POPC   C39 4478   4.888   6.069   9.127 -0.2892  0.0926  0.9528
   33POPC   H9X 4479   4.791   6.081   9.180 -1.3708 -1.7950 -0.4568
   33POPC   H9Y 4480   4.922   5.963   9.133 -2.8008 -0.8267  0.2993
   33POPC  C310 4481   4.895   6.114   8.980 -0.9783  0.0929 -0.6166
   33POPC  H10X 4482   5.002   6.106   8.952 -0.6289 -2.0241  1.0357
   33POPC  H10Y 4483   4.878   6.224   8.974 -0.1827  0.5354  2.8615
   33POPC  C311 4484   4.811   6.023   8.891  1.1000  0.2831 -0.1406
   33POPC  H11X 4485   4.842   5.920   8.920  0.2565  0.3286  0.9860
   33POPC  H11Y 4486   4.813   6.042   8.781  5.3961 -1.2556 -0.5043
   33POPC  C312 4487   4.655   6.015   8.939  0.6926 -0.0166 -0.4392
   33POPC  H12X 4488   4.669   5.998   9.048  1.6474  0.3808 -0.4875
   33POPC  H12Y 4489   4.595   5.929   8.904  1.9872 -1.5040  0.8609
   33POPC  C313 4490   4.571   6.143   8.914 -1.3329  0.4474 -0.7138
   33POPC  H13X 4491   4.557   6.170   8.807 -0.0985 -0.4244 -1.1130
   33POPC  H13Y 4492   4.643   6.217   8.955  0.2512 -0.7541 -1.2086
   33POPC  C314 4493   4.447   6.135   8.991  0.4454 -0.3005  0.0224
   33POPC  H14X 4494   4.461   6.107   9.098 -0.8184 -1.3554 -0.0680
   33POPC  H14Y 4495   4.383   6.056   8.947 -0.0133  0.1407 -0.1071
   33POPC  C315 4496   4.386   6.276   8.999  0.0250 -0.3730  0.4523
   33POPC  H15X 4497   4.344   6.293   8.898 -0.5723 -0.6907  0.6428
   33POPC  H15Y 4498   4.471   6.347   9.008  0.1461  0.0212 -2.6754
   33POPC  C316 4499   4.283   6.320   9.112 -0.4386 -0.1897 -0.4954
   33POPC  H16X 4500   4.329   6.335   9.212  1.0158  2.9981 -1.5168
   33POPC  H16Y 4501   4.197   6.250   9.123 -1.2307  0.3282 -2.8590
   33POPC  H16Z 4502   4.248   6.420   9.080 -1.4298 -0.5723 -0.6640
   34POPC     N 4503   2.750   2.345  11.270 -0.0757 -0.2609  0.5091
   34POPC   C12 4504   2.710   2.306  11.131 -0.4905 -0.3400  0.7721
   34POPC  H12A 4505   2.788   2.315  11.056 -1.2709 -1.0003 -0.1525
   34POPC  H12B 4506   2.634   2.373  11.092 -0.4240 -0.9632 -0.4785
   34POPC   C13 4507   2.805   2.488  11.269 -0.3719  0.2002  0.2363
   34POPC  H13A 4508   2.838   2.509  11.369 -0.5785 -0.3034  0.4107
   34POPC  H13B 4509   2.887   2.487  11.199  1.0751 -1.5853  1.8425
   34POPC  H13C 4510   2.725   2.557  11.247 -0.7279  0.3048  1.7445
   34POPC   C14 4511   2.630   2.352  11.360 -0.4940  0.2558 -0.0214
   34POPC  H14A 4512   2.652   2.396  11.456 -0.5227 -2.2547  1.2065
   34POPC  H14B 4513   2.555   2.422  11.326 -0.9467  1.6106  3.4350
   34POPC  H14C 4514   2.597   2.250  11.370  0.9286 -0.1986  0.2284
   34POPC   C15 4515   2.864   2.266  11.324  0.6771  0.2987  0.1290
   34POPC  H15A 4516   2.845   2.162  11.302  0.7702  0.4511 -0.7145
   34POPC  H15B 4517   2.874   2.272  11.431 -0.9954 -1.3320  0.4336
   34POPC  H15C 4518   2.963   2.295  11.291  0.5791  0.6512  0.1340
   34POPC   C11 4519   2.654   2.167  11.122  0.1355  0.1346 -0.1754
   34POPC  H11A 4520   2.608   2.159  11.021  1.2845 -2.2899 -0.5916
   34POPC  H11B 4521   2.573   2.140  11.193 -0.2679  1.4792 -0.0989
   34POPC     P 4522   2.864   2.062  11.007  0.1275 -0.7886 -0.1302
   34POPC   O13 4523   2.893   1.918  10.984  0.4531  0.1046 -0.1151
   34POPC   O14 4524   2.984   2.147  11.031 -0.6125  0.7631  0.0285
   34POPC   O12 4525   2.755   2.074  11.117  0.6403 -0.4277 -0.0528
   34POPC   O11 4526   2.790   2.130  10.881 -0.2751 -0.3265  0.3813
   34POPC    C1 4527   2.723   2.038  10.795 -0.0105 -0.0380  0.0425
   34POPC    HA 4528   2.639   2.097  10.754 -0.2567 -0.3255  0.1289
   34POPC    HB 4529   2.685   1.947  10.847 -1.1097  0.8372  0.8229
   34POPC    C2 4530   2.819   1.993  10.681 -0.4629 -0.7778  0.0244
   34POPC    HS 4531   2.905   1.939  10.726  0.2548  0.4132  0.1346
   34POPC   O21 4532   2.875   2.113  10.618  0.2647 -0.3938  0.6133
   34POPC   C21 4533   2.993   2.095  10.556 -0.2642  0.2695 -0.2085
   34POPC   O22 4534   3.063   2.003  10.567  0.5097 -0.0826  0.0419
   34POPC   C22 4535   3.050   2.229  10.498 -0.0803  0.2763 -0.3210
   34POPC   H2R 4536   3.158   2.209  10.483 -0.5082 -2.0224 -0.6997
   34POPC   H2S 4537   3.040   2.299  10.584  2.3203 -1.1900  1.2875
   34POPC    C3 4538   2.757   1.906  10.580  0.1028  0.9033 -0.2073
   34POPC    HX 4539   2.666   1.964  10.553  0.1560  1.1979  0.2350
   34POPC    HY 4540   2.704   1.820  10.624 -0.8181 -0.2351 -3.3025
   34POPC   O31 4541   2.840   1.883  10.459 -0.0547 -0.5608 -0.1953
   34POPC   C31 4542   2.890   1.759  10.457 -0.1982 -0.2558 -0.2900
   34POPC   O32 4543   2.888   1.682  10.549 -0.6638  0.7312 -0.2876
   34POPC   C32 4544   2.932   1.729  10.316 -0.0995 -0.3221  1.0123
   34POPC   H2X 4545   2.979   1.628  10.316  0.0177 -0.2798  0.0271
   34POPC   H2Y 4546   3.008   1.800  10.277  0.6340 -1.6066  0.0064
   34POPC   C23 4547   2.993   2.283  10.365  0.2913  0.4971 -0.4795
   34POPC   H3R 4548   3.029   2.386  10.344  1.9978 -0.1218 -0.7164
   34POPC   H3S 4549   2.884   2.299  10.377  0.1201 -0.0741 -1.2292
   34POPC   C24 4550   3.027   2.191  10.247 -0.5081  1.4529  0.8116
   34POPC   H4R 4551   2.978   2.100  10.285  0.0290  0.3572 -1.0078
   34POPC   H4S 4552   3.138   2.180  10.247 -0.6520 -0.3114  1.9026
   34POPC   C25 4553   2.972   2.233  10.108 -0.4909  0.5742 -0.4851
   34POPC   H5R 4554   2.973   2.344  10.109 -1.2266  0.6139 -1.9424
   34POPC   H5S 4555   2.865   2.204  10.097 -0.0425 -0.8851 -1.4273
   34POPC   C26 4556   3.052   2.175   9.996  0.0314 -0.1196 -0.1840
   34POPC   H6R 4557   3.158   2.209   9.997  0.1046 -0.3254 -0.6164
   34POPC   H6S 4558   3.003   2.205   9.900  1.2397 -1.4951 -1.2818
   34POPC   C27 4559   3.055   2.027   9.997 -0.6774  0.2406 -0.9416
   34POPC   H7R 4560   2.954   1.985  10.014 -0.5568  1.3877  4.2019
   34POPC   H7S 4561   3.122   2.003  10.082 -0.6525  2.1279 -0.3865
   34POPC   C28 4562   3.111   1.966   9.866  0.6706  0.2268 -0.4149
   34POPC   H8R 4563   3.051   2.005   9.781 -1.9006 -0.2383  1.1112
   34POPC   H8S 4564   3.093   1.857   9.873  0.9491  0.1627 -0.6567
   34POPC   C29 4565   3.258   1.989   9.848 -0.1347 -0.2178  1.2180
   34POPC   H91 4566   3.317   2.049   9.919  1.0398  0.2088 -0.0700
   34POPC  C210 4567   3.324   1.950   9.733 -0.0738  0.3789  0.0649
   34POPC  H101 4568   3.432   1.971   9.724  0.2561 -2.0010 -2.9178
   34POPC  C211 4569   3.269   1.871   9.616 -0.3356  0.4036  0.0051
   34POPC  H11R 4570   3.166   1.838   9.640 -1.4619  1.5524 -2.8151
   34POPC  H11S 4571   3.341   1.789   9.593 -0.2872  0.6257 -0.6535
   34POPC  C212 4572   3.244   1.966   9.495 -0.5674 -0.0531 -0.2026
   34POPC  H12R 4573   3.342   2.012   9.472 -0.9256  0.9068  0.1331
   34POPC  H12S 4574   3.171   2.044   9.527 -1.9365 -1.4981  0.3268
   34POPC  C213 4575   3.178   1.905   9.372  0.1153 -0.3732 -0.8136
   34POPC  H13R 4576   3.228   1.809   9.347 -1.0009 -1.1969 -0.0161
   34POPC  H13S 4577   3.194   1.975   9.287 -1.8943  0.0148 -0.9359
   34POPC  C214 4578   3.022   1.883   9.377  0.0034  0.2330  0.0878
   34POPC  H14R 4579   2.971   1.976   9.409 -0.4043 -0.4992  1.6579
   34POPC  H14S 4580   3.002   1.808   9.456  0.1926 -0.0823 -0.1593
   34POPC  C215 4581   2.972   1.834   9.246  0.4031  0.9989  0.2125
   34POPC  H15R 4582   2.863   1.816   9.251  0.2316  1.1482 -1.9472
   34POPC  H15S 4583   3.029   1.743   9.216  1.7408  1.7941  0.2569
   34POPC  C216 4584   2.983   1.936   9.127 -0.5376  0.5978  0.2326
   34POPC  H16R 4585   2.943   1.884   9.037 -1.7536  1.5001  0.2225
   34POPC  H16S 4586   3.090   1.959   9.111 -0.1740  0.7213  2.4585
   34POPC  C217 4587   2.927   2.080   9.143 -0.0691 -0.1373 -0.1396
   34POPC  H17R 4588   3.012   2.135   9.187 -0.9460  0.5630  0.7240
   34POPC  H17S 4589   2.836   2.076   9.207  0.2669  1.2960  0.4614
   34POPC  C218 4590   2.895   2.153   9.013  0.0534  0.3273  0.2271
   34POPC  H18R 4591   2.833   2.089   8.947  1.0759 -1.2434  0.7348
   34POPC  H18S 4592   2.982   2.179   8.948 -0.4215 -1.2423 -1.1077
   34POPC  H18T 4593   2.844   2.250   9.028 -0.1581  0.3963 -0.8366
   34POPC   C33 4594   2.807   1.732  10.230  0.4482  0.1570  0.1154
   34POPC   H3X 4595   2.818   1.836  10.192  1.7772  0.2975  0.8430
   34POPC   H3Y 4596   2.713   1.738  10.289  1.0093 -0.1388  1.0443
   34POPC   C34 4597   2.808   1.631  10.120 -0.5116  0.0455 -0.2195
   34POPC   H4X 4598   2.731   1.656  10.044 -1.3201 -0.4739  0.4163
   34POPC   H4Y 4599   2.778   1.531  10.158  0.0143 -0.5496 -1.3264
   34POPC   C35 4600   2.943   1.610  10.040 -0.1881 -0.0338  0.3078
   34POPC   H5X 4601   3.020   1.547  10.090  0.2538 -0.0891 -0.4216
   34POPC   H5Y 4602   2.997   1.707  10.029  0.9626 -0.5988  0.7924
   34POPC   C36 4603   2.923   1.529   9.909 -0.1274  0.3766  0.5469
   34POPC   H6X 4604   2.853   1.592   9.849 -0.2290 -1.0001 -0.8448
   34POPC   H6Y 4605   2.881   1.430   9.939 -1.3866  0.6959 -0.1096
   34POPC   C37 4606   3.064   1.493   9.844 -1.4980  0.1372  0.1961
   34POPC   H7X 4607   3.112   1.423   9.916  1.9348  0.7203 -1.3257
   34POPC   H7Y 4608   3.131   1.582   9.841 -2.8147  1.1395 -2.6876
   34POPC   C38 4609   3.048   1.417   9.713 -0.3724 -0.7201  0.2075
   34POPC   H8X 4610   3.004   1.493   9.645 -0.4650 -0.8363  0.1382
   34POPC   H8Y 4611   2.969   1.338   9.713  0.4767 -1.6240 -1.5995
   34POPC   C39 4612   3.184   1.369   9.657 -0.2759 -0.1070  0.2273
   34POPC   H9X 4613   3.169   1.286   9.584  0.3140 -0.2854  0.3056
   34POPC   H9Y 4614   3.233   1.318   9.743 -0.7694 -3.3254 -1.2626
   34POPC  C310 4615   3.268   1.487   9.599 -0.2806 -0.0171  0.0975
   34POPC  H10X 4616   3.287   1.565   9.676  0.8028 -0.9623  0.8193
   34POPC  H10Y 4617   3.200   1.534   9.525  0.2377  0.5588 -0.0249
   34POPC  C311 4618   3.393   1.435   9.527 -0.4799 -0.8478 -0.0953
   34POPC  H11X 4619   3.355   1.384   9.436 -3.0241  1.1551 -0.2896
   34POPC  H11Y 4620   3.447   1.357   9.584  0.7890  0.1430  0.1021
   34POPC  C312 4621   3.492   1.542   9.482 -0.1969  0.0942  0.2196
   34POPC  H12X 4622   3.510   1.623   9.557 -2.9281 -0.6296  1.7725
   34POPC  H12Y 4623   3.455   1.592   9.390 -2.6870 -0.8867  0.6216
   34POPC  C313 4624   3.629   1.486   9.446  0.1020  0.3386 -0.6796
   34POPC  H13X 4625   3.631   1.384   9.403  3.1707 -0.1920  0.4825
   34POPC  H13Y 4626   3.689   1.462   9.536  1.7399 -0.1255 -1.8485
   34POPC  C314 4627   3.728   1.577   9.360  0.4032  0.2042  0.2497
   34POPC  H14X 4628   3.830   1.537   9.376  0.3648 -0.0413 -0.1165
   34POPC  H14Y 4629   3.722   1.682   9.397 -1.4151 -0.6713  2.6726
   34POPC  C315 4630   3.693   1.564   9.212  0.2448 -0.3881  0.3281
   34POPC  H15X 4631   3.592   1.607   9.189  0.2090 -0.7093 -0.1183
   34POPC  H15Y 4632   3.681   1.457   9.186 -2.4403 -0.4446  1.4231
   34POPC  C316 4633   3.797   1.630   9.118  0.0836  0.0493 -0.0848
   34POPC  H16X 4634   3.757   1.643   9.015 -1.8462 -0.4398  0.5671
   34POPC  H16Y 4635   3.887   1.565   9.119  0.3390  0.3726 -1.0261
   34POPC  H16Z 4636   3.827   1.727   9.163  0.3269 -0.2454  0.3937
   35POPC     N 4637   1.732   2.571  11.099 -0.0858  0.4983 -0.4305
   35POPC   C12 4638   1.818   2.696  11.113  0.8894 -0.4400 -0.3645
   35POPC  H12A 4639   1.874   2.679  11.203 -0.6576 -2.5771  0.2730
   35POPC  H12B 4640   1.751   2.780  11.129 -0.7044 -1.2142 -2.4987
   35POPC   C13 4641   1.690   2.512  11.235 -0.0714 -0.2448  0.3213
   35POPC  H13A 4642   1.631   2.576  11.299 -1.6698  2.0550 -3.1055
   35POPC  H13B 4643   1.625   2.427  11.222 -1.4531  0.9099 -0.8063
   35POPC  H13C 4644   1.780   2.486  11.289 -1.1115 -2.4666  1.1004
   35POPC   C14 4645   1.609   2.596  11.015 -0.1222  0.1503  0.5710
   35POPC  H14A 4646   1.571   2.695  11.036 -0.3516 -0.1942  1.9429
   35POPC  H14B 4647   1.643   2.593  10.913  0.4152 -0.8252  0.7666
   35POPC  H14C 4648   1.526   2.528  11.032 -1.4481  1.6082  0.2191
   35POPC   C15 4649   1.798   2.459  11.016 -0.3708  0.2385  0.0989
   35POPC  H15A 4650   1.725   2.388  10.978  0.9436 -1.0070 -0.2072
   35POPC  H15B 4651   1.876   2.408  11.071  0.1193 -1.2026 -1.8035
   35POPC  H15C 4652   1.848   2.500  10.930  1.8399 -0.0030  1.1961
   35POPC   C11 4653   1.917   2.734  11.000 -0.1484  0.1926 -0.3013
   35POPC  H11A 4654   1.927   2.844  10.988 -1.7243  0.3574 -0.3421
   35POPC  H11B 4655   1.874   2.701  10.903  0.6698  2.3074 -1.4745
   35POPC     P 4656   2.180   2.749  10.983  0.2392  0.2637  0.0679
   35POPC   O13 4657   2.282   2.747  11.097  0.0717  0.4770  0.4683
   35POPC   O14 4658   2.151   2.888  10.934 -0.6283  0.6246 -0.3118
   35POPC   O12 4659   2.043   2.667  11.015 -0.6288  0.1672 -0.1875
   35POPC   O11 4660   2.249   2.677  10.862  0.3988  0.1653  0.2156
   35POPC    C1 4661   2.171   2.621  10.756  0.4371 -0.2626  0.7040
   35POPC    HA 4662   2.079   2.567  10.787  0.5885 -1.6301 -1.0750
   35POPC    HB 4663   2.228   2.538  10.710 -0.3554 -1.1908  1.3800
   35POPC    C2 4664   2.147   2.712  10.635  0.6577 -0.2851  0.2571
   35POPC    HS 4665   2.248   2.741  10.601  0.6709 -2.0939 -1.4148
   35POPC   O21 4666   2.058   2.821  10.679  0.4190  0.3055  0.6829
   35POPC   C21 4667   2.099   2.946  10.657  0.0339 -1.3712 -0.5499
   35POPC   O22 4668   2.215   2.974  10.621 -0.1471  0.4587  0.2478
   35POPC   C22 4669   1.986   3.044  10.694 -0.9163 -0.0450 -0.1577
   35POPC   H2R 4670   1.983   3.068  10.802 -0.6499 -3.0056  0.5908
   35POPC   H2S 4671   1.887   2.996  10.679 -1.4343  1.4138 -1.7402
   35POPC    C3 4672   2.075   2.627  10.523 -0.3768 -0.4526 -0.1715
   35POPC    HX 4673   1.993   2.571  10.573 -0.1542  1.0929  2.1379
   35POPC    HY 4674   2.145   2.554  10.479  0.0245 -0.6100  0.7103
   35POPC   O31 4675   2.019   2.723  10.420  0.0783  0.6505 -0.3996
   35POPC   C31 4676   1.996   2.662  10.302  0.5563 -0.2248  0.0007
   35POPC   O32 4677   2.000   2.537  10.287  0.4190 -0.9519  0.0218
   35POPC   C32 4678   1.947   2.760  10.197 -0.4330 -0.3565 -0.0707
   35POPC   H2X 4679   1.964   2.864  10.231 -0.4071 -0.8664  1.5730
   35POPC   H2Y 4680   1.841   2.731  10.181 -0.7992  1.2489 -0.7152
   35POPC   C23 4681   1.994   3.184  10.633  0.0943 -0.7937 -0.4785
   35POPC   H3R 4682   2.099   3.222  10.634  0.6650 -2.1788 -2.4037
   35POPC   H3S 4683   1.936   3.252  10.699  0.0769 -2.0804  0.8601
   35POPC   C24 4684   1.931   3.203  10.493  0.3943 -0.1719  0.7903
   35POPC   H4R 4685   1.957   3.308  10.468 -0.4151 -0.3973 -1.1342
   35POPC   H4S 4686   1.820   3.200  10.501  0.1300  2.1594 -1.0567
   35POPC   C25 4687   1.970   3.105  10.384  0.0447 -0.3563  0.0441
   35POPC   H5R 4688   1.943   2.999  10.405 -1.3686  0.0515  0.3617
   35POPC   H5S 4689   2.078   3.096  10.361 -0.7213 -2.1331 -3.7437
   35POPC   C26 4690   1.905   3.145  10.243  0.4568  0.0757 -0.5171
   35POPC   H6R 4691   1.921   3.054  10.182 -1.6280 -1.3305  0.9232
   35POPC   H6S 4692   1.971   3.221  10.195  0.3314  0.8144  0.4283
   35POPC   C27 4693   1.747   3.176  10.243 -0.0182 -0.6365  0.0663
   35POPC   H7R 4694   1.712   3.250  10.318  1.3243  1.9844 -1.7408
   35POPC   H7S 4695   1.702   3.077  10.268  0.4952 -0.8816  0.0530
   35POPC   C28 4696   1.690   3.213  10.105 -0.1739 -0.3173  0.0049
   35POPC   H8R 4697   1.580   3.210  10.125  0.3630 -0.9177  3.4917
   35POPC   H8S 4698   1.720   3.135  10.031 -0.1607  0.7688 -1.1559
   35POPC   C29 4699   1.739   3.344  10.051 -0.5000 -0.0691 -0.0860
   35POPC   H91 4700   1.736   3.430  10.119 -1.2284  1.1651 -1.6181
   35POPC  C210 4701   1.795   3.377   9.932 -0.4329 -0.5198  0.2348
   35POPC  H101 4702   1.828   3.482   9.923  2.4615 -1.4143 -0.5804
   35POPC  C211 4703   1.825   3.285   9.817 -0.1024  0.4651 -0.1104
   35POPC  H11R 4704   1.783   3.187   9.846  0.1367  0.6496  0.9010
   35POPC  H11S 4705   1.933   3.273   9.794 -0.3906 -0.9167 -0.8225
   35POPC  C212 4706   1.744   3.334   9.693 -0.1003  0.4095  0.7096
   35POPC  H12R 4707   1.773   3.435   9.660  1.6643  0.0402  1.0235
   35POPC  H12S 4708   1.636   3.333   9.718  0.0884  2.3448  1.7536
   35POPC  C213 4709   1.769   3.241   9.567  0.7706 -0.1778 -0.4144
   35POPC  H13R 4710   1.696   3.278   9.492 -1.0771  0.0185  1.3799
   35POPC  H13S 4711   1.742   3.135   9.589  0.2520  0.4264  2.1655
   35POPC  C214 4712   1.901   3.250   9.500  0.2370 -0.1033  0.0822
   35POPC  H14R 4713   1.894   3.182   9.413 -1.1437 -1.0838  0.9255
   35POPC  H14S 4714   1.991   3.222   9.559 -0.5199 -1.0373  0.8244
   35POPC  C215 4715   1.944   3.389   9.448  0.0832  0.0554  0.3884
   35POPC  H15R 4716   2.035   3.382   9.384 -2.4075  0.0177 -3.4608
   35POPC  H15S 4717   1.972   3.456   9.533  2.4694  0.2732 -0.4811
   35POPC  C216 4718   1.840   3.460   9.358  0.0912 -0.0598 -0.5702
   35POPC  H16R 4719   1.873   3.564   9.338  1.0997 -0.3043 -0.2083
   35POPC  H16S 4720   1.744   3.463   9.414  1.1410 -2.2693  1.5216
   35POPC  C217 4721   1.825   3.395   9.222  0.3139  0.2137  0.8536
   35POPC  H17R 4722   1.789   3.291   9.236  0.3551 -0.0478 -0.8674
   35POPC  H17S 4723   1.924   3.393   9.173  0.0993  2.1290  0.2548
   35POPC  C218 4724   1.734   3.472   9.129  0.1714 -0.0089 -0.2039
   35POPC  H18R 4725   1.703   3.411   9.041 -1.2536 -0.6520  0.7005
   35POPC  H18S 4726   1.790   3.558   9.087 -1.9000  1.7320  0.4213
   35POPC  H18T 4727   1.644   3.505   9.185  1.2466  1.2578  0.8228
   35POPC   C33 4728   2.022   2.732  10.059 -0.1384 -0.7582 -0.5860
   35POPC   H3X 4729   2.028   2.623  10.038 -1.0923 -0.7049 -1.1664
   35POPC   H3Y 4730   2.124   2.777  10.059 -0.8718  0.9786 -0.4040
   35POPC   C34 4731   1.932   2.793   9.956  1.2989 -0.4435 -0.4506
   35POPC   H4X 4732   1.925   2.901   9.979  2.3522 -0.3242 -0.6433
   35POPC   H4Y 4733   1.830   2.748   9.957  1.3971 -0.6926 -1.1580
   35POPC   C35 4734   1.985   2.777   9.817 -0.5806  0.2710  0.0469
   35POPC   H5X 4735   2.008   2.668   9.816  2.0526  0.7399  0.0927
   35POPC   H5Y 4736   2.082   2.832   9.816  1.0954 -2.4704 -0.9427
   35POPC   C36 4737   1.918   2.831   9.693  0.6271 -0.5291  0.0331
   35POPC   H6X 4738   1.908   2.940   9.709 -0.8792 -0.4520 -1.1735
   35POPC   H6Y 4739   1.816   2.787   9.684  1.7360 -3.3357 -0.0870
   35POPC   C37 4740   1.985   2.811   9.566 -0.4803 -0.3289  0.1082
   35POPC   H7X 4741   1.982   2.706   9.531  0.4506 -0.9041  1.6672
   35POPC   H7Y 4742   2.095   2.826   9.575 -0.2825 -0.3779 -1.8315
   35POPC   C38 4743   1.940   2.919   9.468  0.5839  0.1596 -0.0210
   35POPC   H8X 4744   2.022   2.994   9.480  0.7508  0.5862 -2.9419
   35POPC   H8Y 4745   1.838   2.946   9.503  0.9713 -1.8698  3.0924
   35POPC   C39 4746   1.930   2.881   9.315  0.1861 -0.3229 -0.4879
   35POPC   H9X 4747   1.869   2.791   9.292  0.3965 -0.8958  1.1063
   35POPC   H9Y 4748   2.036   2.858   9.292  0.8637 -0.2061  2.2136
   35POPC  C310 4749   1.879   2.991   9.217  0.4713 -0.3135  0.0921
   35POPC  H10X 4750   1.949   3.074   9.241 -1.9047  2.2937 -1.3869
   35POPC  H10Y 4751   1.771   3.016   9.229 -0.1922 -2.6677 -0.4748
   35POPC  C311 4752   1.905   2.955   9.068 -0.3328 -0.1071 -0.3475
   35POPC  H11X 4753   1.835   2.875   9.035 -1.7200 -0.3578  2.8621
   35POPC  H11Y 4754   2.011   2.924   9.075 -0.0026  1.2202  1.2572
   35POPC  C312 4755   1.896   3.075   8.977  0.1118 -0.2450  0.0037
   35POPC  H12X 4756   1.982   3.144   8.993  0.0108  0.0423 -0.6565
   35POPC  H12Y 4757   1.806   3.134   9.001 -1.0580 -0.0712 -4.1399
   35POPC  C313 4758   1.907   3.039   8.825 -1.8945  0.4776  0.3055
   35POPC  H13X 4759   1.823   2.977   8.788 -1.7369 -0.6790  1.7927
   35POPC  H13Y 4760   2.002   2.983   8.809 -1.9769 -0.2123  2.0412
   35POPC  C314 4761   1.933   3.162   8.745 -0.0167 -0.4582 -0.5941
   35POPC  H14X 4762   2.015   3.222   8.790  0.3224 -1.2966 -0.0460
   35POPC  H14Y 4763   1.849   3.234   8.747  0.3734  0.2055 -3.5658
   35POPC  C315 4764   1.966   3.126   8.604  0.2686  0.3998  0.0670
   35POPC  H15X 4765   1.914   3.035   8.567  2.3663 -0.6421 -0.4610
   35POPC  H15Y 4766   2.070   3.090   8.590  0.1692  0.1845 -0.1264
   35POPC  C316 4767   1.925   3.249   8.516  0.2144  0.0643 -0.0153
   35POPC  H16X 4768   1.816   3.269   8.522  0.1252  0.9516 -3.1197
   35POPC  H16Y 4769   1.938   3.237   8.406 -1.2321 -0.6109 -0.1436
   35POPC  H16Z 4770   1.969   3.342   8.556 -0.2270  0.6220 -0.8169
   36POPC     N 4771   2.060   1.831  11.121  0.0547 -0.9147  0.3404
   36POPC   C12 4772   2.113   1.813  10.978  0.0891  0.2510 -0.0972
   36POPC  H12A 4773   2.063   1.727  10.939  0.0048 -0.5125  1.6049
   36POPC  H12B 4774   2.220   1.797  10.986 -0.0595 -0.9048 -0.3707
   36POPC   C13 4775   2.157   1.911  11.191 -0.3250  0.3198 -0.8825
   36POPC  H13A 4776   2.129   1.915  11.295 -0.9558  3.0037 -1.0673
   36POPC  H13B 4777   2.256   1.869  11.181 -1.4331 -2.1409 -2.3644
   36POPC  H13C 4778   2.162   2.016  11.166  0.9305  0.0570 -1.7870
   36POPC   C14 4779   1.921   1.899  11.120 -0.7149  0.5117 -0.3085
   36POPC  H14A 4780   1.875   1.911  11.217 -1.4162  1.4097 -0.7373
   36POPC  H14B 4781   1.925   1.995  11.071  1.1845  0.7872  0.3392
   36POPC  H14C 4782   1.852   1.843  11.058 -0.0373  0.9624 -1.5088
   36POPC   C15 4783   2.047   1.705  11.188 -0.1942  0.7306  0.2750
   36POPC  H15A 4784   2.139   1.651  11.172 -0.8916 -1.4467  2.8652
   36POPC  H15B 4785   1.968   1.649  11.140  1.4856 -0.1820 -1.5500
   36POPC  H15C 4786   2.020   1.708  11.293 -2.1409 -0.2655 -0.1437
   36POPC   C11 4787   2.101   1.934  10.881  0.1012  0.2161 -0.9991
   36POPC  H11A 4788   1.991   1.946  10.869  0.0869  0.6309 -0.4551
   36POPC  H11B 4789   2.153   1.904  10.787  2.4936 -2.4029  0.9921
   36POPC     P 4790   2.082   2.200  10.930  0.0347  0.3275  0.3578
   36POPC   O13 4791   2.181   2.305  10.969 -0.0626  0.0306  0.7527
   36POPC   O14 4792   1.964   2.169  11.012 -0.0881 -0.0112 -0.0802
   36POPC   O12 4793   2.161   2.061  10.916  0.8101 -0.2253  0.7431
   36POPC   O11 4794   2.034   2.225  10.778  0.4393  1.0504  0.0394
   36POPC    C1 4795   2.122   2.205  10.665 -1.7721 -0.2411 -0.6040
   36POPC    HA 4796   2.222   2.168  10.696 -1.6606  0.1482 -0.4875
   36POPC    HB 4797   2.133   2.308  10.625 -2.9553  0.3057  0.3920
   36POPC    C2 4798   2.049   2.124  10.554 -0.2210 -0.4394  0.3720
   36POPC    HS 4799   2.024   2.019  10.579 -2.0694 -0.3892 -1.0377
   36POPC   O21 4800   2.133   2.128  10.434 -0.1451  0.0432 -0.9354
   36POPC   C21 4801   2.230   2.039  10.438  0.5070  0.3581  0.2992
   36POPC   O22 4802   2.239   1.946  10.514 -0.0679  0.2106  0.0023
   36POPC   C22 4803   2.329   2.069  10.329  0.4951  0.2121  0.2591
   36POPC   H2R 4804   2.411   2.134  10.368  2.1512 -0.5884 -1.7200
   36POPC   H2S 4805   2.271   2.120  10.248 -1.3678 -1.4718  0.4615
   36POPC    C3 4806   1.906   2.179  10.519 -0.2005 -0.0516 -0.0805
   36POPC    HX 4807   1.910   2.287  10.493  1.3329  0.3849  1.7563
   36POPC    HY 4808   1.855   2.165  10.617  2.4196  1.0939  1.5522
   36POPC   O31 4809   1.847   2.100  10.416 -0.1911 -0.2661 -0.6001
   36POPC   C31 4810   1.718   2.108  10.415  0.1334  0.0786 -0.7425
   36POPC   O32 4811   1.650   2.194  10.472  0.0693 -0.4964 -0.4355
   36POPC   C32 4812   1.659   1.994  10.327  0.0896  0.3008  0.2442
   36POPC   H2X 4813   1.722   1.903  10.315 -1.2375 -0.7369  0.8451
   36POPC   H2Y 4814   1.645   2.042  10.228  0.2094 -0.4936 -0.1627
   36POPC   C23 4815   2.398   1.941  10.272 -0.6003 -0.1195  1.0975
   36POPC   H3R 4816   2.331   1.871  10.218  0.9794  0.6480 -2.1361
   36POPC   H3S 4817   2.444   1.886  10.357  1.2143 -2.9600 -1.4884
   36POPC   C24 4818   2.511   1.983  10.176  0.0716  1.0464  0.1223
   36POPC   H4R 4819   2.572   1.892  10.153 -0.4475  1.0169 -1.2216
   36POPC   H4S 4820   2.579   2.063  10.211  1.8723  0.0468 -0.9047
   36POPC   C25 4821   2.460   2.034  10.043  0.2327  0.2561 -0.2761
   36POPC   H5R 4822   2.412   2.133  10.061  0.2076  0.3647 -0.9042
   36POPC   H5S 4823   2.369   1.975  10.021 -0.4365  0.8437  0.7986
   36POPC   C26 4824   2.557   2.062   9.935  0.1055 -0.1836 -0.2193
   36POPC   H6R 4825   2.639   2.123   9.978  0.9081 -1.1469 -0.3430
   36POPC   H6S 4826   2.504   2.129   9.865 -2.1712  2.8427  3.9464
   36POPC   C27 4827   2.613   1.944   9.864  0.3985 -0.4407 -0.1898
   36POPC   H7R 4828   2.540   1.865   9.839 -1.8615  1.5133 -0.0875
   36POPC   H7S 4829   2.689   1.893   9.928  1.0250 -1.5992 -1.7846
   36POPC   C28 4830   2.694   1.982   9.745 -0.3843 -0.4521  0.4146
   36POPC   H8R 4831   2.779   2.041   9.784 -0.9513  1.4290 -1.0917
   36POPC   H8S 4832   2.647   2.050   9.671  0.8736 -0.2730 -0.2378
   36POPC   C29 4833   2.742   1.857   9.677 -0.5066 -0.7325  0.2653
   36POPC   H91 4834   2.829   1.805   9.718  2.1312  2.9832 -0.1598
   36POPC  C210 4835   2.702   1.819   9.553 -1.0689 -0.1007 -0.3051
   36POPC  H101 4836   2.738   1.721   9.520 -1.2262 -0.4175  0.4472
   36POPC  C211 4837   2.618   1.891   9.453  0.3859  0.1849  0.2160
   36POPC  H11R 4838   2.690   1.939   9.383  0.3619  2.3526  1.5558
   36POPC  H11S 4839   2.563   1.981   9.489 -0.8356 -0.4880  0.0965
   36POPC  C212 4840   2.522   1.793   9.388 -0.4025  0.7092 -0.4046
   36POPC  H12R 4841   2.577   1.718   9.327  1.9126  1.8373  0.1813
   36POPC  H12S 4842   2.453   1.846   9.320 -1.4528  2.0683  1.6263
   36POPC  C213 4843   2.432   1.716   9.485  0.3774  0.6547  0.8888
   36POPC  H13R 4844   2.373   1.789   9.545  0.1451  2.6747 -1.6327
   36POPC  H13S 4845   2.488   1.654   9.558  0.5911 -2.0883 -1.4196
   36POPC  C214 4846   2.333   1.615   9.420  0.1508 -0.4434 -0.2590
   36POPC  H14R 4847   2.401   1.530   9.397  0.4855 -0.5197  0.9498
   36POPC  H14S 4848   2.298   1.653   9.322  2.7856 -2.1253 -1.9735
   36POPC  C215 4849   2.229   1.565   9.514  0.3198  0.6286  0.5818
   36POPC  H15R 4850   2.178   1.645   9.571  0.9925 -0.5873  3.0495
   36POPC  H15S 4851   2.274   1.496   9.589 -0.0057  0.2057  0.3927
   36POPC  C216 4852   2.112   1.489   9.444 -0.1625  0.2658  0.0643
   36POPC  H16R 4853   2.159   1.409   9.383  0.1216  1.0287 -0.7487
   36POPC  H16S 4854   2.059   1.552   9.369  2.5748  2.1216 -0.4641
   36POPC  C217 4855   2.006   1.437   9.540 -0.5337  0.1972 -0.2861
   36POPC  H17R 4856   1.976   1.528   9.598  1.3399  0.2983  0.6210
   36POPC  H17S 4857   2.066   1.373   9.608  0.2308  1.4375  0.2488
   36POPC  C218 4858   1.893   1.354   9.473  0.5407 -0.2858  0.2943
   36POPC  H18R 4859   1.826   1.426   9.422  0.3684 -2.1543 -2.3270
   36POPC  H18S 4860   1.833   1.295   9.545 -1.7908 -0.3919 -1.6396
   36POPC  H18T 4861   1.936   1.289   9.394  2.9822  2.2707 -0.6851
   36POPC   C33 4862   1.511   1.959  10.363  0.2306 -0.4577 -0.2248
   36POPC   H3X 4863   1.455   2.052  10.384 -0.5422 -0.3941 -2.3913
   36POPC   H3Y 4864   1.518   1.891  10.451  2.8678  0.2795  0.2096
   36POPC   C34 4865   1.432   1.889  10.247  0.5366 -0.2883 -0.9895
   36POPC   H4X 4866   1.327   1.866  10.278  0.6014  0.7851  0.1228
   36POPC   H4Y 4867   1.486   1.792  10.246 -1.4583 -1.4922  0.2288
   36POPC   C35 4868   1.437   1.947  10.108 -0.0249 -0.0209 -0.6643
   36POPC   H5X 4869   1.537   1.952  10.059  0.1232 -1.0023 -0.4715
   36POPC   H5Y 4870   1.398   2.051  10.112  1.4896  0.5677 -0.4228
   36POPC   C36 4871   1.344   1.865  10.013 -0.0861 -0.2470 -0.2454
   36POPC   H6X 4872   1.241   1.907  10.017  0.8644  2.1938  0.4931
   36POPC   H6Y 4873   1.335   1.758  10.041  0.0840 -0.6265 -1.5805
   36POPC   C37 4874   1.379   1.887   9.864 -0.0262  0.6386 -0.1413
   36POPC   H7X 4875   1.341   1.801   9.805  0.9579 -1.4981  2.1399
   36POPC   H7Y 4876   1.489   1.893   9.854 -0.1934  1.9568 -1.5378
   36POPC   C38 4877   1.333   2.026   9.811 -0.1010 -0.3158 -0.7644
   36POPC   H8X 4878   1.382   2.099   9.880  0.6696 -0.1466 -1.4766
   36POPC   H8Y 4879   1.225   2.051   9.805  0.5350  3.0629 -0.4825
   36POPC   C39 4880   1.375   2.058   9.659 -0.6427  0.1903  0.1926
   36POPC   H9X 4881   1.485   2.040   9.652 -0.3310  1.3241  1.5317
   36POPC   H9Y 4882   1.373   2.169   9.648 -0.5535  0.0109 -2.0842
   36POPC  C310 4883   1.298   1.973   9.559 -0.1097  0.0173  0.5572
   36POPC  H10X 4884   1.196   2.016   9.565 -0.4692 -1.0742  4.2878
   36POPC  H10Y 4885   1.277   1.865   9.575 -1.6250 -0.0871 -1.6405
   36POPC  C311 4886   1.342   1.998   9.409  0.7680  0.4593  0.5849
   36POPC  H11X 4887   1.354   2.103   9.375  0.2128  0.6284  0.9019
   36POPC  H11Y 4888   1.260   1.956   9.346 -0.4618  0.4444  2.1407
   36POPC  C312 4889   1.471   1.911   9.376 -0.2361 -0.6110  0.3074
   36POPC  H12X 4890   1.457   1.803   9.397  0.9290 -0.7867  0.2485
   36POPC  H12Y 4891   1.554   1.937   9.446  0.4709  0.1586 -0.7798
   36POPC  C313 4892   1.515   1.928   9.229 -0.2498 -0.4489  0.6973
   36POPC  H13X 4893   1.525   2.034   9.198  0.5821 -0.5427  0.6185
   36POPC  H13Y 4894   1.430   1.891   9.168 -0.4038  1.3207 -0.2347
   36POPC  C314 4895   1.645   1.862   9.183 -0.3880 -0.7482 -0.7320
   36POPC  H14X 4896   1.722   1.940   9.201  1.0750 -2.4319  0.7133
   36POPC  H14Y 4897   1.641   1.857   9.072  1.5066 -2.3960 -0.7692
   36POPC  C315 4898   1.670   1.718   9.231 -0.1149  0.2362  1.0395
   36POPC  H15X 4899   1.577   1.658   9.224  0.3779 -0.3539 -0.9525
   36POPC  H15Y 4900   1.704   1.720   9.337  3.5276 -0.1014  0.0227
   36POPC  C316 4901   1.786   1.651   9.154 -0.0970  0.2406 -0.8109
   36POPC  H16X 4902   1.881   1.696   9.189  0.5812 -0.3086 -1.8956
   36POPC  H16Y 4903   1.769   1.674   9.047 -1.3672  2.5092 -0.1913
   36POPC  H16Z 4904   1.796   1.540   9.151 -0.0190  0.2514 -0.9133
   37POPC     N 4905   6.454   4.236   6.741  0.3723 -0.1550  0.8656
   37POPC   C12 4906   6.603   4.253   6.725  0.2155  0.8472 -0.3628
   37POPC  H12A 4907   6.655   4.183   6.789 -0.3303  2.4307  1.8988
   37POPC  H12B 4908   6.626   4.348   6.769 -1.4520  1.9744 -1.7787
   37POPC   C13 4909   6.380   4.366   6.699 -0.2858 -0.0916  0.8416
   37POPC  H13A 4910   6.277   4.348   6.724  0.3074  0.1231  3.8016
   37POPC  H13B 4911   6.411   4.450   6.759 -0.4249  0.9755 -0.5321
   37POPC  H13C 4912   6.390   4.381   6.592  0.3065 -0.2485  0.8684
   37POPC   C14 4913   6.403   4.130   6.643  0.3029  0.5008 -0.3465
   37POPC  H14A 4914   6.296   4.114   6.647  0.6444 -2.1145 -0.0093
   37POPC  H14B 4915   6.434   4.150   6.541 -1.4666  0.6510 -0.8952
   37POPC  H14C 4916   6.438   4.031   6.668 -1.6537 -0.2517 -0.4089
   37POPC   C15 4917   6.402   4.209   6.877 -0.5222 -0.4431  0.4341
   37POPC  H15A 4918   6.299   4.176   6.868 -0.6809  0.1184  0.1418
   37POPC  H15B 4919   6.395   4.295   6.942 -2.6057  0.5030 -0.9244
   37POPC  H15C 4920   6.456   4.130   6.926  0.3806  0.1550  0.4202
   37POPC   C11 4921   6.671   4.269   6.591 -0.3232 -0.1826 -0.0595
   37POPC  H11A 4922   6.770   4.317   6.605 -1.0496  0.7930  2.4352
   37POPC  H11B 4923   6.615   4.347   6.535 -0.8599  1.1967  2.2484
   37POPC     P 4924   6.762   4.033   6.580 -0.1421  0.1252  0.1393
   37POPC   O13 4925   6.861   3.994   6.478  0.5576 -0.1010 -0.6289
   37POPC   O14 4926   6.662   3.935   6.618  0.3569  0.4175  0.7496
   37POPC   O12 4927   6.673   4.145   6.524 -0.6056 -0.0506 -0.0448
   37POPC   O11 4928   6.840   4.096   6.704  0.2610 -0.1011  0.8534
   37POPC    C1 4929   6.935   4.013   6.776 -0.2559  0.0236 -0.5893
   37POPC    HA 4930   7.024   4.079   6.787 -0.7755  0.5242  0.8633
   37POPC    HB 4931   6.947   3.912   6.732 -1.6846 -0.6424  0.4715
   37POPC    C2 4932   6.895   3.979   6.924 -0.6839 -0.7213 -0.0990
   37POPC    HS 4933   6.791   3.940   6.913 -0.6279 -0.3865 -2.2829
   37POPC   O21 4934   6.894   4.105   6.995 -0.4182  0.2896  0.5353
   37POPC   C21 4935   6.772   4.153   7.021 -0.4206 -0.3426  0.0100
   37POPC   O22 4936   6.667   4.109   6.976 -0.5183  0.5573 -0.2628
   37POPC   C22 4937   6.787   4.280   7.107  0.0995 -0.0294  0.3761
   37POPC   H2R 4938   6.792   4.372   7.045  0.0551  0.6270  1.3157
   37POPC   H2S 4939   6.875   4.265   7.173 -0.1343 -1.5118  0.3925
   37POPC    C3 4940   6.993   3.881   6.988 -0.3283  0.5699 -0.1626
   37POPC    HX 4941   7.091   3.932   6.973 -0.3512  0.7149  0.1724
   37POPC    HY 4942   6.998   3.783   6.937 -2.0114 -1.4063  3.1152
   37POPC   O31 4943   6.954   3.869   7.125 -0.3291  0.0536  0.2416
   37POPC   C31 4944   7.046   3.904   7.216 -0.4214 -0.6192 -0.1904
   37POPC   O32 4945   7.154   3.954   7.199 -0.7716  0.0886 -0.3093
   37POPC   C32 4946   6.985   3.880   7.353  0.5783 -0.0123  0.4636
   37POPC   H2X 4947   6.994   3.771   7.369  0.0686 -0.1596 -0.1970
   37POPC   H2Y 4948   6.877   3.905   7.353  0.1848 -1.4613  2.4957
   37POPC   C23 4949   6.662   4.299   7.194 -0.5879 -0.1575 -0.3740
   37POPC   H3R 4950   6.569   4.309   7.135 -1.8847 -2.6237  1.0969
   37POPC   H3S 4951   6.667   4.400   7.241  1.6879 -0.0146 -0.7874
   37POPC   C24 4952   6.631   4.196   7.298 -0.4194 -0.5774 -0.1279
   37POPC   H4R 4953   6.618   4.098   7.247  2.5928 -0.4445 -1.3636
   37POPC   H4S 4954   6.533   4.227   7.340 -0.3847  0.7639 -0.9765
   37POPC   C25 4955   6.736   4.195   7.411 -0.2971  0.0390  0.7097
   37POPC   H5R 4956   6.843   4.192   7.379 -0.7281  0.0594 -0.8304
   37POPC   H5S 4957   6.716   4.109   7.478 -2.5695  0.6831  0.9220
   37POPC   C26 4958   6.733   4.321   7.495  0.8847  1.1180  0.1243
   37POPC   H6R 4959   6.629   4.341   7.530  0.3114 -1.7609  0.2503
   37POPC   H6S 4960   6.767   4.405   7.431  3.5239 -1.0590 -1.5328
   37POPC   C27 4961   6.828   4.313   7.611  0.0410  0.4140 -0.1259
   37POPC   H7R 4962   6.844   4.417   7.648 -1.4834 -0.2717  2.8403
   37POPC   H7S 4963   6.927   4.274   7.579  0.0179 -0.8461  1.2400
   37POPC   C28 4964   6.780   4.226   7.736 -0.5170  0.0531  0.1558
   37POPC   H8R 4965   6.865   4.241   7.806  0.1035 -0.3021 -0.5086
   37POPC   H8S 4966   6.789   4.119   7.708  0.8186  0.1900 -0.0117
   37POPC   C29 4967   6.650   4.261   7.797  0.1655  0.1323  0.0829
   37POPC   H91 4968   6.565   4.249   7.728 -1.6233  1.6588  1.9047
   37POPC  C210 4969   6.621   4.280   7.929 -0.0639 -0.7698  0.4139
   37POPC  H101 4970   6.517   4.304   7.956  0.0888  0.0076  0.3217
   37POPC  C211 4971   6.723   4.285   8.041  0.4088  0.0719 -0.2687
   37POPC  H11R 4972   6.714   4.376   8.105  2.2197  1.1566 -1.4658
   37POPC  H11S 4973   6.818   4.310   7.988 -0.8625 -0.3037 -2.8864
   37POPC  C212 4974   6.732   4.164   8.133  0.1686  0.2041  0.0762
   37POPC  H12R 4975   6.831   4.154   8.182 -0.7266  0.6718  2.0866
   37POPC  H12S 4976   6.709   4.070   8.079 -0.1084 -0.5562  1.4931
   37POPC  C213 4977   6.642   4.161   8.260  0.3639  0.4589 -0.1083
   37POPC  H13R 4978   6.544   4.175   8.210  0.9528 -0.0180 -1.4489
   37POPC  H13S 4979   6.653   4.246   8.331 -1.2432 -0.6515  1.5561
   37POPC  C214 4980   6.665   4.030   8.333  1.1630  1.1242 -0.0179
   37POPC  H14R 4981   6.638   4.044   8.440  1.6718 -0.5798  0.3643
   37POPC  H14S 4982   6.773   4.010   8.351  0.6389 -0.4045  1.7756
   37POPC  C215 4983   6.587   3.905   8.281 -0.1311 -0.3818  0.1627
   37POPC  H15R 4984   6.642   3.873   8.190 -0.4207  1.0558 -0.5510
   37POPC  H15S 4985   6.487   3.937   8.245  0.3091  1.5588  0.5517
   37POPC  C216 4986   6.548   3.791   8.383 -0.3066  0.3410 -0.4357
   37POPC  H16R 4987   6.482   3.719   8.331  0.0814  0.5794 -1.2829
   37POPC  H16S 4988   6.487   3.830   8.467 -1.6454 -2.2115 -0.1467
   37POPC  C217 4989   6.666   3.724   8.444 -0.2455 -0.1477 -0.6283
   37POPC  H17R 4990   6.690   3.782   8.535 -3.7489 -0.3420  0.5772
   37POPC  H17S 4991   6.755   3.739   8.380 -0.1146  1.5545 -0.1028
   37POPC  C218 4992   6.650   3.576   8.458 -0.8665  0.1242 -0.5448
   37POPC  H18R 4993   6.618   3.522   8.366 -0.3891  0.7250 -1.0780
   37POPC  H18S 4994   6.584   3.540   8.540 -2.2006  0.1205 -1.5890
   37POPC  H18T 4995   6.747   3.526   8.477 -0.6882  0.3373 -0.8855
   37POPC   C33 4996   7.044   3.965   7.472 -0.0802  0.0207  0.8272
   37POPC   H3X 4997   7.025   4.071   7.446  3.5147  0.9551  1.4350
   37POPC   H3Y 4998   7.154   3.950   7.474 -0.0030  0.1009 -0.9046
   37POPC   C34 4999   6.991   3.923   7.609 -0.3145  0.0396  0.2619
   37POPC   H4X 5000   7.012   3.815   7.619 -2.9905 -0.5985 -0.3886
   37POPC   H4Y 5001   6.881   3.940   7.611 -0.4655 -0.9026  0.7565
   37POPC   C35 5002   7.063   3.997   7.718 -0.4139  0.3804 -0.7014
   37POPC   H5X 5003   7.053   4.108   7.720 -1.1850  0.3215  1.1343
   37POPC   H5Y 5004   7.173   3.982   7.717 -0.5292 -1.1005  1.7345
   37POPC   C36 5005   7.010   3.953   7.859 -0.2148  0.5658  0.1212
   37POPC   H6X 5006   6.998   3.842   7.868 -2.1988  0.8146  1.0571
   37POPC   H6Y 5007   6.901   3.977   7.867 -0.9852 -2.3312 -0.4390
   37POPC   C37 5008   7.097   4.017   7.974  0.7691  0.4502  0.3369
   37POPC   H7X 5009   7.083   4.127   7.971  3.7174  0.8719 -1.1658
   37POPC   H7Y 5010   7.203   3.999   7.946  0.9677 -0.5907  1.6633
   37POPC   C38 5011   7.066   3.957   8.115  0.3806 -0.1183 -0.4976
   37POPC   H8X 5012   7.070   3.846   8.116  0.1026 -0.1251 -0.0207
   37POPC   H8Y 5013   6.976   4.007   8.158  1.9043 -0.6369  3.6763
   37POPC   C39 5014   7.169   4.010   8.214 -0.0078 -0.2706 -0.5812
   37POPC   H9X 5015   7.271   3.970   8.196 -0.1343 -0.9501  0.1279
   37POPC   H9Y 5016   7.145   3.985   8.320  1.8467  1.9007  0.4272
   37POPC  C310 5017   7.178   4.165   8.216 -0.0046  0.3364  0.9339
   37POPC  H10X 5018   7.082   4.218   8.198  0.4376  1.4441  1.7322
   37POPC  H10Y 5019   7.242   4.204   8.133  0.1793  1.3947  1.5617
   37POPC  C311 5020   7.243   4.221   8.353 -0.3672  0.3336  0.5516
   37POPC  H11X 5021   7.347   4.186   8.370  0.1186  1.9927  1.1384
   37POPC  H11Y 5022   7.184   4.183   8.440  0.1965 -4.5874 -0.8852
   37POPC  C312 5023   7.235   4.371   8.360  0.4620 -0.2857 -0.0335
   37POPC  H12X 5024   7.128   4.393   8.343 -0.4043 -2.1526  2.3804
   37POPC  H12Y 5025   7.286   4.413   8.270 -2.0753 -2.0346 -2.4255
   37POPC  C313 5026   7.282   4.432   8.495  0.7066 -0.0698  0.2476
   37POPC  H13X 5027   7.387   4.402   8.517  0.5499 -0.1750  0.8690
   37POPC  H13Y 5028   7.217   4.389   8.574 -0.7947  2.4554  0.4994
   37POPC  C314 5029   7.264   4.578   8.502  0.5904 -1.1796  0.1221
   37POPC  H14X 5030   7.162   4.609   8.472  1.0513 -1.0658 -1.4136
   37POPC  H14Y 5031   7.332   4.620   8.425 -1.1159 -0.5908 -1.1125
   37POPC  C315 5032   7.301   4.637   8.640  0.2374  0.4122  0.0908
   37POPC  H15X 5033   7.380   4.580   8.694  0.7859  0.0600 -1.0551
   37POPC  H15Y 5034   7.208   4.636   8.700 -0.1598 -1.1946 -0.5112
   37POPC  C316 5035   7.351   4.783   8.632 -0.8779  0.1099 -0.0341
   37POPC  H16X 5036   7.338   4.835   8.729  2.1597  0.8017  0.1092
   37POPC  H16Y 5037   7.292   4.827   8.549 -0.7896  1.2439  0.4953
   37POPC  H16Z 5038   7.457   4.802   8.605 -1.0542  1.8618  0.3610
   38POPC     N 5039   3.299   1.125   5.992 -0.7329 -0.3593 -0.0896
   38POPC   C12 5040   3.184   1.044   6.057  0.3410 -0.4275  0.4267
   38POPC  H12A 5041   3.121   0.989   5.988  1.1639  0.3644 -1.0054
   38POPC  H12B 5042   3.117   1.113   6.105 -0.5404 -0.9071 -0.0791
   38POPC   C13 5043   3.243   1.211   5.883  0.0094 -0.8296 -0.2936
   38POPC  H13A 5044   3.186   1.148   5.816 -1.0685 -2.3634  1.9197
   38POPC  H13B 5045   3.172   1.283   5.922  2.1877  1.8479 -0.9261
   38POPC  H13C 5046   3.330   1.262   5.844  1.4045 -1.6048  1.6239
   38POPC   C14 5047   3.357   1.218   6.094 -0.4611 -0.1579  0.5418
   38POPC  H14A 5048   3.397   1.160   6.177 -0.0947 -0.1182  0.3936
   38POPC  H14B 5049   3.425   1.287   6.047 -0.0096 -0.6885  0.4077
   38POPC  H14C 5050   3.274   1.277   6.129 -0.5879 -0.2559  0.4067
   38POPC   C15 5051   3.419   1.044   5.939 -0.1868 -0.3502 -0.1551
   38POPC  H15A 5052   3.471   0.980   6.008 -1.2501 -3.3893 -1.9943
   38POPC  H15B 5053   3.494   1.112   5.900  2.1694 -0.6688  3.3581
   38POPC  H15C 5054   3.388   0.971   5.866 -1.2387  1.3129 -1.4490
   38POPC   C11 5055   3.234   0.946   6.165  0.1386  0.7192 -0.9592
   38POPC  H11A 5056   3.318   0.882   6.130 -0.1418  1.1271 -2.4236
   38POPC  H11B 5057   3.155   0.872   6.191 -1.1285  2.3037 -0.1351
   38POPC     P 5058   3.240   0.960   6.429 -0.2089  0.0990  0.0641
   38POPC   O13 5059   3.093   0.940   6.438  0.0779 -0.2627  0.9574
   38POPC   O14 5060   3.304   1.059   6.516  0.2502 -0.4861 -0.0008
   38POPC   O12 5061   3.274   1.009   6.289 -0.5700  0.3019 -0.5087
   38POPC   O11 5062   3.314   0.817   6.439 -0.5171 -0.0100  0.7280
   38POPC    C1 5063   3.451   0.800   6.390  1.0572 -0.2758 -0.3203
   38POPC    HA 5064   3.489   0.895   6.347  2.0176 -0.3382  0.3639
   38POPC    HB 5065   3.435   0.726   6.309 -1.3654 -0.4368  0.2042
   38POPC    C2 5066   3.547   0.752   6.499 -0.3518  0.0120  0.0118
   38POPC    HS 5067   3.520   0.648   6.528  2.3474 -0.9899 -0.8031
   38POPC   O21 5068   3.554   0.842   6.611 -0.2819 -0.0090 -0.2445
   38POPC   C21 5069   3.446   0.822   6.697 -0.3730 -0.3194 -0.9199
   38POPC   O22 5070   3.380   0.720   6.699  0.6042  0.2217 -0.3224
   38POPC   C22 5071   3.442   0.940   6.791 -0.3823  0.4344  0.3291
   38POPC   H2R 5072   3.425   1.024   6.721  0.2097 -2.2244 -3.3124
   38POPC   H2S 5073   3.532   0.954   6.855 -0.0605 -0.8280  0.1744
   38POPC    C3 5074   3.696   0.721   6.456  0.8730  0.4264  0.2804
   38POPC    HX 5075   3.724   0.804   6.387 -0.3737  1.1447  0.6049
   38POPC    HY 5076   3.685   0.627   6.398  1.9869  0.6613 -0.3556
   38POPC   O31 5077   3.787   0.713   6.569  0.0558  0.5080 -0.4731
   38POPC   C31 5078   3.887   0.791   6.580  0.6249 -0.5812  0.9373
   38POPC   O32 5079   3.918   0.885   6.508  0.4506 -0.1317  0.0825
   38POPC   C32 5080   3.952   0.757   6.720 -0.4233  0.3034 -0.0331
   38POPC   H2X 5081   4.056   0.795   6.709 -0.1020 -0.5598 -0.0963
   38POPC   H2Y 5082   3.961   0.646   6.720 -0.2772  0.2199 -3.1896
   38POPC   C23 5083   3.305   0.937   6.874 -0.9617 -0.2017  0.5290
   38POPC   H3R 5084   3.283   0.840   6.924  1.0754 -0.2637  1.3932
   38POPC   H3S 5085   3.214   0.966   6.817 -1.8179 -0.4691  1.7010
   38POPC   C24 5086   3.319   1.025   6.993 -0.4103  0.2641 -0.0107
   38POPC   H4R 5087   3.324   1.131   6.959 -0.7334  0.2246 -0.1822
   38POPC   H4S 5088   3.412   0.984   7.037 -1.4174 -0.6788  1.2901
   38POPC   C25 5089   3.196   1.017   7.092  0.3675 -0.4375 -0.2569
   38POPC   H5R 5090   3.159   0.913   7.107  0.7684 -0.3831  1.3408
   38POPC   H5S 5091   3.118   1.073   7.036  0.9248  0.3810 -0.2354
   38POPC   C26 5092   3.227   1.080   7.225 -0.4128  0.1982  0.0796
   38POPC   H6R 5093   3.136   1.086   7.288 -0.5686 -0.3194 -0.0881
   38POPC   H6S 5094   3.257   1.187   7.222 -1.4496  0.6971  3.4400
   38POPC   C27 5095   3.334   1.001   7.294 -0.1346  0.4992  0.9361
   38POPC   H7R 5096   3.431   1.010   7.242 -0.1112  0.6322  1.0029
   38POPC   H7S 5097   3.309   0.893   7.299 -1.5044  0.6512 -1.4608
   38POPC   C28 5098   3.356   1.053   7.436  0.1099 -0.3929 -0.2782
   38POPC   H8R 5099   3.262   1.095   7.478  0.2033 -0.2834 -0.1783
   38POPC   H8S 5100   3.422   1.141   7.422 -0.8967  0.7815  1.7800
   38POPC   C29 5101   3.426   0.965   7.538  0.3601  0.2808  0.6185
   38POPC   H91 5102   3.516   0.924   7.490 -1.0301 -0.6452 -1.3154
   38POPC  C210 5103   3.379   0.917   7.654 -1.0927 -0.2736 -0.2984
   38POPC  H101 5104   3.444   0.854   7.717 -0.9772  0.7712  0.6704
   38POPC  C211 5105   3.248   0.958   7.716  0.4579 -0.3234  0.2465
   38POPC  H11R 5106   3.159   0.910   7.669 -0.0556  0.5156  0.3352
   38POPC  H11S 5107   3.234   1.069   7.715 -0.0136 -0.3850 -0.1186
   38POPC  C212 5108   3.236   0.920   7.868  0.2212 -0.3164  0.4632
   38POPC  H12R 5109   3.260   0.811   7.875 -0.3833 -0.5406 -0.7029
   38POPC  H12S 5110   3.134   0.944   7.906  0.8930  1.5001  1.2319
   38POPC  C213 5111   3.319   1.010   7.956  0.1546 -0.2276  0.0913
   38POPC  H13R 5112   3.294   1.117   7.941 -0.2224  0.3342  3.7927
   38POPC  H13S 5113   3.425   0.990   7.932 -0.4252 -3.8280 -0.0072
   38POPC  C214 5114   3.302   0.984   8.106  0.2137 -0.6037 -0.7215
   38POPC  H14R 5115   3.352   1.070   8.154  0.6555 -1.2453 -0.0145
   38POPC  H14S 5116   3.359   0.892   8.131  0.1796 -0.9911 -1.9945
   38POPC  C215 5117   3.152   0.971   8.144 -0.3025 -0.3654 -0.3689
   38POPC  H15R 5118   3.115   0.869   8.124  0.5664 -1.3998  2.7175
   38POPC  H15S 5119   3.100   1.048   8.083 -1.2343 -0.6829  0.0122
   38POPC  C216 5120   3.138   1.002   8.289  0.5732  0.2768  0.1085
   38POPC  H16R 5121   3.158   1.110   8.309  0.6767  0.4715 -0.9807
   38POPC  H16S 5122   3.199   0.924   8.339 -0.2281 -0.1212  0.4855
   38POPC  C217 5123   2.997   0.966   8.337  0.6120 -0.5927 -0.0608
   38POPC  H17R 5124   2.980   0.859   8.315  0.9215 -0.0709 -3.3129
   38POPC  H17S 5125   2.930   1.027   8.272 -1.1110 -1.0413  1.1945
   38POPC  C218 5126   2.966   0.995   8.486  1.1495  0.5234  0.3167
   38POPC  H18R 5127   2.977   1.103   8.511  2.0949  0.1591  1.5281
   38POPC  H18S 5128   3.027   0.935   8.556 -1.5697 -0.1913  2.2079
   38POPC  H18T 5129   2.863   0.959   8.508  1.3284  0.9311  1.9045
   38POPC   C33 5130   3.879   0.806   6.851 -0.2183 -0.1103  0.2589
   38POPC   H3X 5131   3.827   0.902   6.832 -0.1961 -0.3332 -1.0584
   38POPC   H3Y 5132   3.955   0.826   6.929 -0.5393  0.9804  0.3036
   38POPC   C34 5133   3.767   0.704   6.881 -0.2822  0.0647  0.4996
   38POPC   H4X 5134   3.808   0.608   6.842  1.6029  0.3830  1.5968
   38POPC   H4Y 5135   3.678   0.733   6.821  0.0141  2.3727  1.1030
   38POPC   C35 5136   3.727   0.688   7.031 -0.5700  0.0587 -0.0676
   38POPC   H5X 5137   3.642   0.618   7.044 -1.0457  0.8002  1.0227
   38POPC   H5Y 5138   3.704   0.790   7.070 -1.5873  0.1897 -0.9559
   38POPC   C36 5139   3.844   0.631   7.123  0.2343 -0.4784 -0.5509
   38POPC   H6X 5140   3.927   0.706   7.129  1.2246 -1.6276  0.8456
   38POPC   H6Y 5141   3.877   0.543   7.065  0.3159 -1.0102  0.2763
   38POPC   C37 5142   3.810   0.578   7.265 -0.2644  0.4059  0.0354
   38POPC   H7X 5143   3.897   0.513   7.290  0.7064  0.8822 -1.8524
   38POPC   H7Y 5144   3.716   0.519   7.261 -2.0028  3.0607 -0.2271
   38POPC   C38 5145   3.816   0.697   7.362  0.2106 -0.1303  0.2307
   38POPC   H8X 5146   3.742   0.771   7.326  0.4360  0.5044  1.0496
   38POPC   H8Y 5147   3.920   0.735   7.367  1.0862 -1.8918 -2.4155
   38POPC   C39 5148   3.768   0.663   7.502 -1.0604 -0.3775 -0.0982
   38POPC   H9X 5149   3.663   0.627   7.496 -1.1675  0.1668 -2.5919
   38POPC   H9Y 5150   3.767   0.757   7.560 -0.4915  0.2400 -1.0640
   38POPC  C310 5151   3.844   0.551   7.582  0.1325  0.1232  0.0869
   38POPC  H10X 5152   3.950   0.581   7.591  0.2098 -0.5216  1.6578
   38POPC  H10Y 5153   3.835   0.461   7.518  2.2911 -0.6645  0.8248
   38POPC  C311 5154   3.795   0.530   7.727  0.3482 -0.2407 -0.0741
   38POPC  H11X 5155   3.871   0.467   7.777  2.2281  1.3752 -0.7669
   38POPC  H11Y 5156   3.693   0.487   7.733  0.2681 -0.2818 -1.4296
   38POPC  C312 5157   3.789   0.663   7.812 -0.6968 -0.0855  0.2319
   38POPC  H12X 5158   3.697   0.713   7.775 -0.4190 -0.4967 -1.0869
   38POPC  H12Y 5159   3.883   0.720   7.795  0.4597 -1.2345  2.3669
   38POPC  C313 5160   3.765   0.646   7.966 -0.2975 -0.2214 -0.6411
   38POPC  H13X 5161   3.833   0.579   8.023 -0.7208 -0.9667 -0.9887
   38POPC  H13Y 5162   3.670   0.592   7.991  1.0096 -1.8934  1.0426
   38POPC  C314 5163   3.748   0.785   8.032 -0.7401  0.3223 -0.2963
   38POPC  H14X 5164   3.673   0.837   7.969 -1.1417  0.9445  0.6749
   38POPC  H14Y 5165   3.840   0.848   8.035  1.1244 -2.2162 -0.8747
   38POPC  C315 5166   3.710   0.770   8.181  0.3746  0.2967 -0.1939
   38POPC  H15X 5167   3.783   0.701   8.228 -1.1929 -1.6279 -0.4738
   38POPC  H15Y 5168   3.611   0.720   8.182 -0.3470  1.5968  2.3594
   38POPC  C316 5169   3.678   0.901   8.245 -0.1520  0.6638  0.1684
   38POPC  H16X 5170   3.617   0.873   8.334 -1.1754 -4.3661 -1.7645
   38POPC  H16Y 5171   3.607   0.962   8.185  0.2608  0.2663 -0.7422
   38POPC  H16Z 5172   3.774   0.950   8.270 -0.1843 -0.1785  2.1603
   39POPC     N 5173   5.276   5.673   5.839  0.4171 -0.3456  0.4758
   39POPC   C12 5174   5.246   5.773   5.952  0.0104  0.2000 -0.0718
   39POPC  H12A 5175   5.141   5.794   5.953  0.3754  2.5538  2.3575
   39POPC  H12B 5176   5.302   5.864   5.933  1.6228 -1.1937 -2.5627
   39POPC   C13 5177   5.241   5.742   5.710 -0.0627  1.2030 -0.3681
   39POPC  H13A 5178   5.296   5.831   5.682  2.5804 -0.6995 -1.7466
   39POPC  H13B 5179   5.243   5.675   5.625 -0.1733  0.9199 -0.1472
   39POPC  H13C 5180   5.138   5.772   5.721 -0.8615 -0.5522 -2.3247
   39POPC   C14 5181   5.418   5.645   5.821 -0.6077  0.3061 -0.4733
   39POPC  H14A 5182   5.462   5.592   5.905 -0.1776 -2.2899 -2.2371
   39POPC  H14B 5183   5.427   5.575   5.739  1.1372 -0.8604  0.6287
   39POPC  H14C 5184   5.478   5.733   5.806  0.4341 -0.3148 -0.0999
   39POPC   C15 5185   5.191   5.540   5.851  0.3116 -0.7414  0.0959
   39POPC  H15A 5186   5.228   5.475   5.930  0.5618 -2.0008 -1.0161
   39POPC  H15B 5187   5.206   5.490   5.756  4.6057 -1.5595  0.9743
   39POPC  H15C 5188   5.085   5.557   5.860  0.0500  0.1945 -3.3056
   39POPC   C11 5189   5.269   5.743   6.101  1.0870  0.0521  0.2439
   39POPC  H11A 5190   5.270   5.830   6.170  0.7359 -0.2363  0.6153
   39POPC  H11B 5191   5.366   5.689   6.098  0.4290 -1.3010  1.5011
   39POPC     P 5192   5.028   5.697   6.203  0.5620 -0.1995 -0.3822
   39POPC   O13 5193   4.935   5.579   6.208 -0.1208 -0.0462 -0.3081
   39POPC   O14 5194   4.985   5.820   6.136 -0.8565  0.2353 -0.2987
   39POPC   O12 5195   5.166   5.651   6.139  0.1178 -0.4889 -0.7833
   39POPC   O11 5196   5.077   5.736   6.348 -0.3155 -0.1382 -0.8279
   39POPC    C1 5197   5.082   5.644   6.456  0.8486 -0.2517 -0.6108
   39POPC    HA 5198   5.174   5.581   6.447  1.0657  0.2047 -1.7777
   39POPC    HB 5199   4.996   5.576   6.441  0.9381 -0.3676 -0.5966
   39POPC    C2 5200   5.066   5.721   6.594  0.0929  0.0479 -0.4308
   39POPC    HS 5201   5.100   5.653   6.676 -1.3546 -1.0406 -0.6973
   39POPC   O21 5202   4.933   5.768   6.618 -0.2523  0.2732 -0.4369
   39POPC   C21 5203   4.850   5.674   6.670  0.0532 -0.4225  0.1135
   39POPC   O22 5204   4.883   5.563   6.698 -0.0203  0.1191  0.2839
   39POPC   C22 5205   4.712   5.725   6.699 -0.2247 -0.0790  0.4217
   39POPC   H2R 5206   4.642   5.676   6.628  0.5428  0.5681 -0.8275
   39POPC   H2S 5207   4.699   5.835   6.689 -0.7055 -0.1928 -0.3084
   39POPC    C3 5208   5.162   5.840   6.609 -0.1223  0.2074 -0.3238
   39POPC    HX 5209   5.150   5.916   6.529  0.1812 -0.0789 -0.6436
   39POPC    HY 5210   5.268   5.809   6.604  0.1433  1.0398 -0.0776
   39POPC   O31 5211   5.129   5.912   6.733  0.3177 -0.2573 -0.0165
   39POPC   C31 5212   5.205   5.896   6.842  0.0443  0.0987 -0.8750
   39POPC   O32 5213   5.310   5.836   6.844  0.5169  0.0289  0.3944
   39POPC   C32 5214   5.147   5.979   6.954  0.3200  0.0431 -0.3111
   39POPC   H2X 5215   5.120   6.078   6.911  0.1761 -0.1556 -0.6790
   39POPC   H2Y 5216   5.060   5.922   6.992  0.1853  1.0793  1.0048
   39POPC   C23 5217   4.667   5.672   6.842 -0.0175 -1.1694 -0.0263
   39POPC   H3R 5218   4.673   5.562   6.849  1.1188 -1.2487 -1.6491
   39POPC   H3S 5219   4.563   5.708   6.859  0.0157  1.3426 -3.8691
   39POPC   C24 5220   4.765   5.735   6.938 -0.1149 -1.2038 -1.0063
   39POPC   H4R 5221   4.774   5.844   6.917  1.1570 -1.1832 -0.4303
   39POPC   H4S 5222   4.862   5.682   6.929 -0.0903 -1.2977 -0.2553
   39POPC   C25 5223   4.726   5.711   7.086 -0.1981 -0.0436 -0.1661
   39POPC   H5R 5224   4.705   5.605   7.112  1.3237 -0.9205 -2.2764
   39POPC   H5S 5225   4.646   5.783   7.114  1.2684  0.9320  1.7158
   39POPC   C26 5226   4.830   5.757   7.186  0.0783  0.4307 -0.8397
   39POPC   H6R 5227   4.850   5.864   7.167 -0.6085  0.7252  0.0566
   39POPC   H6S 5228   4.924   5.699   7.170 -1.9261 -2.9246 -1.5164
   39POPC   C27 5229   4.785   5.734   7.336 -0.4911  0.3621  0.7985
   39POPC   H7R 5230   4.777   5.624   7.351  1.3136  0.0832 -0.1056
   39POPC   H7S 5231   4.690   5.791   7.350 -0.7950 -0.5251  2.7022
   39POPC   C28 5232   4.894   5.778   7.438 -0.0594 -0.1245 -0.3255
   39POPC   H8R 5233   4.993   5.745   7.399  0.6509  1.0912  0.3933
   39POPC   H8S 5234   4.866   5.722   7.530 -1.6442 -3.3496 -2.5836
   39POPC   C29 5235   4.880   5.927   7.453  0.2314  0.3353 -0.1323
   39POPC   H91 5236   4.916   5.977   7.362  1.4760  0.4655  0.4106
   39POPC  C210 5237   4.843   5.995   7.565 -0.1221  0.4679  0.4730
   39POPC  H101 5238   4.858   6.104   7.564  1.1766  0.3071  0.2196
   39POPC  C211 5239   4.795   5.947   7.700  0.0449 -0.8139  0.3392
   39POPC  H11R 5240   4.781   5.837   7.699  2.7533 -1.2201 -0.2303
   39POPC  H11S 5241   4.698   6.000   7.713  0.4692 -0.1265  0.7889
   39POPC  C212 5242   4.891   5.970   7.822  0.1024 -0.2273 -0.0739
   39POPC  H12R 5243   4.896   6.079   7.841 -2.0412 -0.5434  2.8879
   39POPC  H12S 5244   4.995   5.934   7.803 -0.3957 -1.3316 -0.8410
   39POPC  C213 5245   4.820   5.904   7.945 -1.0394  0.3181  0.2574
   39POPC  H13R 5246   4.807   5.798   7.913 -0.1456  0.5633 -0.9572
   39POPC  H13S 5247   4.725   5.953   7.976 -0.3865  0.7999  1.5556
   39POPC  C214 5248   4.901   5.891   8.066  0.0153 -1.4898 -0.3101
   39POPC  H14R 5249   4.997   5.841   8.041  1.7652  2.4895 -2.3872
   39POPC  H14S 5250   4.850   5.838   8.150 -0.3527  0.1972  0.5806
   39POPC  C215 5251   4.935   6.020   8.144 -0.2705  0.3975 -0.0479
   39POPC  H15R 5252   4.987   6.083   8.068  0.8558  1.4729  1.5567
   39POPC  H15S 5253   5.011   5.996   8.221 -1.0547 -3.1621 -0.2235
   39POPC  C216 5254   4.821   6.098   8.221 -0.4308  0.1534 -0.5032
   39POPC  H16R 5255   4.760   6.017   8.268  1.3801 -1.1358 -0.2737
   39POPC  H16S 5256   4.754   6.145   8.145 -1.0554  0.6570  0.3426
   39POPC  C217 5257   4.865   6.197   8.334  0.0239 -0.4379  0.3894
   39POPC  H17R 5258   4.925   6.284   8.298  0.2420 -1.0326 -0.7179
   39POPC  H17S 5259   4.944   6.146   8.393  0.1806 -0.1393  0.4429
   39POPC  C218 5260   4.754   6.253   8.423  0.1217 -0.9548 -0.3257
   39POPC  H18R 5261   4.699   6.338   8.377  0.6103  0.0889  0.9494
   39POPC  H18S 5262   4.804   6.295   8.513 -0.1954 -2.2637  0.4834
   39POPC  H18T 5263   4.682   6.177   8.462 -1.6221  0.3718 -0.8244
   39POPC   C33 5264   5.250   5.987   7.075  0.2159  0.8232 -0.1985
   39POPC   H3X 5265   5.338   6.051   7.051  2.3431 -1.2963  1.3861
   39POPC   H3Y 5266   5.282   5.886   7.107 -0.6784  1.4684  3.0173
   39POPC   C34 5267   5.184   6.059   7.196 -0.2967 -0.2016 -0.7687
   39POPC   H4X 5268   5.096   5.997   7.221 -1.6513  1.2858 -1.6006
   39POPC   H4Y 5269   5.140   6.158   7.171  0.2945  0.4606  0.6932
   39POPC   C35 5270   5.280   6.087   7.323 -0.3942  0.0245  0.2909
   39POPC   H5X 5271   5.361   6.152   7.283 -1.0954  0.3296 -0.6654
   39POPC   H5Y 5272   5.330   5.997   7.365 -1.3146  0.0929  1.5933
   39POPC   C36 5273   5.209   6.173   7.429  0.7003  0.7972 -0.2510
   39POPC   H6X 5274   5.120   6.116   7.461 -1.1808  3.3250 -0.7297
   39POPC   H6Y 5275   5.185   6.272   7.384  1.8347  0.4699 -1.6871
   39POPC   C37 5276   5.284   6.190   7.560 -0.1561  0.0044 -0.2495
   39POPC   H7X 5277   5.369   6.261   7.553  0.2004 -0.2877  0.9790
   39POPC   H7Y 5278   5.327   6.088   7.573  0.1638  0.2561  0.7629
   39POPC   C38 5279   5.189   6.228   7.675 -0.5846 -0.4300  0.2020
   39POPC   H8X 5280   5.120   6.144   7.699 -1.9559  1.1384  2.0073
   39POPC   H8Y 5281   5.125   6.312   7.641  1.5377  1.5452  0.8710
   39POPC   C39 5282   5.257   6.269   7.811 -0.0444 -0.8263 -0.1358
   39POPC   H9X 5283   5.318   6.360   7.796 -0.1102 -0.7646 -0.0342
   39POPC   H9Y 5284   5.329   6.191   7.843  1.0670  0.3209  0.2289
   39POPC  C310 5285   5.164   6.305   7.925  0.2413 -0.1973 -0.5082
   39POPC  H10X 5286   5.087   6.233   7.957 -1.3206  3.0908  4.1289
   39POPC  H10Y 5287   5.111   6.389   7.876  0.4784 -0.3425 -1.0264
   39POPC  C311 5288   5.248   6.352   8.047 -0.4460  0.6742  0.9386
   39POPC  H11X 5289   5.188   6.420   8.111 -1.3413  0.5705  0.2335
   39POPC  H11Y 5290   5.340   6.407   8.017  0.4030 -1.7461 -1.3177
   39POPC  C312 5291   5.287   6.239   8.139 -0.4791 -0.1479 -0.1361
   39POPC  H12X 5292   5.313   6.149   8.080  2.4217  2.9021 -4.1138
   39POPC  H12Y 5293   5.202   6.199   8.198 -1.0510 -0.5517 -1.1985
   39POPC  C313 5294   5.402   6.280   8.234  0.1964 -1.1881  0.4906
   39POPC  H13X 5295   5.372   6.369   8.293  0.1994 -0.8379 -0.0228
   39POPC  H13Y 5296   5.479   6.308   8.159 -0.7065  2.0561  0.6026
   39POPC  C314 5297   5.452   6.170   8.323 -0.0798  0.5231 -0.4305
   39POPC  H14X 5298   5.417   6.071   8.289  1.1380 -0.4374  0.9506
   39POPC  H14Y 5299   5.407   6.175   8.424  1.3164  0.5522  0.2265
   39POPC  C315 5300   5.597   6.189   8.349 -0.3689 -0.6490 -0.2482
   39POPC  H15X 5301   5.648   6.153   8.257  0.5677  0.6590 -0.2609
   39POPC  H15Y 5302   5.620   6.120   8.434 -0.6028  2.4309  2.5285
   39POPC  C316 5303   5.647   6.333   8.391  1.0924  0.1391  0.5192
   39POPC  H16X 5304   5.582   6.359   8.478  0.8641 -0.6209  0.5824
   39POPC  H16Y 5305   5.626   6.391   8.299 -1.4410 -3.7773 -1.6818
   39POPC  H16Z 5306   5.754   6.323   8.421  1.9595  1.1261 -2.0276
   40POPC     N 5307   5.556   2.289   6.219 -0.3934 -0.1294 -0.2133
   40POPC   C12 5308   5.544   2.170   6.324  0.1696 -0.0248  0.5764
   40POPC  H12A 5309   5.615   2.190   6.403 -1.4141  4.2556  1.1750
   40POPC  H12B 5310   5.563   2.082   6.265  1.1279  1.4094 -1.3827
   40POPC   C13 5311   5.683   2.277   6.136 -0.1358  0.1537  0.1585
   40POPC  H13A 5312   5.682   2.197   6.063 -1.4616  0.1538  0.1550
   40POPC  H13B 5313   5.692   2.365   6.073  0.2254 -1.9207 -2.8828
   40POPC  H13C 5314   5.778   2.280   6.188 -0.0711  2.8750  0.0127
   40POPC   C14 5315   5.441   2.277   6.117 -0.3039  0.0641 -0.1908
   40POPC  H14A 5316   5.443   2.359   6.047 -0.4828  1.9524  1.9014
   40POPC  H14B 5317   5.436   2.186   6.059 -2.4345 -0.3753  0.6005
   40POPC  H14C 5318   5.355   2.275   6.182 -1.2618 -1.4739 -1.4330
   40POPC   C15 5319   5.567   2.415   6.301  0.5562 -0.3151 -0.6178
   40POPC  H15A 5320   5.471   2.438   6.347  1.1092  2.2545 -0.5983
   40POPC  H15B 5321   5.579   2.500   6.236  0.2220 -0.0023 -0.2748
   40POPC  H15C 5322   5.642   2.395   6.376  0.4497  2.3699  0.3324
   40POPC   C11 5323   5.408   2.143   6.399  0.2017 -0.1760  0.6187
   40POPC  H11A 5324   5.398   2.236   6.459  3.0234  0.0271  0.8686
   40POPC  H11B 5325   5.430   2.066   6.476  0.7132 -0.3157  0.3361
   40POPC     P 5326   5.155   2.131   6.333  0.1826 -0.4554  0.0028
   40POPC   O13 5327   5.075   2.011   6.294  0.4625 -0.3457  0.6432
   40POPC   O14 5328   5.116   2.263   6.271  0.7590  0.6038 -0.1730
   40POPC   O12 5329   5.305   2.105   6.307 -0.2317 -0.7090 -0.0704
   40POPC   O11 5330   5.157   2.139   6.494 -0.0358 -0.2429  0.4811
   40POPC    C1 5331   5.064   2.062   6.578 -0.6922  0.2787  0.0699
   40POPC    HA 5332   5.102   2.063   6.682  1.0892  0.7771 -0.5578
   40POPC    HB 5333   5.071   1.955   6.550  3.6239  0.4453 -0.1487
   40POPC    C2 5334   4.919   2.115   6.583  0.1132 -0.2502 -0.0925
   40POPC    HS 5335   4.895   2.126   6.475  0.4570  1.0619 -0.0450
   40POPC   O21 5336   4.926   2.241   6.657 -0.4521 -0.0107 -0.2099
   40POPC   C21 5337   4.826   2.316   6.631  0.4907 -0.2238 -0.0184
   40POPC   O22 5338   4.732   2.288   6.559 -0.3265 -0.9051  0.2083
   40POPC   C22 5339   4.832   2.448   6.707  0.1114  0.2110 -0.9685
   40POPC   H2R 5340   4.774   2.517   6.642 -2.2743 -2.3995 -1.8167
   40POPC   H2S 5341   4.938   2.481   6.711  0.9306 -2.2653  0.3899
   40POPC    C3 5342   4.826   2.010   6.647 -0.3055 -0.0949  0.1523
   40POPC    HX 5343   4.830   1.922   6.579  1.9664  0.7420 -0.8911
   40POPC    HY 5344   4.726   2.057   6.631 -0.2586  0.6307  1.7789
   40POPC   O31 5345   4.863   1.973   6.785 -0.2787 -0.0243  0.5528
   40POPC   C31 5346   4.821   2.053   6.872  0.4256 -0.4410  0.4072
   40POPC   O32 5347   4.723   2.129   6.860 -0.1748  0.3186 -0.0055
   40POPC   C32 5348   4.897   2.028   6.997  0.2489 -0.3857 -1.3821
   40POPC   H2X 5349   5.003   2.026   6.965 -0.0942  0.1099 -2.6058
   40POPC   H2Y 5350   4.870   1.932   7.046  1.2473  0.2544  0.5239
   40POPC   C23 5351   4.766   2.434   6.840 -0.1844  0.4693  0.3359
   40POPC   H3R 5352   4.796   2.340   6.893 -0.0463 -0.7344 -1.7839
   40POPC   H3S 5353   4.655   2.431   6.831 -0.5024  1.7127  2.8987
   40POPC   C24 5354   4.807   2.549   6.930  0.7391  0.5070  0.3576
   40POPC   H4R 5355   4.797   2.648   6.880 -1.8187  0.0360 -0.2322
   40POPC   H4S 5356   4.915   2.527   6.941  1.1789 -0.7677 -4.3493
   40POPC   C25 5357   4.738   2.558   7.063  0.1680 -0.5209  0.4559
   40POPC   H5R 5358   4.736   2.453   7.098 -2.6572 -1.9942 -3.4392
   40POPC   H5S 5359   4.631   2.576   7.039  0.8768  0.7537 -2.1057
   40POPC   C26 5360   4.790   2.654   7.170  0.2259 -0.1392 -0.4181
   40POPC   H6R 5361   4.771   2.761   7.145 -0.3638  0.2534  1.5607
   40POPC   H6S 5362   4.892   2.627   7.203 -1.2578 -4.9872  0.9944
   40POPC   C27 5363   4.704   2.643   7.305  0.5537  0.6122 -0.2816
   40POPC   H7R 5364   4.597   2.644   7.274  0.7247 -3.3304 -1.4550
   40POPC   H7S 5365   4.731   2.736   7.360 -0.3608  1.1542 -0.7005
   40POPC   C28 5366   4.735   2.524   7.386 -0.3802  0.7280  0.0326
   40POPC   H8R 5367   4.844   2.527   7.409 -0.3214 -0.7746  0.0361
   40POPC   H8S 5368   4.713   2.440   7.316 -1.0140  0.7937  0.1448
   40POPC   C29 5369   4.655   2.518   7.513  0.1925 -0.8271  1.0426
   40POPC   H91 5370   4.574   2.444   7.505 -0.4642 -0.0045  0.0170
   40POPC  C210 5371   4.678   2.588   7.625  1.1698 -0.0641  0.0932
   40POPC  H101 5372   4.602   2.578   7.704  2.0071  0.6605  1.0143
   40POPC  C211 5373   4.793   2.681   7.653  0.3346 -0.3205 -0.0598
   40POPC  H11R 5374   4.748   2.769   7.704  1.1330  0.2360 -0.3065
   40POPC  H11S 5375   4.851   2.715   7.564 -0.2327  2.2514  0.4777
   40POPC  C212 5376   4.899   2.624   7.753  0.1028 -0.7475 -1.2393
   40POPC  H12R 5377   4.985   2.694   7.753  0.5114 -1.1083  1.5979
   40POPC  H12S 5378   4.933   2.523   7.720  0.3134 -1.5069  1.1278
   40POPC  C213 5379   4.849   2.610   7.901 -0.9431  0.4068 -0.1270
   40POPC  H13R 5380   4.800   2.511   7.914 -2.0347  1.0976  1.1946
   40POPC  H13S 5381   4.767   2.684   7.913 -0.8928  0.3845  0.3485
   40POPC  C214 5382   4.963   2.645   8.001 -0.0751 -0.0905  0.2874
   40POPC  H14R 5383   5.015   2.739   7.970  1.0627 -0.9126 -0.3957
   40POPC  H14S 5384   5.051   2.577   8.003  0.5506  0.6505 -0.7304
   40POPC  C215 5385   4.913   2.664   8.146  0.3203 -0.1896 -0.5099
   40POPC  H15R 5386   4.866   2.569   8.181 -4.0908  2.2450  0.9365
   40POPC  H15S 5387   4.834   2.742   8.146  0.6637  0.2227  1.5729
   40POPC  C216 5388   5.017   2.713   8.247  0.0171  0.0619  0.0317
   40POPC  H16R 5389   5.052   2.811   8.209  0.6630  0.7404  2.2373
   40POPC  H16S 5390   5.086   2.626   8.248  0.5773  0.5021  0.2505
   40POPC  C217 5391   4.967   2.712   8.393  0.0321 -0.2282 -0.0204
   40POPC  H17R 5392   5.050   2.736   8.464  0.6853 -0.1786 -0.7883
   40POPC  H17S 5393   4.935   2.611   8.425  1.1529 -0.0377  1.8968
   40POPC  C218 5394   4.843   2.800   8.418  0.3795  0.2657  0.1432
   40POPC  H18R 5395   4.844   2.910   8.403  1.0044  0.1455 -0.8087
   40POPC  H18S 5396   4.806   2.784   8.522 -0.5277 -0.3604 -0.2679
   40POPC  H18T 5397   4.764   2.758   8.353 -1.4123 -1.0804  2.9902
   40POPC   C33 5398   4.872   2.137   7.106 -0.1836 -0.1558  0.3648
   40POPC   H3X 5399   4.763   2.142   7.128 -0.0245  0.3221  1.0830
   40POPC   H3Y 5400   4.907   2.238   7.076 -1.1945  0.2887  0.6409
   40POPC   C34 5401   4.951   2.088   7.232  0.0011  0.4281  0.6167
   40POPC   H4X 5402   5.057   2.086   7.199 -0.6774  0.1033 -1.7359
   40POPC   H4Y 5403   4.909   1.990   7.262  0.8361 -1.2410 -3.1346
   40POPC   C35 5404   4.929   2.178   7.357  0.2413  0.7240 -0.5245
   40POPC   H5X 5405   4.824   2.175   7.394 -0.2512  0.5620 -1.8616
   40POPC   H5Y 5406   4.950   2.282   7.324 -1.2154  0.0851 -3.9226
   40POPC   C36 5407   5.020   2.127   7.476  0.1820 -0.4336  0.5772
   40POPC   H6X 5408   5.130   2.132   7.460 -0.0395  0.6801 -0.6648
   40POPC   H6Y 5409   4.983   2.023   7.494  0.9251 -1.3772 -2.7268
   40POPC   C37 5410   4.985   2.220   7.596 -0.9769  0.0727  0.9704
   40POPC   H7X 5411   4.891   2.275   7.577  0.4335  1.7104 -1.9736
   40POPC   H7Y 5412   5.063   2.299   7.590 -1.7641  1.2258  4.0020
   40POPC   C38 5413   5.001   2.162   7.740  0.8283  0.2450  0.4201
   40POPC   H8X 5414   5.102   2.118   7.752  1.4187  1.3786 -0.2430
   40POPC   H8Y 5415   4.928   2.082   7.764  1.4203 -0.0559  1.2439
   40POPC   C39 5416   4.998   2.269   7.851  0.6264 -0.2764 -0.2006
   40POPC   H9X 5417   4.903   2.326   7.846  0.5404 -0.4256 -0.2647
   40POPC   H9Y 5418   5.086   2.337   7.837  1.2669 -1.0202  0.1430
   40POPC  C310 5419   5.016   2.200   7.981  0.4645  0.1740 -0.2296
   40POPC  H10X 5420   5.093   2.121   7.964  0.1363 -0.6664  1.8875
   40POPC  H10Y 5421   4.926   2.147   8.019  1.1351 -0.9180 -0.1019
   40POPC  C311 5422   5.064   2.298   8.089  0.1916  0.4066 -0.5241
   40POPC  H11X 5423   5.017   2.398   8.100 -0.7004 -0.1564  1.4013
   40POPC  H11Y 5424   5.172   2.316   8.073  0.4690 -0.0285  0.7537
   40POPC  C312 5425   5.065   2.243   8.230  0.4831  0.2260 -0.1454
   40POPC  H12X 5426   5.134   2.157   8.233  0.4160  0.1251  3.4045
   40POPC  H12Y 5427   4.963   2.203   8.251  1.0392 -2.0043 -1.4220
   40POPC  C313 5428   5.109   2.349   8.332 -0.3632 -0.5175 -0.0742
   40POPC  H13X 5429   5.028   2.415   8.370  2.9709  2.4306  2.6081
   40POPC  H13Y 5430   5.186   2.409   8.280 -0.2785  0.2111  0.8746
   40POPC  C314 5431   5.167   2.285   8.467 -0.0162  0.4874 -0.1794
   40POPC  H14X 5432   5.227   2.364   8.518 -1.0051 -0.1677  2.0983
   40POPC  H14Y 5433   5.232   2.198   8.444 -0.1009  0.1151  0.9488
   40POPC  C315 5434   5.066   2.241   8.572 -0.4956  0.5088 -0.3608
   40POPC  H15X 5435   5.127   2.175   8.638 -1.1376 -0.7179 -0.9551
   40POPC  H15Y 5436   4.989   2.178   8.523  0.8417 -0.1579 -1.6999
   40POPC  C316 5437   5.012   2.356   8.662  0.2132  0.4584  0.6150
   40POPC  H16X 5438   4.923   2.403   8.615  0.0591 -1.3216 -0.9664
   40POPC  H16Y 5439   5.088   2.435   8.679 -0.7376  1.7215 -0.7819
   40POPC  H16Z 5440   4.986   2.307   8.759  0.7578  0.1852  0.6287
   41CHL1    C3 5441   4.317   0.293  10.188  1.1859  0.1956  0.1268
   41CHL1    H3 5442   4.227   0.235  10.156  1.8855 -1.7030  1.4258
   41CHL1    O3 5443   4.326   0.293  10.329 -0.0678 -0.4211 -0.0283
   41CHL1   H3' 5444   4.392   0.359  10.352 -1.7338  1.1835  0.4575
   41CHL1    C4 5445   4.441   0.225  10.131  0.6006  1.0304  0.3677
   41CHL1   H4A 5446   4.543   0.266  10.149  1.6873 -1.0409 -0.6852
   41CHL1   H4B 5447   4.447   0.122  10.172 -0.0229  1.3123  1.1842
   41CHL1    C5 5448   4.437   0.228   9.980  0.2675 -0.6981  0.4812
   41CHL1    C6 5449   4.446   0.116   9.904 -0.3928 -0.5671  0.1481
   41CHL1    H6 5450   4.448   0.019   9.955 -0.6698 -0.5872  0.1249
   41CHL1    C7 5451   4.453   0.107   9.754  0.4186 -0.0544 -0.3637
   41CHL1   H7A 5452   4.537   0.043   9.719  1.9716  1.8814 -0.3990
   41CHL1   H7B 5453   4.350   0.070   9.736  0.5727  0.2420 -2.0253
   41CHL1    C8 5454   4.470   0.241   9.685  0.0766  0.1667 -0.3522
   41CHL1    H8 5455   4.575   0.275   9.695  0.0308  0.0381  0.6544
   41CHL1   C14 5456   4.435   0.227   9.543 -0.0810  0.4358 -0.1371
   41CHL1   H14 5457   4.329   0.191   9.543  0.5092 -1.4666 -1.8284
   41CHL1   C15 5458   4.505   0.125   9.456  0.3610  0.3787  0.3731
   41CHL1  H15A 5459   4.612   0.139   9.483 -0.0024  1.3849  1.3653
   41CHL1  H15B 5460   4.483   0.022   9.494 -0.1143 -0.6721 -2.5109
   41CHL1   C16 5461   4.483   0.157   9.314 -0.0595  0.1377 -0.4085
   41CHL1  H16A 5462   4.577   0.167   9.255  0.6492 -1.0229  0.4942
   41CHL1  H16B 5463   4.419   0.080   9.267  0.0623  0.8235 -1.7533
   41CHL1   C17 5464   4.412   0.296   9.320  0.3887  0.2436  0.6349
   41CHL1   H17 5465   4.302   0.280   9.315  0.1554  0.7688  2.9594
   41CHL1   C13 5466   4.442   0.356   9.464 -0.1060  0.1198  0.2661
   41CHL1   C18 5467   4.585   0.413   9.455  0.0909 -0.0805 -0.1486
   41CHL1  H18A 5468   4.664   0.344   9.418  1.0371 -1.4447  3.8609
   41CHL1  H18B 5469   4.583   0.505   9.392  3.8914  0.8838  0.8578
   41CHL1  H18C 5470   4.626   0.449   9.552 -0.9349  2.3976 -0.5421
   41CHL1   C12 5471   4.338   0.446   9.527 -0.6848  0.0410  0.3470
   41CHL1  H12A 5472   4.323   0.543   9.476  0.0578 -0.7025 -1.3767
   41CHL1  H12B 5473   4.236   0.401   9.523 -0.7551  0.2852 -2.3434
   41CHL1   C11 5474   4.378   0.475   9.678  0.0212 -0.3678 -0.4284
   41CHL1  H11A 5475   4.478   0.524   9.676  0.1608 -0.5951  0.3308
   41CHL1  H11B 5476   4.311   0.548   9.728  1.1628  1.8152 -1.9447
   41CHL1    C9 5477   4.387   0.343   9.758 -0.4631 -0.3410 -0.5792
   41CHL1    H9 5478   4.281   0.311   9.751 -0.3391 -0.6015 -1.3147
   41CHL1   C10 5479   4.423   0.363   9.911  0.4080 -0.2623 -0.2434
   41CHL1   C19 5480   4.551   0.448   9.931 -0.2573  0.3287 -0.2546
   41CHL1  H19A 5481   4.529   0.543   9.879  1.9203 -1.4358 -4.9355
   41CHL1  H19B 5482   4.575   0.462  10.039 -1.0437  1.0846 -0.1606
   41CHL1  H19C 5483   4.637   0.403   9.877  0.0564 -0.6282  0.9897
   41CHL1    C1 5484   4.301   0.433   9.980 -0.3192  0.4311  0.3365
   41CHL1   H1A 5485   4.284   0.542   9.964 -0.3473  0.7618  2.3899
   41CHL1   H1B 5486   4.212   0.387   9.932  0.9674 -1.1653 -0.6121
   41CHL1    C2 5487   4.306   0.430  10.132 -0.0386 -0.1047  0.2759
   41CHL1   H2A 5488   4.213   0.472  10.177 -0.8442 -0.7676 -0.7402
   41CHL1   H2B 5489   4.378   0.506  10.168 -0.3520  1.3766 -2.0653
   41CHL1   C20 5490   4.437   0.382   9.197 -0.9990 -0.2822  0.0972
   41CHL1   H20 5491   4.546   0.400   9.196 -1.0384  0.2663  1.7223
   41CHL1   C21 5492   4.355   0.515   9.204  0.1438  0.4594 -0.4558
   41CHL1  H21A 5493   4.358   0.578   9.112  1.1972  0.1931 -0.6109
   41CHL1  H21B 5494   4.410   0.586   9.269  1.3795  1.1485 -2.1590
   41CHL1  H21C 5495   4.249   0.496   9.233 -0.0196 -0.2480 -1.4454
   41CHL1   C22 5496   4.413   0.306   9.067  0.7446 -0.8271 -0.1242
   41CHL1  H22A 5497   4.474   0.214   9.078  0.2301 -1.1934 -0.3191
   41CHL1  H22B 5498   4.306   0.278   9.060  0.0025  1.0169  2.3159
   41CHL1   C23 5499   4.462   0.378   8.942 -0.2230 -0.9084  0.1849
   41CHL1  H23A 5500   4.391   0.463   8.932 -0.3973 -0.9608  0.9669
   41CHL1  H23B 5501   4.567   0.413   8.950 -0.6801  0.5748  0.0744
   41CHL1   C24 5502   4.449   0.289   8.821  0.1111  0.4017  0.1037
   41CHL1  H24A 5503   4.535   0.219   8.821 -0.8291 -0.8742  2.1306
   41CHL1  H24B 5504   4.356   0.227   8.826  0.7899 -0.6137  0.5712
   41CHL1   C25 5505   4.452   0.358   8.679  0.5811  1.0250 -0.1997
   41CHL1   H25 5506   4.360   0.418   8.661  0.3768  0.3241 -1.7062
   41CHL1   C26 5507   4.566   0.458   8.663 -0.5231 -0.2786 -0.1676
   41CHL1  H26A 5508   4.667   0.415   8.679 -0.6773 -0.2372  1.0039
   41CHL1  H26B 5509   4.567   0.501   8.560  0.8162  1.9165  0.6946
   41CHL1  H26C 5510   4.540   0.539   8.734 -0.0358 -0.5004  0.2612
   41CHL1   C27 5511   4.463   0.245   8.583  0.5711 -1.0078  0.2323
   41CHL1  H27A 5512   4.380   0.177   8.611  2.1646 -1.5964  4.0186
   41CHL1  H27B 5513   4.460   0.269   8.474 -1.2198 -2.2064 -0.0270
   41CHL1  H27C 5514   4.561   0.194   8.591  1.9683  0.9056 -2.7519
   42CHL1    C3 5515   4.052   6.534  10.217 -0.6405  0.0399 -0.3110
   42CHL1    H3 5516   3.944   6.513  10.234 -0.7412 -0.1374 -1.1417
   42CHL1    O3 5517   4.122   6.524  10.341  0.2781 -0.2684  0.1423
   42CHL1   H3' 5518   4.215   6.538  10.325  0.9423 -4.3674 -0.5189
   42CHL1    C4 5519   4.096   6.415  10.126 -1.1150  0.2086 -0.6643
   42CHL1   H4A 5520   4.205   6.395  10.128 -1.1709 -0.3147 -1.9842
   42CHL1   H4B 5521   4.063   6.322  10.177 -0.3183 -0.1727 -0.8362
   42CHL1    C5 5522   4.058   6.426   9.977 -0.1222 -0.0119 -0.0857
   42CHL1    C6 5523   3.973   6.344   9.921  0.1211  0.4353 -0.1002
   42CHL1    H6 5524   3.934   6.272   9.994  2.6726 -0.4451  0.5106
   42CHL1    C7 5525   3.927   6.349   9.779 -0.0616  0.6325 -0.3432
   42CHL1   H7A 5526   3.934   6.249   9.732 -0.9873 -0.1164  1.0433
   42CHL1   H7B 5527   3.826   6.395   9.765  0.7354  2.6875  0.2537
   42CHL1    C8 5528   4.023   6.434   9.700  0.1661 -0.0950 -0.3900
   42CHL1    H8 5529   4.115   6.377   9.677 -0.7765 -0.7222 -2.8931
   42CHL1   C14 5530   3.973   6.457   9.555  0.1114  0.6018  0.0045
   42CHL1   H14 5531   3.876   6.508   9.571 -0.5702 -0.7981  0.4606
   42CHL1   C15 5532   3.939   6.330   9.469  0.1470  0.2365  0.0195
   42CHL1  H15A 5533   4.026   6.261   9.458  0.0823 -0.0382  1.1301
   42CHL1  H15B 5534   3.849   6.282   9.511  1.2711 -0.4088  1.8103
   42CHL1   C16 5535   3.920   6.388   9.325 -0.3212  0.1581  0.5535
   42CHL1  H16A 5536   3.975   6.326   9.251  0.3214 -2.6079  3.1686
   42CHL1  H16B 5537   3.812   6.383   9.300 -0.6898  1.8408  1.6389
   42CHL1   C17 5538   3.962   6.538   9.327 -0.3481 -0.1074 -0.0903
   42CHL1   H17 5539   3.864   6.587   9.344 -0.3057  0.2372 -0.8086
   42CHL1   C13 5540   4.053   6.542   9.459 -0.5951 -0.2070 -0.2998
   42CHL1   C18 5541   4.197   6.479   9.428 -0.3479 -0.4870  0.1235
   42CHL1  H18A 5542   4.245   6.445   9.522  0.2331  0.6685  0.2726
   42CHL1  H18B 5543   4.178   6.390   9.365 -0.5276 -1.1269  1.0581
   42CHL1  H18C 5544   4.257   6.559   9.379 -3.7566  3.0862  1.2469
   42CHL1   C12 5545   4.067   6.679   9.531  0.2185  0.3852  0.0322
   42CHL1  H12A 5546   4.143   6.744   9.483  0.8813  1.7614  2.7088
   42CHL1  H12B 5547   3.969   6.728   9.551  0.0364 -0.4117  1.1832
   42CHL1   C11 5548   4.142   6.659   9.668  0.0512  0.5203 -0.1943
   42CHL1  H11A 5549   4.249   6.631   9.660 -0.0036 -0.2705  1.4370
   42CHL1  H11B 5550   4.132   6.757   9.719 -0.8279 -0.4833  1.6739
   42CHL1    C9 5551   4.064   6.567   9.768  0.0984 -0.1522 -0.5148
   42CHL1    H9 5552   3.970   6.626   9.767  0.3383  0.2542  0.1812
   42CHL1   C10 5553   4.116   6.555   9.917  0.0408 -0.8787  0.4261
   42CHL1   C19 5554   4.268   6.559   9.918 -0.2207  0.4263 -0.0683
   42CHL1  H19A 5555   4.310   6.657   9.887  0.0751  0.2300 -0.2920
   42CHL1  H19B 5556   4.303   6.532  10.020  1.1675  0.3339 -0.5464
   42CHL1  H19C 5557   4.314   6.479   9.857  0.1638  2.5489 -2.7711
   42CHL1    C1 5558   4.064   6.680  10.004 -0.8462  0.6177  0.4692
   42CHL1   H1A 5559   4.115   6.770   9.964  0.5392 -1.2279 -2.1966
   42CHL1   H1B 5560   3.957   6.695   9.979 -0.8773 -0.1742  0.1093
   42CHL1    C2 5561   4.071   6.676  10.156 -0.3606 -0.2501  0.5433
   42CHL1   H2A 5562   4.030   6.759  10.218  0.7089  1.7570 -1.2823
   42CHL1   H2B 5563   4.180   6.691  10.177 -0.7366  1.5062  1.5041
   42CHL1   C20 5564   4.035   6.587   9.196 -0.7174  0.5959  0.0562
   42CHL1   H20 5565   4.136   6.542   9.196 -1.6281 -1.5305 -0.3163
   42CHL1   C21 5566   4.044   6.737   9.196  0.3580 -0.2607 -0.9039
   42CHL1  H21A 5567   3.941   6.775   9.215  0.8510  0.4151  0.4931
   42CHL1  H21B 5568   4.084   6.778   9.101  1.6020  1.6703  0.4089
   42CHL1  H21C 5569   4.109   6.773   9.278  0.6626 -1.2657 -0.6895
   42CHL1   C22 5570   3.968   6.549   9.059  0.4074  0.0856 -0.9912
   42CHL1  H22A 5571   3.957   6.439   9.068  2.4809 -0.0255  1.1053
   42CHL1  H22B 5572   3.873   6.605   9.053  1.1980  1.4704 -0.9572
   42CHL1   C23 5573   4.048   6.579   8.929  0.0073  0.2797 -0.5330
   42CHL1  H23A 5574   4.077   6.686   8.926  0.3638  0.3141  2.1087
   42CHL1  H23B 5575   4.142   6.521   8.928 -0.8376 -1.1642  0.2480
   42CHL1   C24 5576   3.968   6.546   8.804 -0.0148  0.0568 -0.4846
   42CHL1  H24A 5577   3.943   6.438   8.809 -0.0979  0.0640 -0.7558
   42CHL1  H24B 5578   3.872   6.602   8.809 -0.3689 -0.6263  2.4679
   42CHL1   C25 5579   4.040   6.586   8.676  0.3119  0.0629  0.4507
   42CHL1   H25 5580   3.977   6.546   8.594  1.0401  0.5025 -0.3391
   42CHL1   C26 5581   4.016   6.735   8.657 -0.4621  0.3718  0.5694
   42CHL1  H26A 5582   4.080   6.792   8.728  0.9058 -1.3082  0.7642
   42CHL1  H26B 5583   4.049   6.760   8.554 -0.0790  2.0453  1.0704
   42CHL1  H26C 5584   3.907   6.756   8.666 -0.7671 -0.6226 -0.5988
   42CHL1   C27 5585   4.184   6.539   8.665  0.1233 -0.0241 -0.6299
   42CHL1  H27A 5586   4.190   6.434   8.701  0.9333  0.2589  0.0987
   42CHL1  H27B 5587   4.212   6.539   8.557 -1.7404  0.7510 -1.1544
   42CHL1  H27C 5588   4.269   6.589   8.716  1.5013 -1.9867 -0.8846
   43CHL1    C3 5589   3.013   0.060  10.093 -0.0874  0.6497  0.3311
   43CHL1    H3 5590   2.955   0.155  10.090  1.5292  1.6524 -1.1477
   43CHL1    O3 5591   2.985   0.021  10.231 -0.7374 -0.5287  0.3803
   43CHL1   H3' 5592   3.019   0.097  10.279  2.7525 -0.1601 -2.2809
   43CHL1    C4 5593   2.931  -0.042  10.003  0.7906 -0.1260 -0.1655
   43CHL1   H4A 5594   2.966  -0.147  10.017  0.0600 -0.4562 -0.7153
   43CHL1   H4B 5595   2.826  -0.029  10.037  0.5234 -1.8943 -0.2018
   43CHL1    C5 5596   2.940  -0.008   9.854 -0.0674  0.2194 -0.1000
   43CHL1    C6 5597   2.830   0.011   9.784 -0.0222  0.0614 -0.3727
   43CHL1    H6 5598   2.734  -0.000   9.836  0.7537 -0.5749  0.9636
   43CHL1    C7 5599   2.827   0.040   9.635  0.6115 -0.3173  0.2538
   43CHL1   H7A 5600   2.760  -0.037   9.590 -1.5121  1.2757  0.5414
   43CHL1   H7B 5601   2.787   0.137   9.597  0.1179 -0.5635  0.1389
   43CHL1    C8 5602   2.967   0.022   9.579  0.6822 -0.5597  0.3272
   43CHL1    H8 5603   2.977  -0.087   9.565  0.4887 -0.8123  2.0273
   43CHL1   C14 5604   2.981   0.084   9.443  0.1736  0.0125 -0.1693
   43CHL1   H14 5605   2.955   0.191   9.456 -2.0792 -0.0758 -2.9330
   43CHL1   C15 5606   2.869   0.034   9.347  0.0281 -0.6831  0.6084
   43CHL1  H15A 5607   2.861  -0.076   9.343  1.0259 -0.7269 -0.5893
   43CHL1  H15B 5608   2.776   0.087   9.377  0.2080  1.5048 -2.2881
   43CHL1   C16 5609   2.925   0.089   9.209  0.1293 -0.5497 -0.6656
   43CHL1  H16A 5610   2.936  -0.001   9.145  2.0052 -2.7737  2.4981
   43CHL1  H16B 5611   2.857   0.162   9.161  0.2905  0.7509  0.9955
   43CHL1   C17 5612   3.065   0.154   9.242  0.5771  0.3070  0.0974
   43CHL1   H17 5613   3.040   0.259   9.269  0.5367  0.6382 -1.1390
   43CHL1   C13 5614   3.109   0.081   9.372 -0.1279 -0.9334 -0.5321
   43CHL1   C18 5615   3.158  -0.059   9.337 -0.0828  0.6691  0.0333
   43CHL1  H18A 5616   3.112  -0.099   9.244  0.5316 -0.9264  0.3877
   43CHL1  H18B 5617   3.264  -0.047   9.308 -0.8037  3.4753 -1.8538
   43CHL1  H18C 5618   3.122  -0.138   9.406 -2.3521  0.1756 -1.5963
   43CHL1   C12 5619   3.214   0.156   9.465  0.0276  0.3205  0.0462
   43CHL1  H12A 5620   3.315   0.147   9.420  0.6756  0.3096  1.4418
   43CHL1  H12B 5621   3.207   0.266   9.455  1.0051  0.4305  0.4067
   43CHL1   C11 5622   3.215   0.106   9.607  0.1543 -0.3233  0.0263
   43CHL1  H11A 5623   3.285   0.021   9.617  0.5553  0.0703  0.5918
   43CHL1  H11B 5624   3.265   0.185   9.666  2.3927 -0.6709 -1.2852
   43CHL1    C9 5625   3.077   0.079   9.671 -0.9471 -0.4425 -0.1311
   43CHL1    H9 5626   3.037   0.179   9.697 -1.8403 -0.4195 -1.4753
   43CHL1   C10 5627   3.089   0.017   9.811 -0.1269  1.4057  1.1193
   43CHL1   C19 5628   3.172  -0.113   9.811  0.1956  0.3017  0.5533
   43CHL1  H19A 5629   3.273  -0.096   9.767  0.0125 -1.3138 -0.5629
   43CHL1  H19B 5630   3.188  -0.166   9.907  1.9473 -1.2354 -0.5098
   43CHL1  H19C 5631   3.126  -0.188   9.743  1.5236 -0.3408  0.3209
   43CHL1    C1 5632   3.162   0.121   9.908  0.0502  0.5343 -0.2161
   43CHL1   H1A 5633   3.268   0.138   9.878 -0.6841 -0.5809 -3.9611
   43CHL1   H1B 5634   3.110   0.218   9.900  0.7114  1.1573  2.2240
   43CHL1    C2 5635   3.157   0.080  10.053 -0.3148 -0.4926  0.4078
   43CHL1   H2A 5636   3.194   0.157  10.124 -1.8742  0.5923  0.1020
   43CHL1   H2B 5637   3.213  -0.014  10.070 -0.7977 -0.5983  1.4560
   43CHL1   C20 5638   3.155   0.158   9.116  0.6894  0.3021  0.0059
   43CHL1   H20 5639   3.223   0.070   9.114 -0.0164 -0.2609  0.1792
   43CHL1   C21 5640   3.246   0.284   9.142  0.6552 -0.1911 -0.9048
   43CHL1  H21A 5641   3.308   0.297   9.051 -0.9409 -0.6287 -2.1049
   43CHL1  H21B 5642   3.308   0.271   9.234 -0.0642  1.1347 -0.2072
   43CHL1  H21C 5643   3.184   0.375   9.155  1.3453  0.9237 -4.4236
   43CHL1   C22 5644   3.082   0.159   8.975  0.4677 -0.3789 -0.4797
   43CHL1  H22A 5645   3.031   0.061   8.960  0.5314 -0.6470  0.9091
   43CHL1  H22B 5646   3.007   0.241   8.978  1.6707  1.0097 -3.8653
   43CHL1   C23 5647   3.174   0.182   8.855 -0.1538 -0.0354 -0.1628
   43CHL1  H23A 5648   3.211   0.286   8.855 -0.8817  0.2321 -0.1202
   43CHL1  H23B 5649   3.264   0.117   8.850 -0.2637 -0.0711 -2.5956
   43CHL1   C24 5650   3.117   0.174   8.713  0.0760 -0.3003 -0.4291
   43CHL1  H24A 5651   3.050   0.085   8.710 -0.6140  0.1126  1.4142
   43CHL1  H24B 5652   3.061   0.266   8.685 -1.6314 -1.8720 -2.6486
   43CHL1   C25 5653   3.234   0.150   8.613  0.4859 -0.0566 -0.3470
   43CHL1   H25 5654   3.290   0.058   8.640  1.4200  0.3083 -0.9950
   43CHL1   C26 5655   3.191   0.143   8.468  0.2222 -0.4064  0.3119
   43CHL1  H26A 5656   3.148   0.046   8.434  1.1865 -0.3286 -1.1626
   43CHL1  H26B 5657   3.107   0.212   8.445  0.7143 -0.3312 -1.3687
   43CHL1  H26C 5658   3.274   0.162   8.397 -2.1614  3.4865 -1.7928
   43CHL1   C27 5659   3.339   0.266   8.623 -0.3351  0.1591  0.1758
   43CHL1  H27A 5660   3.422   0.246   8.553  0.2810  1.0643  0.6294
   43CHL1  H27B 5661   3.293   0.364   8.596  1.1603  1.4608  2.0855
   43CHL1  H27C 5662   3.383   0.282   8.724 -0.0545 -1.6288  0.3686
   44CHL1    C3 5663   4.550   0.776  10.201  0.4166  0.0453  0.0271
   44CHL1    H3 5664   4.551   0.672  10.161 -0.5250 -0.3725  1.0179
   44CHL1    O3 5665   4.577   0.773  10.339 -0.3474  0.3434  0.3740
   44CHL1   H3' 5666   4.653   0.715  10.328 -1.1563 -0.7780  0.6623
   44CHL1    C4 5667   4.664   0.851  10.132  0.1501 -0.1646 -0.5292
   44CHL1   H4A 5668   4.683   0.953  10.172  0.6103 -0.7305  0.7564
   44CHL1   H4B 5669   4.753   0.788  10.157  0.1554  0.5538  1.4174
   44CHL1    C5 5670   4.645   0.858   9.980 -0.2774 -0.0650 -0.6421
   44CHL1    C6 5671   4.725   0.794   9.899 -0.1098 -0.3809 -0.1088
   44CHL1    H6 5672   4.812   0.740   9.940 -0.8517 -1.3354  0.2515
   44CHL1    C7 5673   4.721   0.796   9.749  0.4563  0.0066 -0.3222
   44CHL1   H7A 5674   4.827   0.818   9.724  0.4169 -0.0391 -0.5282
   44CHL1   H7B 5675   4.694   0.696   9.708  1.8468 -0.4736 -0.1538
   44CHL1    C8 5676   4.624   0.904   9.694 -0.5486  0.2887 -0.1289
   44CHL1    H8 5677   4.684   0.998   9.694 -0.0784 -0.0054  0.3840
   44CHL1   C14 5678   4.584   0.871   9.548 -0.1227  0.2963 -0.5762
   44CHL1   H14 5679   4.523   0.779   9.557 -1.2040  1.2198  3.3483
   44CHL1   C15 5680   4.692   0.834   9.449  0.2244  0.3839 -0.4693
   44CHL1  H15A 5681   4.771   0.913   9.455  0.9184 -0.3362  0.0439
   44CHL1  H15B 5682   4.732   0.733   9.470 -1.5704  0.2212  2.9117
   44CHL1   C16 5683   4.614   0.851   9.318  0.4790 -0.3663  0.3860
   44CHL1  H16A 5684   4.675   0.914   9.250 -0.8660 -0.5319 -1.0280
   44CHL1  H16B 5685   4.612   0.757   9.260  2.3133  0.3357 -0.9099
   44CHL1   C17 5686   4.475   0.912   9.344  0.3284  0.4765  0.2104
   44CHL1   H17 5687   4.406   0.827   9.367  2.4839 -1.5537 -0.4270
   44CHL1   C13 5688   4.490   0.981   9.484  0.3149 -0.1891  0.0163
   44CHL1   C18 5689   4.561   1.118   9.461  0.3740 -0.2594 -0.0086
   44CHL1  H18A 5690   4.484   1.196   9.444  1.2555  0.4772 -0.6864
   44CHL1  H18B 5691   4.605   1.162   9.553 -1.1177 -0.4922  0.8449
   44CHL1  H18C 5692   4.634   1.127   9.378  0.0268  3.3888 -0.0765
   44CHL1   C12 5693   4.370   1.004   9.570 -0.5886  0.2022 -0.6801
   44CHL1  H12A 5694   4.321   1.099   9.539 -0.7351  1.0254  1.8685
   44CHL1  H12B 5695   4.300   0.918   9.566  0.6549 -0.9109  0.5797
   44CHL1   C11 5696   4.394   1.018   9.720  0.4373 -0.0109 -0.3080
   44CHL1  H11A 5697   4.424   1.125   9.727 -1.7123  0.8426 -2.8851
   44CHL1  H11B 5698   4.295   1.011   9.769  0.3275  0.3781 -0.4707
   44CHL1    C9 5699   4.498   0.916   9.777 -0.6492 -0.0390  0.2613
   44CHL1    H9 5700   4.436   0.825   9.762 -2.0036  1.0234 -0.9768
   44CHL1   C10 5701   4.523   0.929   9.931  0.1719 -0.1764 -0.3090
   44CHL1   C19 5702   4.525   1.083   9.966  0.1978 -0.3030 -0.1517
   44CHL1  H19A 5703   4.590   1.145   9.901 -1.9767  1.8684 -0.3930
   44CHL1  H19B 5704   4.423   1.126   9.961  0.5304  0.4440 -0.7348
   44CHL1  H19C 5705   4.548   1.096  10.073 -1.1562  1.3851 -0.0149
   44CHL1    C1 5706   4.407   0.851  10.009 -0.8102  0.6312  0.1888
   44CHL1   H1A 5707   4.314   0.909   9.988 -1.4438 -0.3794  0.1122
   44CHL1   H1B 5708   4.387   0.754   9.958 -1.9897  0.9233  0.0663
   44CHL1    C2 5709   4.412   0.834  10.162 -1.0971 -0.5740 -0.5731
   44CHL1   H2A 5710   4.331   0.767  10.197 -0.8381 -0.1994  0.8027
   44CHL1   H2B 5711   4.400   0.934  10.209  1.8440 -0.0449 -0.7698
   44CHL1   C20 5712   4.417   0.987   9.224  0.2420  0.2357  0.4099
   44CHL1   H20 5713   4.489   1.069   9.205  1.0855 -0.2959  1.1752
   44CHL1   C21 5714   4.272   1.041   9.261  0.2936  0.3067 -0.4108
   44CHL1  H21A 5715   4.290   1.121   9.335  2.3118  0.6483 -1.2178
   44CHL1  H21B 5716   4.208   0.957   9.296  1.1291 -1.3932 -2.6726
   44CHL1  H21C 5717   4.232   1.089   9.169  3.1494  0.4742 -1.6624
   44CHL1   C22 5718   4.409   0.899   9.094  0.4292  0.2209 -0.5056
   44CHL1  H22A 5719   4.504   0.846   9.067 -1.7978 -2.7218 -3.4252
   44CHL1  H22B 5720   4.340   0.815   9.120 -0.3642  0.7415 -0.9053
   44CHL1   C23 5721   4.352   0.951   8.959 -0.8061 -0.5782 -0.4009
   44CHL1  H23A 5722   4.382   0.880   8.879  2.9407  0.5211 -0.1648
   44CHL1  H23B 5723   4.241   0.957   8.962 -0.7969 -0.3249 -0.5429
   44CHL1   C24 5724   4.424   1.087   8.906 -0.4981  0.3462 -0.3345
   44CHL1  H24A 5725   4.403   1.176   8.970  0.0102 -0.1485  0.5401
   44CHL1  H24B 5726   4.531   1.062   8.925  0.3087  2.0353 -2.2518
   44CHL1   C25 5727   4.397   1.115   8.753 -0.1499  0.1857 -0.1921
   44CHL1   H25 5728   4.416   1.019   8.699  2.4287  0.9007 -0.6916
   44CHL1   C26 5729   4.256   1.164   8.722 -0.2177 -0.0837  0.0041
   44CHL1  H26A 5730   4.257   1.179   8.612  0.8764  1.6300  0.2177
   44CHL1  H26B 5731   4.180   1.087   8.749 -0.4332  0.7441  1.8939
   44CHL1  H26C 5732   4.235   1.250   8.790 -2.7859 -0.3963 -0.2760
   44CHL1   C27 5733   4.502   1.208   8.696  0.2040 -0.7309 -0.3518
   44CHL1  H27A 5734   4.603   1.164   8.711  0.4862  0.3518  1.2334
   44CHL1  H27B 5735   4.485   1.212   8.586  0.5868  1.2236 -0.3858
   44CHL1  H27C 5736   4.492   1.310   8.739  0.9421 -0.8597  0.1482
   45CHL1    C3 5737   1.301   4.786  10.277  0.8295 -0.8404 -0.1225
   45CHL1    H3 5738   1.245   4.728  10.353  0.9062 -1.2243 -0.3576
   45CHL1    O3 5739   1.408   4.854  10.344 -0.1953  0.1048  0.1273
   45CHL1   H3' 5740   1.377   4.939  10.375 -1.6023  0.0395 -0.9651
   45CHL1    C4 5741   1.353   4.694  10.168 -0.1335 -0.2372 -0.1469
   45CHL1   H4A 5742   1.439   4.739  10.114  1.6373 -1.6905  1.3384
   45CHL1   H4B 5743   1.400   4.606  10.216 -0.2595 -0.0350  0.3552
   45CHL1    C5 5744   1.247   4.640  10.076 -0.5512  0.0221  0.3639
   45CHL1    C6 5745   1.239   4.508  10.054 -0.2134  0.7901 -0.4150
   45CHL1    H6 5746   1.303   4.447  10.118 -1.9297  1.1892  1.8046
   45CHL1    C7 5747   1.155   4.440   9.949 -0.3766 -0.6957 -0.3645
   45CHL1   H7A 5748   1.220   4.379   9.882  0.4509  0.4316 -0.6266
   45CHL1   H7B 5749   1.079   4.371   9.989 -1.0415 -0.6942 -1.5717
   45CHL1    C8 5750   1.076   4.536   9.857 -0.5641  0.6131  0.0098
   45CHL1    H8 5751   0.974   4.494   9.841  0.7359 -3.3245  0.9775
   45CHL1   C14 5752   1.132   4.547   9.719  0.1460 -0.1365  0.3194
   45CHL1   H14 5753   1.238   4.576   9.733  0.3980 -1.2877  0.9074
   45CHL1   C15 5754   1.114   4.413   9.639  0.0525 -0.2406 -0.4865
   45CHL1  H15A 5755   1.196   4.399   9.566  1.0484  0.7737  0.4100
   45CHL1  H15B 5756   1.091   4.321   9.698 -1.6843  1.5689  1.9027
   45CHL1   C16 5757   0.986   4.431   9.552  0.0350  0.1050 -0.5000
   45CHL1  H16A 5758   1.009   4.413   9.445  0.1240 -0.0061 -0.4629
   45CHL1  H16B 5759   0.908   4.360   9.585 -0.1853  1.5363  2.4435
   45CHL1   C17 5760   0.942   4.575   9.573  0.0566 -0.2024  0.2908
   45CHL1   H17 5761   0.870   4.584   9.657 -3.4851  1.7136 -2.6364
   45CHL1   C13 5762   1.056   4.652   9.626 -0.2025 -0.6638 -0.2203
   45CHL1   C18 5763   1.158   4.685   9.521 -0.4862 -0.3717  0.1566
   45CHL1  H18A 5764   1.132   4.778   9.467 -1.4039  0.3191  1.7371
   45CHL1  H18B 5765   1.262   4.704   9.554 -0.6522  1.0216 -0.0817
   45CHL1  H18C 5766   1.172   4.609   9.441 -1.4608 -0.4611  0.0557
   45CHL1   C12 5767   1.018   4.785   9.699 -0.2529  0.2807 -0.2771
   45CHL1  H12A 5768   1.111   4.847   9.704 -0.2635  0.2914  4.9029
   45CHL1  H12B 5769   0.934   4.839   9.651 -0.7550 -1.8210 -1.8631
   45CHL1   C11 5770   0.966   4.765   9.847 -0.1188  0.9122  0.1683
   45CHL1  H11A 5771   0.958   4.872   9.878  3.0058  1.2317  0.1619
   45CHL1  H11B 5772   0.865   4.718   9.841  0.3856 -0.4311  1.4475
   45CHL1    C9 5773   1.043   4.671   9.935 -0.8449 -0.2420 -0.2217
   45CHL1    H9 5774   0.978   4.633  10.017 -0.4610  1.0001  0.6881
   45CHL1   C10 5775   1.162   4.744  10.008  0.3254 -0.0818  0.0077
   45CHL1   C19 5776   1.254   4.826   9.917 -0.0332 -0.1780  0.0889
   45CHL1  H19A 5777   1.338   4.869   9.975 -0.4533 -0.1635  0.6917
   45CHL1  H19B 5778   1.293   4.767   9.831  1.5874  0.7926  0.1052
   45CHL1  H19C 5779   1.197   4.916   9.887 -1.1759 -1.0674 -0.4659
   45CHL1    C1 5780   1.103   4.830  10.124  0.5921 -0.5369 -0.8993
   45CHL1   H1A 5781   1.039   4.909  10.079  0.1484 -0.6894 -0.5329
   45CHL1   H1B 5782   1.028   4.777  10.186  1.1840 -0.2425  0.0849
   45CHL1    C2 5783   1.207   4.896  10.226  0.3318  0.2746  0.4967
   45CHL1   H2A 5784   1.168   4.956  10.311 -0.0127  0.5360  0.1542
   45CHL1   H2B 5785   1.277   4.955  10.164  1.6505 -1.4835  0.2308
   45CHL1   C20 5786   0.853   4.628   9.452 -0.2633  0.5455 -0.2687
   45CHL1   H20 5787   0.825   4.734   9.470 -0.6748  0.2303  1.1096
   45CHL1   C21 5788   0.720   4.556   9.487  0.3181  0.6422 -0.0744
   45CHL1  H21A 5789   0.730   4.448   9.513  1.9426  0.8924  0.4910
   45CHL1  H21B 5790   0.637   4.543   9.415  0.4314 -3.1687  0.2734
   45CHL1  H21C 5791   0.669   4.614   9.567 -1.0167  0.5744 -0.8590
   45CHL1   C22 5792   0.901   4.614   9.297 -0.4156  0.4318 -0.8600
   45CHL1  H22A 5793   1.004   4.655   9.296 -0.1030 -0.3362 -0.9447
   45CHL1  H22B 5794   0.905   4.505   9.275  0.1042  0.5290 -1.2675
   45CHL1   C23 5795   0.811   4.689   9.203 -0.6875  0.6484  0.0889
   45CHL1  H23A 5796   0.709   4.644   9.196 -0.6391  0.7300 -1.7468
   45CHL1  H23B 5797   0.786   4.791   9.241  0.6620  0.7723  0.6817
   45CHL1   C24 5798   0.874   4.712   9.059  0.2949  0.1083  0.4597
   45CHL1  H24A 5799   0.801   4.755   8.988 -1.1013 -2.1173  0.4303
   45CHL1  H24B 5800   0.952   4.787   9.083  0.2296 -0.5740  3.1891
   45CHL1   C25 5801   0.927   4.594   8.983  0.1722 -0.0965  0.3003
   45CHL1   H25 5802   1.004   4.553   9.051 -0.1101  1.3508  1.5484
   45CHL1   C26 5803   0.829   4.480   8.952 -0.7373 -0.3714  0.0407
   45CHL1  H26A 5804   0.887   4.403   8.897 -0.8547 -0.9951  0.7855
   45CHL1  H26B 5805   0.790   4.445   9.050 -2.0499 -0.2295 -0.4025
   45CHL1  H26C 5806   0.742   4.520   8.894 -0.6537 -0.8641 -0.4276
   45CHL1   C27 5807   1.005   4.642   8.865 -0.7167  0.0601 -0.1297
   45CHL1  H27A 5808   1.055   4.566   8.802  1.0809  1.7410 -0.8359
   45CHL1  H27B 5809   0.948   4.701   8.789 -1.6050 -0.9309 -0.2603
   45CHL1  H27C 5810   1.090   4.701   8.905  0.0368 -0.9495 -0.2094
   46CHL1    C3 5811   4.548   5.382  10.072 -0.6204  0.2048  0.6703
   46CHL1    H3 5812   4.573   5.280  10.036 -1.7567  0.0168  0.3425
   46CHL1    O3 5813   4.620   5.409  10.191  0.0811 -0.1622 -0.1804
   46CHL1   H3' 5814   4.600   5.498  10.223 -1.5456  0.1216 -1.8336
   46CHL1    C4 5815   4.583   5.488   9.969 -0.1239 -0.3950  0.5726
   46CHL1   H4A 5816   4.554   5.587  10.009 -0.1391  0.9840 -2.5360
   46CHL1   H4B 5817   4.693   5.478   9.958  0.1090  2.0230  0.2452
   46CHL1    C5 5818   4.512   5.475   9.838  0.1395 -0.0603  0.4852
   46CHL1    C6 5819   4.565   5.453   9.716 -0.4225 -0.1009  0.5427
   46CHL1    H6 5820   4.675   5.450   9.706 -0.6303 -0.8021 -2.4650
   46CHL1    C7 5821   4.488   5.452   9.590  0.0716 -0.0034  0.0415
   46CHL1   H7A 5822   4.522   5.533   9.522 -0.2161  1.2009  1.2769
   46CHL1   H7B 5823   4.504   5.359   9.533  0.4577  0.6551 -0.9473
   46CHL1    C8 5824   4.341   5.471   9.599  0.7026 -0.2921  0.6054
   46CHL1    H8 5825   4.331   5.581   9.607  2.3445 -0.1512  1.1428
   46CHL1   C14 5826   4.273   5.422   9.475  0.3430  0.3399  0.2556
   46CHL1   H14 5827   4.281   5.311   9.482 -1.5144 -0.0155 -1.9579
   46CHL1   C15 5828   4.328   5.458   9.333 -0.0057 -0.0227  0.0147
   46CHL1  H15A 5829   4.329   5.569   9.334 -1.6336  0.1776 -4.0323
   46CHL1  H15B 5830   4.419   5.404   9.300 -1.1682 -1.8306 -0.3547
   46CHL1   C16 5831   4.211   5.430   9.237  0.6861  0.0227  0.3752
   46CHL1  H16A 5832   4.192   5.528   9.188 -1.4274 -0.2953  0.4793
   46CHL1  H16B 5833   4.235   5.364   9.151 -1.7129  2.4857 -2.4177
   46CHL1   C17 5834   4.091   5.391   9.332  0.7388  0.2581 -0.6293
   46CHL1   H17 5835   4.085   5.282   9.352 -3.5366  0.4066 -0.2044
   46CHL1   C13 5836   4.130   5.451   9.473  0.6191  0.0195  0.1666
   46CHL1   C18 5837   4.102   5.602   9.467  0.3745  0.6112  0.2519
   46CHL1  H18A 5838   3.997   5.635   9.483 -0.1381 -1.3192  1.1631
   46CHL1  H18B 5839   4.146   5.659   9.552  1.0091  0.5000  0.0029
   46CHL1  H18C 5840   4.143   5.646   9.374  1.4453  0.8841  0.8380
   46CHL1   C12 5841   4.064   5.386   9.591  0.5594 -0.3898  0.0529
   46CHL1  H12A 5842   3.957   5.414   9.597  0.9153  0.7820  2.5537
   46CHL1  H12B 5843   4.081   5.277   9.588  2.4874 -0.1153 -0.4304
   46CHL1   C11 5844   4.130   5.433   9.725  1.0145  0.1074  0.3514
   46CHL1  H11A 5845   4.103   5.541   9.732 -1.9058 -0.4120 -1.2656
   46CHL1  H11B 5846   4.085   5.373   9.806  0.6980  0.6770  0.6021
   46CHL1    C9 5847   4.278   5.410   9.733 -0.7117  0.0736 -0.1697
   46CHL1    H9 5848   4.296   5.300   9.729 -0.4384  0.1372 -0.7853
   46CHL1   C10 5849   4.352   5.471   9.856  0.3001  0.3545 -0.4453
   46CHL1   C19 5850   4.309   5.619   9.890 -0.0801  0.1711  0.5008
   46CHL1  H19A 5851   4.201   5.640   9.905 -0.3157  1.0444 -1.9689
   46CHL1  H19B 5852   4.350   5.657   9.987 -1.9868  1.0040  1.0319
   46CHL1  H19C 5853   4.344   5.685   9.808  0.6881 -1.0183 -0.1456
   46CHL1    C1 5854   4.310   5.380   9.970 -0.2122  0.3491  0.4562
   46CHL1   H1A 5855   4.204   5.399   9.996  0.0924  4.2240 -0.5137
   46CHL1   H1B 5856   4.337   5.277   9.939 -0.1648  0.6130 -0.4169
   46CHL1    C2 5857   4.398   5.398  10.097  0.0416 -0.0567 -0.0900
   46CHL1   H2A 5858   4.363   5.324  10.173 -0.9166  0.4762  0.0091
   46CHL1   H2B 5859   4.379   5.499  10.138 -4.1983 -0.4408 -0.6155
   46CHL1   C20 5860   3.949   5.413   9.278 -0.1830  0.0450  0.4318
   46CHL1   H20 5861   3.950   5.524   9.274 -0.7794  0.2952  3.7930
   46CHL1   C21 5862   3.829   5.376   9.367  0.1936  0.4794 -0.0299
   46CHL1  H21A 5863   3.832   5.265   9.379  0.7647  0.4080 -0.7495
   46CHL1  H21B 5864   3.740   5.393   9.303 -1.6225 -1.5670  1.8001
   46CHL1  H21C 5865   3.820   5.429   9.464  0.5507  0.9081 -0.2246
   46CHL1   C22 5866   3.927   5.359   9.134 -0.4171 -0.3824 -0.2501
   46CHL1  H22A 5867   3.832   5.388   9.084  0.4811  0.1428 -1.7141
   46CHL1  H22B 5868   4.009   5.398   9.070 -1.6896 -0.8729 -2.2665
   46CHL1   C23 5869   3.939   5.201   9.131  0.5076 -0.4271  0.4502
   46CHL1  H23A 5870   4.044   5.173   9.150  0.9376 -0.6889 -1.9616
   46CHL1  H23B 5871   3.866   5.136   9.184 -2.3239  0.9438 -1.5272
   46CHL1   C24 5872   3.917   5.140   8.982 -0.1575 -1.0238 -0.7108
   46CHL1  H24A 5873   3.822   5.179   8.938  0.0877  0.8780  0.3374
   46CHL1  H24B 5874   4.001   5.182   8.923  0.9395 -0.9143  0.8792
   46CHL1   C25 5875   3.911   4.985   8.974 -0.5144 -0.8867  0.8179
   46CHL1   H25 5876   3.820   4.946   9.025 -1.6192  0.0423 -0.3696
   46CHL1   C26 5877   3.903   4.930   8.831  0.3764 -1.0390 -0.1163
   46CHL1  H26A 5878   3.997   4.938   8.772 -0.2394 -0.3166 -1.0263
   46CHL1  H26B 5879   3.872   4.824   8.835 -0.1114 -0.9050 -0.3193
   46CHL1  H26C 5880   3.829   4.992   8.776  0.6753 -1.7623 -1.3786
   46CHL1   C27 5881   4.030   4.908   9.038 -0.1476  0.7522 -0.3833
   46CHL1  H27A 5882   4.048   4.922   9.147  0.7382 -0.2782 -0.3734
   46CHL1  H27B 5883   4.019   4.799   9.018 -0.2782  0.8197 -0.6711
   46CHL1  H27C 5884   4.112   4.947   8.975 -1.9503  1.5185 -2.3606
   47CHL1    C3 5885   4.966   1.076  10.243 -0.7063  0.3311 -0.2551
   47CHL1    H3 5886   4.918   0.977  10.229 -1.3226  0.6074 -0.1390
   47CHL1    O3 5887   4.962   1.100  10.384 -0.0059 -0.3443 -0.3843
   47CHL1   H3' 5888   5.009   1.183  10.397  0.8358 -0.7947 -0.4737
   47CHL1    C4 5889   5.113   1.067  10.188 -0.0136 -0.0353 -0.5163
   47CHL1   H4A 5890   5.168   1.159  10.218 -2.1755  1.3592 -0.6093
   47CHL1   H4B 5891   5.171   0.986  10.237  1.4039  0.4469 -1.3387
   47CHL1    C5 5892   5.117   1.042  10.039  0.1714 -0.5466  0.2121
   47CHL1    C6 5893   5.190   0.941   9.978  0.2992 -0.5521 -0.9265
   47CHL1    H6 5894   5.240   0.868  10.044  0.1802  1.5073  1.6236
   47CHL1    C7 5895   5.215   0.930   9.831  0.1128  0.0423 -0.2220
   47CHL1   H7A 5896   5.324   0.922   9.815  0.4077 -0.9166  1.8953
   47CHL1   H7B 5897   5.166   0.837   9.795 -0.1065 -1.1952  2.9634
   47CHL1    C8 5898   5.160   1.055   9.754 -0.5662  0.0018 -0.3889
   47CHL1    H8 5899   5.233   1.139   9.766 -0.8938  0.1948  0.3156
   47CHL1   C14 5900   5.152   1.035   9.610  0.2460  0.1012 -0.1367
   47CHL1   H14 5901   5.085   0.947   9.598 -1.9939  1.7926 -0.7548
   47CHL1   C15 5902   5.282   0.983   9.534 -0.4966 -0.5898  0.7354
   47CHL1  H15A 5903   5.367   1.044   9.572  0.9439 -0.2288 -2.7281
   47CHL1  H15B 5904   5.308   0.876   9.547  1.5747 -0.3659 -1.1332
   47CHL1   C16 5905   5.262   1.021   9.391  0.3250 -0.7492  0.3532
   47CHL1  H16A 5906   5.341   1.091   9.357  0.7453 -0.5928  1.5863
   47CHL1  H16B 5907   5.266   0.933   9.325 -1.0487 -0.1235 -0.6136
   47CHL1   C17 5908   5.118   1.089   9.383 -0.7561  0.1455  0.2687
   47CHL1   H17 5909   5.038   1.015   9.360 -0.8419  0.4524 -0.4394
   47CHL1   C13 5910   5.091   1.148   9.522 -0.0826  0.0425 -0.0428
   47CHL1   C18 5911   5.177   1.275   9.541  0.1509 -0.3655  0.9363
   47CHL1  H18A 5912   5.125   1.366   9.507  1.1327 -0.4389 -0.8877
   47CHL1  H18B 5913   5.188   1.289   9.651 -2.2663 -0.7999  1.2836
   47CHL1  H18C 5914   5.275   1.264   9.489  0.0086  0.5395  0.4655
   47CHL1   C12 5915   4.948   1.168   9.573 -0.0418 -1.3114  0.2295
   47CHL1  H12A 5916   4.907   1.261   9.529 -1.0345 -1.6769  0.3533
   47CHL1  H12B 5917   4.875   1.088   9.550 -1.3161 -0.3809  0.9361
   47CHL1   C11 5918   4.954   1.202   9.726 -0.9958  0.2596 -0.0072
   47CHL1  H11A 5919   4.990   1.307   9.731 -2.1699  0.7745 -1.7178
   47CHL1  H11B 5920   4.847   1.220   9.751 -1.2532  0.4998 -1.2335
   47CHL1    C9 5921   5.024   1.097   9.816 -0.3565 -0.7738 -0.1227
   47CHL1    H9 5922   4.963   1.005   9.816  1.5186 -2.1010  1.3256
   47CHL1   C10 5923   5.029   1.143   9.962  0.6777  0.3215 -0.5373
   47CHL1   C19 5924   5.106   1.279   9.971 -0.0517  0.5377  0.3447
   47CHL1  H19A 5925   5.117   1.318  10.075  3.0614 -0.3766  0.4571
   47CHL1  H19B 5926   5.203   1.273   9.917 -0.5312 -1.2759 -0.3679
   47CHL1  H19C 5927   5.055   1.362   9.918 -0.5688  0.7615  1.1601
   47CHL1    C1 5928   4.882   1.163  10.023 -0.9797 -0.7642 -0.2775
   47CHL1   H1A 5929   4.820   1.246   9.981  2.4633  0.7998 -2.7859
   47CHL1   H1B 5930   4.825   1.069  10.013  0.7253 -1.6358 -2.6936
   47CHL1    C2 5931   4.891   1.184  10.175  0.0677 -0.1678 -0.5474
   47CHL1   H2A 5932   4.787   1.190  10.213  0.8050  1.1072  1.4411
   47CHL1   H2B 5933   4.938   1.282  10.198 -0.6599  0.1240 -0.2671
   47CHL1   C20 5934   5.104   1.184   9.261 -0.3293 -0.0716 -1.5405
   47CHL1   H20 5935   5.152   1.280   9.291 -3.9932  1.3568  0.3474
   47CHL1   C21 5936   4.953   1.212   9.251 -0.3086 -0.7812 -0.0010
   47CHL1  H21A 5937   4.923   1.287   9.327  0.4311 -0.3711 -0.1158
   47CHL1  H21B 5938   4.882   1.127   9.266  0.1871 -1.1650  0.1983
   47CHL1  H21C 5939   4.921   1.260   9.157  0.6783  0.6469  0.3667
   47CHL1   C22 5940   5.156   1.130   9.125 -0.2043 -0.3128 -0.1931
   47CHL1  H22A 5941   5.261   1.093   9.135 -0.0278  0.4484  0.8076
   47CHL1  H22B 5942   5.093   1.042   9.100  1.0329 -0.8344 -1.6778
   47CHL1   C23 5943   5.156   1.229   9.002 -0.3831  0.5112  0.1120
   47CHL1  H23A 5944   5.058   1.274   8.977  0.6533  1.6076 -2.3171
   47CHL1  H23B 5945   5.225   1.312   9.030  0.3911  0.4779 -1.5687
   47CHL1   C24 5946   5.197   1.159   8.873 -0.2132 -0.6545  0.0864
   47CHL1  H24A 5947   5.306   1.141   8.881  0.5821  2.4915 -1.7883
   47CHL1  H24B 5948   5.144   1.061   8.863 -3.2876  0.6704  1.9277
   47CHL1   C25 5949   5.184   1.248   8.747  0.4318  0.0430  0.5058
   47CHL1   H25 5950   5.077   1.268   8.725  1.1689  1.4849 -2.1493
   47CHL1   C26 5951   5.264   1.380   8.760  0.6761  0.3231  0.5720
   47CHL1  H26A 5952   5.373   1.359   8.766  0.6012 -0.1544  0.3321
   47CHL1  H26B 5953   5.235   1.426   8.857 -1.6948  2.3961 -0.9756
   47CHL1  H26C 5954   5.247   1.450   8.675  4.7565 -2.4914 -3.0270
   47CHL1   C27 5955   5.242   1.161   8.633 -0.5398  0.3113 -0.3186
   47CHL1  H27A 5956   5.350   1.140   8.638 -0.8240 -1.0635  0.5159
   47CHL1  H27B 5957   5.187   1.064   8.631  0.8889 -0.5526  0.8931
   47CHL1  H27C 5958   5.224   1.210   8.534 -0.2993 -0.8178 -0.9404
   48CHL1    C3 5959   5.553   1.075  10.121 -0.3042  0.5650  0.4114
   48CHL1    H3 5960   5.492   1.002  10.062  1.5801  0.4286 -1.4889
   48CHL1    O3 5961   5.519   1.067  10.255  0.0173  0.4714 -0.0801
   48CHL1   H3' 5962   5.563   0.988  10.288  0.1017 -0.1203 -1.5324
   48CHL1    C4 5963   5.702   1.053  10.084  0.6407  0.4720  0.0421
   48CHL1   H4A 5964   5.757   1.133  10.139  2.4627 -1.7713  1.6770
   48CHL1   H4B 5965   5.719   0.951  10.126  1.8661  1.1392  1.2624
   48CHL1    C5 5966   5.721   1.051   9.934 -0.2029  0.0784 -0.4410
   48CHL1    C6 5967   5.762   0.934   9.868 -0.0896 -0.4386 -0.3929
   48CHL1    H6 5968   5.794   0.846   9.927  2.3328  0.4985 -0.2095
   48CHL1    C7 5969   5.771   0.926   9.719 -0.4004  0.2642  0.0788
   48CHL1   H7A 5970   5.864   0.872   9.691 -1.0811 -0.5426 -0.6949
   48CHL1   H7B 5971   5.687   0.862   9.685  1.0063 -1.1147 -0.9531
   48CHL1    C8 5972   5.767   1.061   9.648 -0.3206  0.0743 -0.1540
   48CHL1    H8 5973   5.866   1.108   9.665  0.4824 -1.6185  0.0799
   48CHL1   C14 5974   5.742   1.038   9.500  0.2639 -0.1225 -0.9803
   48CHL1   H14 5975   5.645   0.987   9.483 -0.2520  0.5747 -0.2075
   48CHL1   C15 5976   5.844   0.939   9.427 -1.3444 -0.1666 -0.6199
   48CHL1  H15A 5977   5.943   0.961   9.470 -1.5157 -1.5014  0.5370
   48CHL1  H15B 5978   5.819   0.832   9.445 -1.0347 -0.0015  0.9713
   48CHL1   C16 5979   5.841   0.979   9.283 -0.0439  0.2186  0.3534
   48CHL1  H16A 5980   5.939   1.025   9.257  0.4762  0.4642  2.5938
   48CHL1  H16B 5981   5.823   0.900   9.207 -0.4827 -0.2500  0.9319
   48CHL1   C17 5982   5.729   1.089   9.274  0.2165  0.1328  0.3112
   48CHL1   H17 5983   5.629   1.043   9.262  1.2203 -1.7243 -1.8316
   48CHL1   C13 5984   5.743   1.166   9.414  0.4261 -0.0538 -0.3475
   48CHL1   C18 5985   5.877   1.247   9.431 -0.4917  0.0440 -0.0859
   48CHL1  H18A 5986   5.961   1.187   9.391  1.7769  2.2702  1.0716
   48CHL1  H18B 5987   5.858   1.342   9.377 -1.5388 -0.5378 -0.7906
   48CHL1  H18C 5988   5.898   1.258   9.539 -0.5210 -3.5051  0.4141
   48CHL1   C12 5989   5.624   1.255   9.463 -0.6527  0.1929 -0.5857
   48CHL1  H12A 5990   5.623   1.352   9.409 -0.7750  0.2688 -0.4465
   48CHL1  H12B 5991   5.524   1.211   9.442  0.2741 -1.9938 -0.6484
   48CHL1   C11 5992   5.628   1.283   9.618 -0.4029  0.1386 -0.2095
   48CHL1  H11A 5993   5.712   1.353   9.635  1.4364 -1.5794 -1.7955
   48CHL1  H11B 5994   5.530   1.329   9.643 -0.9791 -1.2992  0.3058
   48CHL1    C9 5995   5.658   1.155   9.707  0.2053 -0.3925 -0.7771
   48CHL1    H9 5996   5.567   1.090   9.707  0.5248 -0.8605 -2.0349
   48CHL1   C10 5997   5.669   1.178   9.861 -0.4040 -0.8597  0.0242
   48CHL1   C19 5998   5.777   1.286   9.883 -0.8789  0.1302 -0.2428
   48CHL1  H19A 5999   5.872   1.248   9.839 -0.2370  2.0436 -0.6088
   48CHL1  H19B 6000   5.762   1.380   9.826 -1.0993  0.0950 -0.2413
   48CHL1  H19C 6001   5.803   1.314   9.987 -0.3859 -0.5410 -0.1766
   48CHL1    C1 6002   5.535   1.225   9.915  0.2276 -0.2351 -0.3808
   48CHL1   H1A 6003   5.520   1.329   9.878  2.1935 -0.4010 -1.8299
   48CHL1   H1B 6004   5.443   1.172   9.882  0.5740 -0.0307 -1.7611
   48CHL1    C2 6005   5.515   1.218  10.066  0.0140 -0.1341 -0.3231
   48CHL1   H2A 6006   5.413   1.235  10.106  0.3536  2.4270 -0.3361
   48CHL1   H2B 6007   5.585   1.285  10.120  1.1156 -0.7227 -0.9853
   48CHL1   C20 6008   5.754   1.171   9.149  0.1988 -0.0282 -0.2404
   48CHL1   H20 6009   5.850   1.227   9.150  0.2070  0.0711 -2.1093
   48CHL1   C21 6010   5.637   1.277   9.129 -0.1449  0.2017  0.6145
   48CHL1  H21A 6011   5.533   1.238   9.136 -0.4029  1.0077  1.6085
   48CHL1  H21B 6012   5.654   1.331   9.033 -0.6968  1.3529  1.1475
   48CHL1  H21C 6013   5.645   1.355   9.207 -0.9549  0.8936  0.0209
   48CHL1   C22 6014   5.766   1.091   9.020  0.0707 -0.6072 -0.4421
   48CHL1  H22A 6015   5.837   1.008   9.037 -0.4558 -0.9985 -0.1399
   48CHL1  H22B 6016   5.665   1.053   8.994 -0.3916  0.9904 -1.0998
   48CHL1   C23 6017   5.824   1.167   8.902  0.2270  0.5858  0.1081
   48CHL1  H23A 6018   5.808   1.097   8.817  4.1499 -0.4990  0.0742
   48CHL1  H23B 6019   5.771   1.262   8.883 -1.6137 -0.2118  1.0082
   48CHL1   C24 6020   5.979   1.190   8.914  1.1180  0.0355  0.8028
   48CHL1  H24A 6021   5.995   1.279   8.978  0.8743 -1.0262  2.3733
   48CHL1  H24B 6022   6.033   1.111   8.970 -0.0077 -0.9859  0.4752
   48CHL1   C25 6023   6.050   1.186   8.775  0.2673 -0.5133 -0.4406
   48CHL1   H25 6024   6.008   1.100   8.717 -0.4047 -1.2177  1.0308
   48CHL1   C26 6025   6.012   1.313   8.684  0.0829 -0.2497  0.1223
   48CHL1  H26A 6026   6.046   1.283   8.582 -0.0480 -1.8651  0.5300
   48CHL1  H26B 6027   5.901   1.321   8.683 -0.1991 -2.9707  1.0703
   48CHL1  H26C 6028   6.063   1.408   8.710  1.3701 -0.4486 -1.4762
   48CHL1   C27 6029   6.200   1.188   8.776 -0.0501 -0.3379 -0.6483
   48CHL1  H27A 6030   6.237   1.285   8.815  0.4895  0.3715 -2.7817
   48CHL1  H27B 6031   6.242   1.101   8.829 -0.7612 -0.5968 -0.5000
   48CHL1  H27C 6032   6.234   1.189   8.670 -1.1433 -0.7338 -1.0165
   49CHL1    C3 6033   4.656   4.425  10.325 -0.0385  0.6720  0.7901
   49CHL1    H3 6034   4.547   4.432  10.308  0.0990  0.9736  0.0115
   49CHL1    O3 6035   4.682   4.428  10.465 -0.0065 -0.3461  0.1623
   49CHL1   H3' 6036   4.669   4.520  10.490 -0.3748 -0.0923 -0.9161
   49CHL1    C4 6037   4.721   4.301  10.251  0.0477  0.0766 -0.3770
   49CHL1   H4A 6038   4.826   4.301  10.286  0.5264  1.9497 -1.6578
   49CHL1   H4B 6039   4.660   4.213  10.280  1.1928 -1.4040 -2.2362
   49CHL1    C5 6040   4.715   4.301  10.099  0.0799 -0.0626 -0.2403
   49CHL1    C6 6041   4.653   4.204  10.024 -0.0203 -0.7600 -0.1530
   49CHL1    H6 6042   4.594   4.123  10.069 -1.5138  0.8063  0.8278
   49CHL1    C7 6043   4.638   4.216   9.877  0.2962  0.5223 -0.7678
   49CHL1   H7A 6044   4.649   4.113   9.837  1.8197  0.5894 -0.5835
   49CHL1   H7B 6045   4.533   4.249   9.860 -0.3827 -1.1711 -0.0828
   49CHL1    C8 6046   4.730   4.318   9.801  0.2936  0.4748 -0.1062
   49CHL1    H8 6047   4.830   4.272   9.789  0.0970  0.2122 -0.7385
   49CHL1   C14 6048   4.666   4.349   9.668  0.1375  0.4358 -0.1098
   49CHL1   H14 6049   4.566   4.389   9.692 -1.0172 -1.0630 -2.1411
   49CHL1   C15 6050   4.619   4.241   9.580 -0.3177  0.6819 -0.5107
   49CHL1  H15A 6051   4.700   4.165   9.573 -0.9768 -0.1037  0.2128
   49CHL1  H15B 6052   4.532   4.173   9.593  0.8331 -0.5256  1.3388
   49CHL1   C16 6053   4.615   4.300   9.434  0.1856  0.5196  0.7147
   49CHL1  H16A 6054   4.683   4.246   9.365 -1.8980  0.6883 -1.5810
   49CHL1  H16B 6055   4.518   4.279   9.385  0.9552  0.2512 -0.7240
   49CHL1   C17 6056   4.644   4.453   9.462  0.6195  0.1075 -0.0676
   49CHL1   H17 6057   4.548   4.493   9.501 -0.8769 -3.6470  0.4730
   49CHL1   C13 6058   4.737   4.451   9.584  0.4653 -0.1275  0.6989
   49CHL1   C18 6059   4.877   4.405   9.539 -0.4433 -0.0123  0.6716
   49CHL1  H18A 6060   4.875   4.320   9.468  1.4188  1.8480 -1.7918
   49CHL1  H18B 6061   4.941   4.485   9.495 -1.3411 -0.2335 -1.1350
   49CHL1  H18C 6062   4.932   4.375   9.631  0.6056  0.4353  0.2085
   49CHL1   C12 6063   4.746   4.584   9.663 -0.2319  0.7932 -0.0302
   49CHL1  H12A 6064   4.804   4.655   9.599  1.2096  0.2186  0.5987
   49CHL1  H12B 6065   4.647   4.633   9.678 -1.0100 -0.4099 -0.9949
   49CHL1   C11 6066   4.810   4.560   9.802 -0.2649 -0.3314 -0.4428
   49CHL1  H11A 6067   4.915   4.537   9.775 -0.2325  0.6956 -1.2685
   49CHL1  H11B 6068   4.813   4.658   9.855 -1.3052 -0.8507  0.6260
   49CHL1    C9 6069   4.734   4.445   9.879  0.0965  0.3769  0.2496
   49CHL1    H9 6070   4.631   4.487   9.885  0.1316  0.2469  2.2148
   49CHL1   C10 6071   4.774   4.425  10.030  0.2430 -1.1962  0.5017
   49CHL1   C19 6072   4.924   4.427  10.047 -0.0456  0.5084 -0.4063
   49CHL1  H19A 6073   4.968   4.351   9.978 -0.1425 -0.6125  0.7298
   49CHL1  H19B 6074   4.968   4.527  10.026 -0.2633  1.3381  2.6178
   49CHL1  H19C 6075   4.950   4.415  10.154 -0.1322 -0.0941 -0.4493
   49CHL1    C1 6076   4.724   4.555  10.108 -0.2970  0.2334  0.8848
   49CHL1   H1A 6077   4.771   4.648  10.069  2.7588 -1.6510 -0.3350
   49CHL1   H1B 6078   4.617   4.572  10.088  0.2968  2.1010 -1.0274
   49CHL1    C2 6079   4.727   4.548  10.266  0.5400  0.3779 -0.4872
   49CHL1   H2A 6080   4.698   4.650  10.299 -0.5942  0.1885 -0.8453
   49CHL1   H2B 6081   4.836   4.541  10.283  0.5114 -2.7063 -1.1129
   49CHL1   C20 6082   4.693   4.527   9.343  0.7488 -0.1780  0.4123
   49CHL1   H20 6083   4.780   4.587   9.376 -0.2479  2.7590 -1.8349
   49CHL1   C21 6084   4.585   4.641   9.311  0.8453 -0.6290 -0.7604
   49CHL1  H21A 6085   4.494   4.597   9.264 -1.7431  0.4959  2.7412
   49CHL1  H21B 6086   4.627   4.718   9.243  0.5121  0.0086 -0.2489
   49CHL1  H21C 6087   4.543   4.684   9.404 -0.9082 -2.5088 -0.6094
   49CHL1   C22 6088   4.717   4.446   9.215  0.2221 -0.5800  0.5774
   49CHL1  H22A 6089   4.802   4.378   9.238  2.4498  2.0762  0.6187
   49CHL1  H22B 6090   4.625   4.393   9.181  1.2476 -1.7289 -0.5371
   49CHL1   C23 6091   4.757   4.535   9.092  0.2678 -0.9136  0.4838
   49CHL1  H23A 6092   4.678   4.609   9.068  0.8535 -0.7852 -1.1162
   49CHL1  H23B 6093   4.842   4.596   9.130  0.7770 -0.1534 -1.7218
   49CHL1   C24 6094   4.789   4.464   8.959 -0.2866  0.6811 -0.8096
   49CHL1  H24A 6095   4.876   4.399   8.981 -0.9970  0.8360  3.5054
   49CHL1  H24B 6096   4.705   4.401   8.924  0.7696 -0.9428 -0.5248
   49CHL1   C25 6097   4.820   4.563   8.844  1.3295  0.3970  0.3300
   49CHL1   H25 6098   4.733   4.629   8.824  0.0386 -1.8415 -2.0190
   49CHL1   C26 6099   4.942   4.654   8.872 -0.4402 -0.0954 -0.4035
   49CHL1  H26A 6100   5.006   4.650   8.963  0.6047 -0.4479 -1.1396
   49CHL1  H26B 6101   5.016   4.632   8.792 -0.4068  1.4484 -0.8321
   49CHL1  H26C 6102   4.918   4.762   8.860 -1.0804  0.0180  1.4817
   49CHL1   C27 6103   4.843   4.488   8.715  0.2795 -0.6007 -0.0428
   49CHL1  H27A 6104   4.931   4.420   8.723 -0.2855 -1.3178  0.1500
   49CHL1  H27B 6105   4.759   4.418   8.696  0.1004 -0.5047  0.3834
   49CHL1  H27C 6106   4.856   4.552   8.625  1.9255 -0.5801  0.1645
   50CHL1    C3 6107   0.434   5.557  10.233  0.2483  0.9392  0.0805
   50CHL1    H3 6108   0.389   5.658  10.229  2.1296  1.7621 -1.6113
   50CHL1    O3 6109   0.445   5.515  10.367 -0.1058 -0.9303 -0.7749
   50CHL1   H3' 6110   0.494   5.435  10.349 -0.5416 -1.0650 -1.4238
   50CHL1    C4 6111   0.336   5.459  10.170  0.4977 -0.2544  0.6340
   50CHL1   H4A 6112   0.366   5.352  10.181  0.6439 -0.1861  0.8974
   50CHL1   H4B 6113   0.242   5.467  10.228 -0.1864 -0.6985 -0.3698
   50CHL1    C5 6114   0.307   5.498  10.028 -0.1085 -0.8253  0.1817
   50CHL1    C6 6115   0.185   5.520   9.981 -0.5583 -0.1424  0.0997
   50CHL1    H6 6116   0.103   5.513  10.055 -1.1169  2.8017 -0.1295
   50CHL1    C7 6117   0.146   5.529   9.839  0.1417 -0.2739  0.1659
   50CHL1   H7A 6118   0.064   5.455   9.827  2.1771 -3.1791  2.5794
   50CHL1   H7B 6119   0.097   5.629   9.831  0.3733 -0.2698 -1.3910
   50CHL1    C8 6120   0.259   5.501   9.743 -0.2758  0.5518  0.4643
   50CHL1    H8 6121   0.276   5.391   9.736  0.3464  0.7788 -2.9289
   50CHL1   C14 6122   0.229   5.563   9.607 -0.1863 -0.3790  0.0203
   50CHL1   H14 6123   0.242   5.672   9.622  2.6879 -0.6834  0.3044
   50CHL1   C15 6124   0.094   5.550   9.548  0.1072 -0.0099  0.4594
   50CHL1  H15A 6125   0.066   5.443   9.557  0.9045 -0.3963 -1.1957
   50CHL1  H15B 6126   0.021   5.612   9.603  0.0801 -0.6997  1.2285
   50CHL1   C16 6127   0.121   5.581   9.396  0.7129 -0.3962 -0.8295
   50CHL1  H16A 6128   0.086   5.506   9.322  1.4411 -1.4317 -0.1504
   50CHL1  H16B 6129   0.070   5.678   9.380 -0.9234 -1.1732 -0.5841
   50CHL1   C17 6130   0.279   5.593   9.374 -0.6860 -0.1863 -1.2962
   50CHL1   H17 6131   0.305   5.700   9.390 -1.7963 -0.0194 -0.4613
   50CHL1   C13 6132   0.334   5.521   9.498 -0.2265 -0.4577  0.0829
   50CHL1   C18 6133   0.333   5.365   9.476 -0.5707 -0.3486 -0.0414
   50CHL1  H18A 6134   0.377   5.308   9.561  0.0985 -0.0180 -0.1605
   50CHL1  H18B 6135   0.230   5.327   9.461 -0.4300 -0.6925 -0.1422
   50CHL1  H18C 6136   0.401   5.332   9.395 -0.4902 -2.1403  0.7181
   50CHL1   C12 6137   0.471   5.575   9.552 -0.7257  0.6888  0.2072
   50CHL1  H12A 6138   0.550   5.543   9.481  1.2822  2.3698  1.5242
   50CHL1  H12B 6139   0.470   5.686   9.540 -0.3812  0.4240 -3.5292
   50CHL1   C11 6140   0.503   5.526   9.693  0.0524  0.3731  0.2309
   50CHL1  H11A 6141   0.525   5.418   9.679  1.4179  0.3724  2.0184
   50CHL1  H11B 6142   0.602   5.566   9.724 -0.1820  0.3921  0.9721
   50CHL1    C9 6143   0.398   5.556   9.798  1.1461  0.5746 -0.2067
   50CHL1    H9 6144   0.393   5.667   9.804 -0.4145  0.5439 -0.3484
   50CHL1   C10 6145   0.435   5.502   9.937  0.3671 -0.3142 -0.0128
   50CHL1   C19 6146   0.487   5.355   9.921  0.0530  0.4684  0.1806
   50CHL1  H19A 6147   0.579   5.359   9.860  0.1567 -0.3517  0.2803
   50CHL1  H19B 6148   0.507   5.308  10.019 -1.7732 -0.8384 -0.0368
   50CHL1  H19C 6149   0.416   5.291   9.866  0.0832  1.1540 -0.6873
   50CHL1    C1 6150   0.538   5.593  10.003  0.2197  0.2348  0.1989
   50CHL1   H1A 6151   0.630   5.607   9.943  1.2222 -0.2012  1.5633
   50CHL1   H1B 6152   0.487   5.692   9.999  0.5443  0.3888 -0.2853
   50CHL1    C2 6153   0.559   5.560  10.152 -0.5255  0.1907 -0.7292
   50CHL1   H2A 6154   0.637   5.620  10.204 -0.3307  0.1125 -0.9308
   50CHL1   H2B 6155   0.601   5.458  10.164 -1.9577 -0.4149 -0.5808
   50CHL1   C20 6156   0.329   5.559   9.229 -0.3074  0.0134  0.2468
   50CHL1   H20 6157   0.295   5.454   9.220 -3.0679  0.8825 -0.7484
   50CHL1   C21 6158   0.487   5.558   9.213  0.2249 -0.0417 -0.8402
   50CHL1  H21A 6159   0.535   5.648   9.256 -2.2658  0.4334  1.1818
   50CHL1  H21B 6160   0.513   5.563   9.105  0.0651  0.7144 -0.8447
   50CHL1  H21C 6161   0.526   5.470   9.269  1.1198  0.1420 -1.1525
   50CHL1   C22 6162   0.264   5.648   9.113 -0.9518  0.0230  0.5200
   50CHL1  H22A 6163   0.274   5.611   9.008  1.8712  2.1024 -0.0562
   50CHL1  H22B 6164   0.154   5.651   9.125 -1.0743 -0.0034 -0.4604
   50CHL1   C23 6165   0.312   5.795   9.114  0.8671 -0.1911 -0.2461
   50CHL1  H23A 6166   0.276   5.845   9.206 -1.3253 -0.0512 -1.0971
   50CHL1  H23B 6167   0.422   5.803   9.104  1.2191  0.1695  3.0500
   50CHL1   C24 6168   0.241   5.860   8.988 -0.7892 -0.6098  0.4065
   50CHL1  H24A 6169   0.255   5.795   8.899  1.5058  0.9223 -0.4471
   50CHL1  H24B 6170   0.133   5.864   9.015 -0.6047 -1.6072  1.3650
   50CHL1   C25 6171   0.299   6.006   8.959  0.7967  1.2206  0.5028
   50CHL1   H25 6172   0.410   5.995   8.952  0.9211  1.8156  1.4155
   50CHL1   C26 6173   0.259   6.059   8.820 -0.9341 -0.4514  0.7555
   50CHL1  H26A 6174   0.298   6.162   8.806 -0.2530 -0.7344  0.5467
   50CHL1  H26B 6175   0.293   5.995   8.736 -0.2389  0.0036  0.6832
   50CHL1  H26C 6176   0.149   6.069   8.819 -0.8282  0.8064 -0.4035
   50CHL1   C27 6177   0.268   6.106   9.063  0.6813  0.3667  0.5411
   50CHL1  H27A 6178   0.288   6.212   9.035  1.5589  0.0598 -0.0234
   50CHL1  H27B 6179   0.163   6.095   9.096  1.3958 -0.3357  2.7889
   50CHL1  H27C 6180   0.322   6.073   9.155 -0.5190 -0.9263  0.8117
   51CHL1    C3 6181   2.134   6.221  10.369 -0.3115  0.4001  0.8289
   51CHL1    H3 6182   2.130   6.329  10.347  1.7032  0.4100  0.3053
   51CHL1    O3 6183   2.111   6.222  10.510 -0.3046 -0.0853  0.3387
   51CHL1   H3' 6184   2.120   6.132  10.543 -2.3611 -0.3665  0.2490
   51CHL1    C4 6185   2.020   6.138  10.298  0.2358  0.5932 -0.2779
   51CHL1   H4A 6186   2.039   6.038  10.343 -0.7237  0.8241  0.6765
   51CHL1   H4B 6187   1.917   6.155  10.338 -0.8320 -1.2240 -2.0551
   51CHL1    C5 6188   2.035   6.129  10.149  0.3123 -0.5057 -0.1739
   51CHL1    C6 6189   1.946   6.178  10.064 -0.5956  0.1246 -0.0856
   51CHL1    H6 6190   1.851   6.218  10.101 -0.1138  1.8379 -0.6014
   51CHL1    C7 6191   1.957   6.183   9.917 -0.7463  0.3795 -0.1999
   51CHL1   H7A 6192   1.868   6.147   9.861 -1.4998  0.8144  0.6909
   51CHL1   H7B 6193   1.949   6.289   9.883 -2.0314 -0.0228 -1.2348
   51CHL1    C8 6194   2.077   6.104   9.859 -0.7125  0.0256 -0.1467
   51CHL1    H8 6195   2.051   5.997   9.843  1.9615 -0.4796 -1.7177
   51CHL1   C14 6196   2.119   6.156   9.728 -0.0481 -0.0803  0.3381
   51CHL1   H14 6197   2.162   6.256   9.748 -0.1066  0.0261 -0.0575
   51CHL1   C15 6198   1.999   6.159   9.629 -0.1408 -0.0727  0.3671
   51CHL1  H15A 6199   1.933   6.070   9.621 -0.4690  0.2254 -0.3033
   51CHL1  H15B 6200   1.920   6.234   9.651 -0.8455 -0.3374 -1.1451
   51CHL1   C16 6201   2.078   6.176   9.496 -0.4790 -0.5772  0.2296
   51CHL1  H16A 6202   2.038   6.096   9.430 -1.8136 -0.7607  1.2251
   51CHL1  H16B 6203   2.066   6.281   9.461  1.8792 -0.1420  0.5721
   51CHL1   C17 6204   2.228   6.146   9.521  0.3372  0.0749  0.8923
   51CHL1   H17 6205   2.276   6.246   9.521  1.0649 -0.1195 -2.8923
   51CHL1   C13 6206   2.227   6.074   9.657  0.6493 -0.7246 -0.2014
   51CHL1   C18 6207   2.185   5.927   9.639 -0.1134  0.2497 -0.1595
   51CHL1  H18A 6208   2.182   5.867   9.732 -1.8371 -1.0699 -1.0026
   51CHL1  H18B 6209   2.083   5.910   9.598 -0.4126 -1.6781  1.2698
   51CHL1  H18C 6210   2.257   5.870   9.576  2.0835  2.2780  0.3848
   51CHL1   C12 6211   2.352   6.093   9.740  0.4040  0.7803  0.6824
   51CHL1  H12A 6212   2.425   6.023   9.696 -1.0706 -1.2980  1.3781
   51CHL1  H12B 6213   2.384   6.199   9.736  0.0879  0.8580 -0.0823
   51CHL1   C11 6214   2.329   6.048   9.889 -0.1524 -0.1965  0.3034
   51CHL1  H11A 6215   2.318   5.939   9.908  0.3279 -0.1609  0.8301
   51CHL1  H11B 6216   2.418   6.089   9.942 -1.2396  2.0571  0.4679
   51CHL1    C9 6217   2.203   6.119   9.951 -0.1811  0.3022 -0.2170
   51CHL1    H9 6218   2.208   6.230   9.954 -0.1744  0.2983  1.7713
   51CHL1   C10 6219   2.179   6.083  10.106 -0.0685 -1.0632 -0.2665
   51CHL1   C19 6220   2.190   5.937  10.134  0.2277 -0.6111  0.6189
   51CHL1  H19A 6221   2.293   5.905  10.108  0.4934  2.3600 -2.8522
   51CHL1  H19B 6222   2.169   5.915  10.241 -0.5678 -1.3068  0.3318
   51CHL1  H19C 6223   2.107   5.890  10.077 -1.4952  0.8796  1.7869
   51CHL1    C1 6224   2.288   6.175  10.176 -0.2973  0.5892 -0.2178
   51CHL1   H1A 6225   2.383   6.122  10.154 -1.4953 -1.0351 -1.8010
   51CHL1   H1B 6226   2.277   6.279  10.137 -2.2886  0.2843 -0.5929
   51CHL1    C2 6227   2.274   6.166  10.329 -0.3872  0.8826 -0.4351
   51CHL1   H2A 6228   2.348   6.233  10.377 -0.9480 -0.3236  2.2992
   51CHL1   H2B 6229   2.299   6.068  10.375  0.6336  0.9435 -0.8295
   51CHL1   C20 6230   2.294   6.078   9.400  0.2225  0.3534 -0.3257
   51CHL1   H20 6231   2.277   5.969   9.386 -1.4108  0.7926 -2.3392
   51CHL1   C21 6232   2.449   6.086   9.416  0.8421  0.3725 -0.0705
   51CHL1  H21A 6233   2.488   6.040   9.509 -1.0166 -0.3143  0.4136
   51CHL1  H21B 6234   2.471   6.195   9.413 -4.5103  1.7206 -1.5390
   51CHL1  H21C 6235   2.493   6.031   9.330 -1.9499  1.2072 -2.1814
   51CHL1   C22 6236   2.245   6.134   9.263 -0.8630  0.7264  0.4154
   51CHL1  H22A 6237   2.139   6.102   9.255 -0.1140 -2.3999  1.4864
   51CHL1  H22B 6238   2.259   6.244   9.263  0.8575  0.5438  1.8108
   51CHL1   C23 6239   2.308   6.071   9.139 -0.2609  0.3023 -0.4364
   51CHL1  H23A 6240   2.280   6.136   9.055 -0.1126 -1.2069 -1.6997
   51CHL1  H23B 6241   2.418   6.082   9.152 -0.1733 -0.0171 -0.8712
   51CHL1   C24 6242   2.282   5.917   9.128 -0.1203  0.1367  0.4196
   51CHL1  H24A 6243   2.344   5.855   9.197 -1.1743 -3.2206 -1.4407
   51CHL1  H24B 6244   2.181   5.888   9.163 -0.3049  1.1675  0.7809
   51CHL1   C25 6245   2.305   5.860   8.988 -0.3608  0.0455  0.2998
   51CHL1   H25 6246   2.282   5.937   8.912  1.4195 -1.6675 -2.1358
   51CHL1   C26 6247   2.456   5.842   8.949 -0.3461  0.4845 -0.3344
   51CHL1  H26A 6248   2.508   5.939   8.942  1.8682 -0.6226 -0.2013
   51CHL1  H26B 6249   2.500   5.773   9.024  1.0525  1.8872  0.1884
   51CHL1  H26C 6250   2.458   5.800   8.846 -0.3458  1.2472 -0.6487
   51CHL1   C27 6251   2.216   5.739   8.961 -1.2482 -0.2152 -0.3746
   51CHL1  H27A 6252   2.250   5.647   9.014 -2.8982 -1.4289 -1.3346
   51CHL1  H27B 6253   2.112   5.752   8.998 -1.4067  1.7161 -1.3805
   51CHL1  H27C 6254   2.203   5.703   8.857 -1.7757 -0.6472 -0.1618
   52CHL1    C3 6255   5.639   0.212  10.104 -0.6046  0.4055 -0.1337
   52CHL1    H3 6256   5.596   0.313  10.120 -2.3900 -0.5165  1.4042
   52CHL1    O3 6257   5.690   0.159  10.229 -0.0281  0.4035  0.1268
   52CHL1   H3' 6258   5.622   0.110  10.275  0.5662 -2.0593 -1.4296
   52CHL1    C4 6259   5.528   0.125  10.042  0.2878  0.1134 -0.3508
   52CHL1   H4A 6260   5.552   0.017  10.054 -1.6678 -0.2487  0.7080
   52CHL1   H4B 6261   5.431   0.138  10.095  1.6083 -1.9383  2.9118
   52CHL1    C5 6262   5.516   0.165   9.892  0.2564 -0.0391 -0.5698
   52CHL1    C6 6263   5.401   0.208   9.840  0.5008  0.0277 -0.7090
   52CHL1    H6 6264   5.308   0.207   9.899  1.7602 -1.9353  1.4096
   52CHL1    C7 6265   5.375   0.209   9.693 -0.0688  0.4505  0.6788
   52CHL1   H7A 6266   5.276   0.160   9.678  0.6899 -1.4753  1.5845
   52CHL1   H7B 6267   5.367   0.313   9.655  1.9539 -0.3203 -2.1979
   52CHL1    C8 6268   5.481   0.140   9.602 -0.2914 -1.0876 -0.5050
   52CHL1    H8 6269   5.475   0.029   9.606 -0.8467 -1.0675  3.8313
   52CHL1   C14 6270   5.470   0.189   9.458 -0.3245 -0.5188 -0.5564
   52CHL1   H14 6271   5.471   0.300   9.468  0.4986 -0.6489  1.0555
   52CHL1   C15 6272   5.332   0.165   9.387  0.0563 -0.6754  0.2548
   52CHL1  H15A 6273   5.296   0.060   9.395  0.9126 -0.9801  0.2487
   52CHL1  H15B 6274   5.256   0.238   9.421  0.4468 -1.2001  2.4532
   52CHL1   C16 6275   5.372   0.189   9.239 -0.0028  0.0489 -0.2691
   52CHL1  H16A 6276   5.353   0.098   9.179 -1.2556 -1.7539  2.6629
   52CHL1  H16B 6277   5.312   0.269   9.190 -0.6628 -0.2274  0.0734
   52CHL1   C17 6278   5.527   0.209   9.226 -0.2692 -0.2680 -0.2902
   52CHL1   H17 6279   5.548   0.318   9.231 -0.3612 -0.2614 -0.0695
   52CHL1   C13 6280   5.575   0.150   9.359  0.5881  0.7395  0.3605
   52CHL1   C18 6281   5.582  -0.006   9.337 -0.1098 -0.7414  0.0261
   52CHL1  H18A 6282   5.668  -0.024   9.270 -1.3728 -0.6431 -1.7054
   52CHL1  H18B 6283   5.595  -0.054   9.436  1.4018 -0.2076  0.1097
   52CHL1  H18C 6284   5.487  -0.046   9.295  0.0202 -1.9052  0.7894
   52CHL1   C12 6285   5.708   0.204   9.413 -0.4595 -0.5655 -0.1436
   52CHL1  H12A 6286   5.791   0.165   9.350  2.9917  0.0063  3.6398
   52CHL1  H12B 6287   5.709   0.315   9.399 -1.4671 -0.7663 -2.2179
   52CHL1   C11 6288   5.745   0.166   9.561 -0.2261  0.0111 -0.8527
   52CHL1  H11A 6289   5.778   0.060   9.563 -1.2028 -0.2891  0.2962
   52CHL1  H11B 6290   5.817   0.245   9.593  1.3045 -1.5620 -0.2295
   52CHL1    C9 6291   5.621   0.185   9.657 -0.1231 -0.1144  0.7591
   52CHL1    H9 6292   5.615   0.295   9.647 -0.0657 -0.2288 -0.6669
   52CHL1   C10 6293   5.644   0.143   9.808 -0.3332  0.4491 -0.1265
   52CHL1   C19 6294   5.697   0.002   9.811 -0.1657  0.0842 -0.5855
   52CHL1  H19A 6295   5.783  -0.027   9.745 -0.7313 -1.3862 -0.7198
   52CHL1  H19B 6296   5.728  -0.027   9.913  0.7351  0.6394 -0.6814
   52CHL1  H19C 6297   5.616  -0.071   9.789 -1.1728  0.6050  1.2268
   52CHL1    C1 6298   5.758   0.230   9.863 -0.4640  0.6316 -0.8279
   52CHL1   H1A 6299   5.854   0.211   9.810  0.4706  0.4261  0.8725
   52CHL1   H1B 6300   5.737   0.338   9.848  2.0185  1.7723  2.5616
   52CHL1    C2 6301   5.773   0.221  10.019 -0.0993 -0.6088  0.7330
   52CHL1   H2A 6302   5.838   0.303  10.055  1.8500 -2.0174  0.6580
   52CHL1   H2B 6303   5.836   0.131  10.038  0.2081 -0.7391 -0.7643
   52CHL1   C20 6304   5.581   0.177   9.086  0.0391 -0.3916 -0.0938
   52CHL1   H20 6305   5.555   0.070   9.067 -0.1190 -0.3316 -0.2129
   52CHL1   C21 6306   5.736   0.188   9.077 -0.6395 -0.0622  0.0797
   52CHL1  H21A 6307   5.762   0.140   8.980  1.1872 -0.3171  0.6400
   52CHL1  H21B 6308   5.789   0.125   9.152 -0.8234 -0.1712  0.1188
   52CHL1  H21C 6309   5.780   0.290   9.078  1.8417 -0.9914 -1.6395
   52CHL1   C22 6310   5.512   0.257   8.977  0.0317  0.2969  0.3127
   52CHL1  H22A 6311   5.402   0.256   8.994 -0.2856 -3.4510 -0.8615
   52CHL1  H22B 6312   5.551   0.360   8.976  0.3326  0.2319  2.3392
   52CHL1   C23 6313   5.538   0.197   8.834  0.3965 -0.6039 -0.1617
   52CHL1  H23A 6314   5.642   0.220   8.802  0.3448 -1.5843 -1.0937
   52CHL1  H23B 6315   5.516   0.088   8.837 -1.7516 -0.3144 -2.3639
   52CHL1   C24 6316   5.443   0.266   8.730  0.0516  0.2833 -0.9974
   52CHL1  H24A 6317   5.341   0.243   8.767  0.5291 -1.5913 -0.7607
   52CHL1  H24B 6318   5.453   0.377   8.722 -1.9264  0.6171  0.4799
   52CHL1   C25 6319   5.451   0.216   8.586 -0.1008 -0.4559 -0.4788
   52CHL1   H25 6320   5.553   0.235   8.544 -0.1869 -0.5911 -0.7553
   52CHL1   C26 6321   5.405   0.072   8.569  0.4438 -0.1885  0.2496
   52CHL1  H26A 6322   5.305   0.071   8.618  0.0943  0.6750 -0.4332
   52CHL1  H26B 6323   5.396   0.037   8.464 -0.1722 -0.5082  0.4020
   52CHL1  H26C 6324   5.470  -0.004   8.619  0.6760 -1.2111 -1.5302
   52CHL1   C27 6325   5.368   0.315   8.503 -1.0066 -0.4705 -0.8726
   52CHL1  H27A 6326   5.331   0.270   8.409 -2.0010  2.0692 -1.8028
   52CHL1  H27B 6327   5.278   0.329   8.567  0.2761 -0.0013  0.8816
   52CHL1  H27C 6328   5.419   0.410   8.475 -1.0155  0.3969  1.7780
   53CHL1    C3 6329   5.787   5.604  10.158 -0.1589 -0.1612 -0.1355
   53CHL1    H3 6330   5.706   5.531  10.140 -0.4704  0.8354 -3.5476
   53CHL1    O3 6331   5.818   5.612  10.293 -0.2479 -0.1754 -0.4494
   53CHL1   H3' 6332   5.910   5.639  10.298 -0.0125 -1.0929  0.6557
   53CHL1    C4 6333   5.905   5.547  10.076  0.0865  0.3367 -0.4703
   53CHL1   H4A 6334   5.995   5.597  10.116 -0.6587 -0.9928  3.2464
   53CHL1   H4B 6335   5.909   5.444  10.116  0.1175 -0.0115 -1.3490
   53CHL1    C5 6336   5.894   5.544   9.922  0.1186  0.2287  0.2506
   53CHL1    C6 6337   5.915   5.436   9.846  0.1029  0.2135  0.0318
   53CHL1    H6 6338   5.941   5.344   9.900 -1.7564  1.0767  2.5731
   53CHL1    C7 6339   5.903   5.429   9.691  0.0769  0.2832 -0.0801
   53CHL1   H7A 6340   5.988   5.372   9.648  0.9846  0.5260  1.3065
   53CHL1   H7B 6341   5.806   5.382   9.663  0.2235  0.4099 -0.8002
   53CHL1    C8 6342   5.902   5.568   9.636  1.0287 -0.9845 -0.5009
   53CHL1    H8 6343   6.005   5.609   9.641  0.6508 -0.0145 -0.4923
   53CHL1   C14 6344   5.847   5.576   9.497  0.1762  0.2506 -0.1251
   53CHL1   H14 6345   5.747   5.528   9.501  0.6095 -0.6375  0.3439
   53CHL1   C15 6346   5.925   5.481   9.400 -0.1358  0.7999 -0.8313
   53CHL1  H15A 6347   6.035   5.482   9.414 -0.4750 -2.0144  3.6407
   53CHL1  H15B 6348   5.893   5.375   9.408 -1.2569  1.0978 -1.1227
   53CHL1   C16 6349   5.890   5.529   9.267 -0.0964 -0.3316 -0.1751
   53CHL1  H16A 6350   5.978   5.563   9.208 -0.4738 -0.5975 -0.8972
   53CHL1  H16B 6351   5.835   5.456   9.204  0.4237 -1.4213  0.6042
   53CHL1   C17 6352   5.800   5.657   9.289  0.6267 -0.1435  0.5554
   53CHL1   H17 6353   5.696   5.618   9.294 -0.2587  2.1887  1.4038
   53CHL1   C13 6354   5.828   5.714   9.428 -0.0454  0.0191 -0.0158
   53CHL1   C18 6355   5.964   5.784   9.431 -0.6823  0.6419 -0.1015
   53CHL1  H18A 6356   5.935   5.884   9.394 -1.9796  1.0977  1.9595
   53CHL1  H18B 6357   6.005   5.805   9.532  2.7709 -0.3745 -1.1712
   53CHL1  H18C 6358   6.047   5.735   9.375  0.2760 -0.4667  2.1461
   53CHL1   C12 6359   5.722   5.786   9.506  0.3093 -0.8405 -0.2195
   53CHL1  H12A 6360   5.705   5.886   9.462  0.6414 -1.1222 -1.0078
   53CHL1  H12B 6361   5.629   5.725   9.510 -0.7040  0.6820  0.5806
   53CHL1   C11 6362   5.762   5.791   9.652 -0.8221 -0.0390 -0.5664
   53CHL1  H11A 6363   5.842   5.867   9.663  0.5300 -1.6070  1.0776
   53CHL1  H11B 6364   5.669   5.834   9.695 -0.0882 -1.2570  2.5219
   53CHL1    C9 6365   5.808   5.659   9.721 -0.0951  0.4131  0.8023
   53CHL1    H9 6366   5.716   5.597   9.718  0.7405 -0.8518  0.6153
   53CHL1   C10 6367   5.848   5.677   9.865 -0.0930 -0.3436  0.4219
   53CHL1   C19 6368   5.972   5.766   9.870 -0.7545 -0.0961  0.0292
   53CHL1  H19A 6369   6.002   5.772   9.977 -2.3349 -0.8668  0.5498
   53CHL1  H19B 6370   6.049   5.731   9.798  0.9504 -1.4610  2.4024
   53CHL1  H19C 6371   5.949   5.871   9.841  0.9822  0.8711  1.8863
   53CHL1    C1 6372   5.727   5.735   9.944 -0.5790 -0.0160  0.2452
   53CHL1   H1A 6373   5.704   5.838   9.909 -0.5940 -0.2198 -0.3583
   53CHL1   H1B 6374   5.642   5.673   9.911  0.0796  0.4369 -2.5482
   53CHL1    C2 6375   5.750   5.737  10.101  0.5588  0.6929  0.1352
   53CHL1   H2A 6376   5.651   5.770  10.140  0.4209 -0.4997  0.8500
   53CHL1   H2B 6377   5.822   5.819  10.122  1.1640 -0.4921  3.1740
   53CHL1   C20 6378   5.802   5.758   9.184 -0.0405 -0.6206 -0.0201
   53CHL1   H20 6379   5.903   5.804   9.188 -0.5515  0.6902 -1.4480
   53CHL1   C21 6380   5.697   5.871   9.200  0.2625  0.1054  0.4684
   53CHL1  H21A 6381   5.720   5.951   9.274 -1.4853  2.8476 -1.7289
   53CHL1  H21B 6382   5.592   5.845   9.223  0.0681  0.1109 -0.3616
   53CHL1  H21C 6383   5.679   5.925   9.104 -0.0370  0.2866  0.6250
   53CHL1   C22 6384   5.785   5.698   9.041 -0.0711 -0.4169 -0.2835
   53CHL1  H22A 6385   5.812   5.769   8.960  0.7327 -3.2575 -2.6504
   53CHL1  H22B 6386   5.855   5.614   9.021  1.2304  0.2225  1.3117
   53CHL1   C23 6387   5.648   5.657   9.007 -0.3275  0.4878  0.3570
   53CHL1  H23A 6388   5.605   5.604   9.094  2.7689 -0.9327  1.1556
   53CHL1  H23B 6389   5.596   5.754   8.991  2.2906  2.7856  4.2619
   53CHL1   C24 6390   5.644   5.564   8.886  0.6974  0.5811  0.2220
   53CHL1  H24A 6391   5.700   5.609   8.801  1.1123 -0.4812 -0.0772
   53CHL1  H24B 6392   5.692   5.467   8.911 -0.6440 -0.3151 -0.5774
   53CHL1   C25 6393   5.506   5.545   8.822  0.9763 -0.7173  0.1625
   53CHL1   H25 6394   5.462   5.646   8.805 -2.0185 -1.6778  1.5782
   53CHL1   C26 6395   5.514   5.487   8.681 -0.2449  0.3765  0.6816
   53CHL1  H26A 6396   5.579   5.398   8.674 -0.2553  0.4080  0.1210
   53CHL1  H26B 6397   5.414   5.455   8.644  0.1174  1.6052 -1.5800
   53CHL1  H26C 6398   5.560   5.558   8.608 -0.5547 -0.6051 -0.5016
   53CHL1   C27 6399   5.406   5.461   8.910 -0.3110 -0.2000  0.2682
   53CHL1  H27A 6400   5.308   5.441   8.860  0.1004 -1.1461 -0.2042
   53CHL1  H27B 6401   5.444   5.357   8.924 -1.2754 -0.5949  0.1004
   53CHL1  H27C 6402   5.378   5.501   9.010  1.8737 -0.8495  1.1931
   54CHL1    C3 6403   0.299   0.629  10.175 -0.2942  1.0211 -0.1198
   54CHL1    H3 6404   0.363   0.541  10.152 -2.9901 -0.9075 -0.8368
   54CHL1    O3 6405   0.263   0.640  10.312 -0.3607  0.2648  0.2093
   54CHL1   H3' 6406   0.207   0.563  10.318  0.9942 -0.7486  0.5346
   54CHL1    C4 6407   0.363   0.760  10.130  0.4166  0.3439  0.2586
   54CHL1   H4A 6408   0.293   0.837  10.170 -0.9598  0.6419 -2.5234
   54CHL1   H4B 6409   0.455   0.762  10.193 -0.3922  1.1287  1.4720
   54CHL1    C5 6410   0.386   0.775   9.978  0.2285  0.3975  0.7024
   54CHL1    C6 6411   0.511   0.807   9.935  0.1237 -0.1573 -0.3535
   54CHL1    H6 6412   0.577   0.834  10.019 -1.2288 -1.0503  1.0513
   54CHL1    C7 6413   0.551   0.813   9.794 -0.1173 -0.2311  0.2740
   54CHL1   H7A 6414   0.600   0.912   9.783 -1.4994  0.7855  2.5244
   54CHL1   H7B 6415   0.624   0.735   9.762  2.3915  2.4249 -0.9265
   54CHL1    C8 6416   0.432   0.799   9.697 -0.2747 -0.1663  0.1051
   54CHL1    H8 6417   0.380   0.897   9.695 -1.6191 -0.7602  2.1944
   54CHL1   C14 6418   0.482   0.768   9.559  0.4964  0.3715  0.4002
   54CHL1   H14 6419   0.524   0.665   9.562 -0.2081  0.1004  1.9088
   54CHL1   C15 6420   0.587   0.865   9.504  0.2805 -0.1177 -0.3950
   54CHL1  H15A 6421   0.561   0.970   9.530  1.2592 -0.1836  0.9446
   54CHL1  H15B 6422   0.688   0.842   9.543  1.6695  2.2854 -2.2942
   54CHL1   C16 6423   0.569   0.850   9.354  0.4524  0.5411  0.3139
   54CHL1  H16A 6424   0.550   0.952   9.314  1.6116  1.0068  0.8949
   54CHL1  H16B 6425   0.655   0.799   9.305 -0.1015 -1.9239  1.7446
   54CHL1   C17 6426   0.446   0.758   9.336  0.3654  0.1823  0.5020
   54CHL1   H17 6427   0.495   0.659   9.346  2.1215  0.6206 -2.4704
   54CHL1   C13 6428   0.365   0.764   9.461  0.5006 -0.4605  0.3403
   54CHL1   C18 6429   0.286   0.892   9.438  0.5471 -0.1268 -0.4329
   54CHL1  H18A 6430   0.245   0.928   9.535 -2.9796  2.1765 -2.5654
   54CHL1  H18B 6431   0.355   0.971   9.404  0.5457  0.6536  1.2971
   54CHL1  H18C 6432   0.206   0.885   9.361  0.0079  1.1295  0.0030
   54CHL1   C12 6433   0.276   0.642   9.491 -0.0367 -0.4339 -0.4691
   54CHL1  H12A 6434   0.193   0.632   9.417  0.4501 -2.0902 -0.8370
   54CHL1  H12B 6435   0.330   0.545   9.491 -0.3179 -0.7220  2.8723
   54CHL1   C11 6436   0.224   0.655   9.640  0.3281 -0.7832 -0.3269
   54CHL1  H11A 6437   0.150   0.737   9.643 -0.7961 -1.7814  1.7812
   54CHL1  H11B 6438   0.170   0.563   9.670 -0.3146 -0.5163 -0.6615
   54CHL1    C9 6439   0.336   0.686   9.745  0.1552  0.3665  0.6964
   54CHL1    H9 6440   0.401   0.598   9.764  0.2526  0.9402  3.3973
   54CHL1   C10 6441   0.272   0.720   9.885  0.1514  0.5790  0.6752
   54CHL1   C19 6442   0.170   0.834   9.874 -0.5716 -0.1665 -0.2064
   54CHL1  H19A 6443   0.199   0.925   9.817 -1.2776  2.3973  3.2015
   54CHL1  H19B 6444   0.072   0.804   9.833 -0.4334  1.3782 -1.7969
   54CHL1  H19C 6445   0.142   0.864   9.978 -1.9613 -2.8879  0.2786
   54CHL1    C1 6446   0.208   0.586   9.950 -0.1057 -0.9538 -0.6365
   54CHL1   H1A 6447   0.117   0.548   9.898  0.0168 -1.7251 -0.2891
   54CHL1   H1B 6448   0.283   0.505   9.947 -0.0728 -0.9033 -1.5626
   54CHL1    C2 6449   0.169   0.602  10.101 -0.0733 -0.0852 -0.3102
   54CHL1   H2A 6450   0.126   0.505  10.136  1.4433 -0.3418  0.9618
   54CHL1   H2B 6451   0.085   0.668  10.131 -0.4798 -1.7523  2.5857
   54CHL1   C20 6452   0.379   0.754   9.195  0.1304 -0.8030  0.6075
   54CHL1   H20 6453   0.271   0.776   9.209  0.3113 -1.0936  2.8387
   54CHL1   C21 6454   0.373   0.607   9.157 -0.2206 -0.2602 -0.0426
   54CHL1  H21A 6455   0.306   0.580   9.072 -2.2796 -1.0529  1.7321
   54CHL1  H21B 6456   0.341   0.554   9.249  1.8923 -1.1939  0.2139
   54CHL1  H21C 6457   0.470   0.561   9.128  1.4962  1.7141  2.2477
   54CHL1   C22 6458   0.447   0.842   9.084  0.6428 -0.5908  0.1968
   54CHL1  H22A 6459   0.459   0.947   9.118 -2.0511  0.2728 -1.1953
   54CHL1  H22B 6460   0.547   0.797   9.068  0.5961 -0.0977 -1.6823
   54CHL1   C23 6461   0.358   0.856   8.960 -0.4756  0.0093  0.1492
   54CHL1  H23A 6462   0.344   0.758   8.910  0.2830  0.7195 -1.5259
   54CHL1  H23B 6463   0.267   0.894   9.011 -1.3307 -0.3391 -1.0610
   54CHL1   C24 6464   0.411   0.967   8.864 -0.6935 -0.3601 -0.0087
   54CHL1  H24A 6465   0.435   1.056   8.925  1.0604 -0.2019 -0.8573
   54CHL1  H24B 6466   0.498   0.914   8.819  0.2159  0.0339  1.2460
   54CHL1   C25 6467   0.303   1.005   8.755 -0.5922 -0.1180 -0.3137
   54CHL1   H25 6468   0.202   1.013   8.800 -0.5192 -0.5260 -0.0717
   54CHL1   C26 6469   0.336   1.145   8.694 -0.1997 -0.2403  0.0804
   54CHL1  H26A 6470   0.328   1.218   8.777 -0.0429  0.8749 -0.8656
   54CHL1  H26B 6471   0.434   1.152   8.642 -1.0857 -0.5717 -1.7133
   54CHL1  H26C 6472   0.258   1.168   8.619 -0.2427 -1.9625 -0.4421
   54CHL1   C27 6473   0.274   0.907   8.644 -0.2245  0.6922 -0.2424
   54CHL1  H27A 6474   0.367   0.867   8.597  0.1977 -0.0765  1.1785
   54CHL1  H27B 6475   0.217   0.818   8.675  0.2563  0.3353 -0.3720
   54CHL1  H27C 6476   0.218   0.967   8.569  0.7133  1.6224 -0.2213
   55CHL1    C3 6477   0.685   3.942  10.136 -0.1882 -0.6035 -0.2397
   55CHL1    H3 6478   0.666   4.036  10.079 -2.1754 -0.2836  0.8746
   55CHL1    O3 6479   0.669   3.966  10.274 -0.1231 -0.5434 -0.0629
   55CHL1   H3' 6480   0.756   3.997  10.299 -1.0007  2.7674 -0.6558
   55CHL1    C4 6481   0.586   3.828  10.100  0.0891  0.3046  0.1816
   55CHL1   H4A 6482   0.632   3.747  10.162  0.3453 -0.1996 -0.6544
   55CHL1   H4B 6483   0.491   3.867  10.143  1.1961 -1.1638  4.4375
   55CHL1    C5 6484   0.591   3.797   9.949  0.6778  0.5087 -0.1982
   55CHL1    C6 6485   0.484   3.818   9.867  0.4091  0.8406  0.1768
   55CHL1    H6 6486   0.385   3.840   9.910  0.5582  0.4929  0.7018
   55CHL1    C7 6487   0.469   3.792   9.720  0.0991  0.0514  0.1509
   55CHL1   H7A 6488   0.379   3.740   9.682 -2.2481  3.3766  0.7085
   55CHL1   H7B 6489   0.485   3.891   9.671  1.5663  1.0591  2.4717
   55CHL1    C8 6490   0.590   3.698   9.680 -0.8158  0.2925 -0.0562
   55CHL1    H8 6491   0.573   3.594   9.715  1.1372  0.1464  0.6021
   55CHL1   C14 6492   0.602   3.698   9.529  0.0156 -0.2153 -0.2668
   55CHL1   H14 6493   0.612   3.802   9.494 -0.5551  0.8223  2.4296
   55CHL1   C15 6494   0.479   3.654   9.448  0.1220  0.0825  0.0349
   55CHL1  H15A 6495   0.441   3.553   9.476  1.7983 -0.5385  0.1827
   55CHL1  H15B 6496   0.392   3.722   9.457  1.0071  1.3190 -0.5461
   55CHL1   C16 6497   0.533   3.641   9.310  0.8837  0.5576 -0.2425
   55CHL1  H16A 6498   0.501   3.543   9.268  0.7262  0.8425 -0.8077
   55CHL1  H16B 6499   0.498   3.723   9.244 -0.7042  1.0351  1.1404
   55CHL1   C17 6500   0.685   3.637   9.317 -0.3020 -0.1163 -0.0443
   55CHL1   H17 6501   0.719   3.737   9.283 -0.9716  0.0221 -0.3143
   55CHL1   C13 6502   0.713   3.619   9.465 -0.4740 -0.1100 -0.0733
   55CHL1   C18 6503   0.708   3.467   9.504  0.3453  0.5530 -0.1307
   55CHL1  H18A 6504   0.797   3.414   9.465 -0.1152  0.8588 -1.7043
   55CHL1  H18B 6505   0.709   3.452   9.614 -0.5442 -2.3761 -0.4589
   55CHL1  H18C 6506   0.616   3.421   9.462 -0.3789  1.7806  0.0652
   55CHL1   C12 6507   0.843   3.688   9.509 -0.1263  0.4137 -0.0235
   55CHL1  H12A 6508   0.936   3.640   9.470 -0.2972 -1.5415  1.7847
   55CHL1  H12B 6509   0.841   3.794   9.479 -1.1302  0.1051 -1.1069
   55CHL1   C11 6510   0.848   3.686   9.666  0.3285  0.0951 -0.1097
   55CHL1  H11A 6511   0.847   3.580   9.696  0.3482  0.5013  1.3983
   55CHL1  H11B 6512   0.944   3.734   9.697 -1.1417  3.7153 -0.5704
   55CHL1    C9 6513   0.725   3.756   9.733  0.3252  0.2441 -0.5596
   55CHL1    H9 6514   0.737   3.863   9.707 -1.9825  1.0239  1.1898
   55CHL1   C10 6515   0.727   3.759   9.892  0.8479  0.5832 -0.8089
   55CHL1   C19 6516   0.763   3.622   9.948 -0.2775  0.1458  0.6613
   55CHL1  H19A 6517   0.865   3.590   9.918 -0.4601 -1.4145  1.6082
   55CHL1  H19B 6518   0.765   3.609  10.058  0.0122  1.4551  0.8257
   55CHL1  H19C 6519   0.691   3.552   9.900 -0.7832  0.5324  0.8425
   55CHL1    C1 6520   0.832   3.851   9.947  0.8044  0.1511 -0.9670
   55CHL1   H1A 6521   0.939   3.825   9.930  0.9235  0.4993 -0.7668
   55CHL1   H1B 6522   0.826   3.945   9.888 -0.4461 -1.0264 -2.8004
   55CHL1    C2 6523   0.824   3.901  10.096  0.0544 -0.1339 -0.0404
   55CHL1   H2A 6524   0.894   3.983  10.124 -0.1544 -1.4866  5.6670
   55CHL1   H2B 6525   0.853   3.815  10.159 -1.0284  0.1617  0.8940
   55CHL1   C20 6526   0.741   3.532   9.215  0.1199 -0.1465  0.0536
   55CHL1   H20 6527   0.731   3.426   9.246 -0.2569 -0.8591 -2.3296
   55CHL1   C21 6528   0.895   3.565   9.210  0.0259 -1.1062  0.0063
   55CHL1  H21A 6529   0.918   3.674   9.206 -3.5926 -0.2041 -0.0843
   55CHL1  H21B 6530   0.952   3.524   9.124  1.0609  0.8763 -0.3167
   55CHL1  H21C 6531   0.939   3.523   9.303  0.1668  1.1386  1.0252
   55CHL1   C22 6532   0.676   3.539   9.074  0.1135  0.0874 -0.4313
   55CHL1  H22A 6533   0.576   3.491   9.070  2.2761 -5.0970  0.0009
   55CHL1  H22B 6534   0.667   3.642   9.034  2.2795  1.1771  1.6966
   55CHL1   C23 6535   0.748   3.462   8.963 -0.1178  0.6279 -0.2405
   55CHL1  H23A 6536   0.853   3.495   8.947  0.0022  0.2915 -0.1531
   55CHL1  H23B 6537   0.754   3.354   8.988  1.0407  0.1864 -2.1750
   55CHL1   C24 6538   0.674   3.462   8.833  0.2493  0.5186  0.2324
   55CHL1  H24A 6539   0.584   3.397   8.843  0.5876  0.1852  1.2293
   55CHL1  H24B 6540   0.670   3.566   8.795  0.8944  1.0047  1.4634
   55CHL1   C25 6541   0.745   3.387   8.721 -0.1176 -0.3888 -0.0940
   55CHL1   H25 6542   0.749   3.281   8.754 -0.4605 -0.5065 -0.4225
   55CHL1   C26 6543   0.668   3.392   8.591 -1.1393  0.3875  0.0747
   55CHL1  H26A 6544   0.647   3.497   8.561 -0.3167  1.0997  1.8389
   55CHL1  H26B 6545   0.738   3.350   8.517  0.6902  0.9596  1.3944
   55CHL1  H26C 6546   0.580   3.324   8.599  0.9069 -2.3113  0.9083
   55CHL1   C27 6547   0.886   3.441   8.696 -0.3125 -0.4553  0.5748
   55CHL1  H27A 6548   0.965   3.393   8.758  0.4266  0.7072  0.5735
   55CHL1  H27B 6549   0.918   3.432   8.590 -2.3116  0.7831 -0.1908
   55CHL1  H27C 6550   0.886   3.551   8.713 -0.3558 -0.3880  0.1467
   56CHL1    C3 6551   5.391   4.499  10.145 -0.1149 -0.0206 -0.3375
   56CHL1    H3 6552   5.316   4.577  10.118 -1.4728 -0.7730  1.0678
   56CHL1    O3 6553   5.415   4.471  10.283  0.7174  0.3844  0.2480
   56CHL1   H3' 6554   5.480   4.400  10.284 -0.7667 -1.0352 -0.2715
   56CHL1    C4 6555   5.361   4.360  10.078 -1.1090 -0.2252  0.2476
   56CHL1   H4A 6556   5.440   4.285  10.100 -0.3716 -0.1909 -2.0114
   56CHL1   H4B 6557   5.272   4.323  10.133 -1.2653 -1.2291 -0.6396
   56CHL1    C5 6558   5.345   4.373   9.926  0.6138  0.0986  0.4490
   56CHL1    C6 6559   5.236   4.323   9.872 -0.2500  0.1198 -1.0874
   56CHL1    H6 6560   5.176   4.261   9.940  0.4869 -1.8655 -2.1441
   56CHL1    C7 6561   5.212   4.329   9.719 -0.6207  0.7413  0.5453
   56CHL1   H7A 6562   5.170   4.233   9.684 -1.7886  1.6415 -0.5844
   56CHL1   H7B 6563   5.135   4.402   9.688 -2.0091 -0.7914  0.2283
   56CHL1    C8 6564   5.341   4.358   9.636  0.0085 -0.3525 -0.3663
   56CHL1    H8 6565   5.415   4.275   9.635 -0.7316 -1.0136 -0.7518
   56CHL1   C14 6566   5.310   4.391   9.497 -0.1012  0.3956 -0.5759
   56CHL1   H14 6567   5.233   4.470   9.505 -1.2843 -0.8276  0.7600
   56CHL1   C15 6568   5.228   4.284   9.412 -0.1754 -0.8357  0.2342
   56CHL1  H15A 6569   5.282   4.187   9.420  0.2945 -0.4367  2.7074
   56CHL1  H15B 6570   5.122   4.274   9.443 -0.2990  1.4518  0.7180
   56CHL1   C16 6571   5.240   4.338   9.270  0.2489  0.4180  0.6773
   56CHL1  H16A 6572   5.278   4.268   9.193 -3.6686  0.4028 -1.4570
   56CHL1  H16B 6573   5.135   4.360   9.242  0.5376  1.0921  0.1038
   56CHL1   C17 6574   5.329   4.470   9.277 -0.0625  1.0824 -0.6326
   56CHL1   H17 6575   5.272   4.565   9.291  0.4315  1.1505  1.0952
   56CHL1   C13 6576   5.411   4.451   9.412  0.1670 -0.4951  0.0459
   56CHL1   C18 6577   5.529   4.351   9.401  0.4561 -0.6712  0.2821
   56CHL1  H18A 6578   5.489   4.276   9.330 -0.6225  0.5003 -0.3857
   56CHL1  H18B 6579   5.610   4.399   9.342 -1.6281  2.8137  0.0235
   56CHL1  H18C 6580   5.541   4.285   9.490 -1.5751 -1.2560  0.1731
   56CHL1   C12 6581   5.452   4.583   9.478  0.3081  0.1212 -0.3411
   56CHL1  H12A 6582   5.528   4.637   9.418 -0.0141  0.4631 -0.4399
   56CHL1  H12B 6583   5.369   4.655   9.491  0.2081  0.0447 -0.5474
   56CHL1   C11 6584   5.514   4.549   9.616  0.4417  0.3278  0.1725
   56CHL1  H11A 6585   5.607   4.489   9.609 -0.1508 -0.4475 -1.4415
   56CHL1  H11B 6586   5.539   4.652   9.650 -0.8394  0.3090  1.2570
   56CHL1    C9 6587   5.415   4.481   9.707 -0.0857 -0.2681  0.0931
   56CHL1    H9 6588   5.325   4.546   9.715 -1.3236 -1.9898  0.6252
   56CHL1   C10 6589   5.468   4.439   9.849  0.4380  0.2162 -0.3705
   56CHL1   C19 6590   5.591   4.343   9.850  0.2686  0.1682 -0.3627
   56CHL1  H19A 6591   5.628   4.335   9.954  3.7084  1.3169 -1.3712
   56CHL1  H19B 6592   5.559   4.242   9.817  2.1020 -1.6172  2.8676
   56CHL1  H19C 6593   5.669   4.375   9.777  1.1950 -0.3013  0.4093
   56CHL1    C1 6594   5.507   4.566   9.928  0.2190 -0.4699  0.8599
   56CHL1   H1A 6595   5.590   4.608   9.868 -0.9056  0.7371  0.0962
   56CHL1   H1B 6596   5.425   4.640   9.918  1.4413  0.7954 -0.2180
   56CHL1    C2 6597   5.524   4.550  10.082 -0.1927 -0.2130  0.0864
   56CHL1   H2A 6598   5.548   4.650  10.123 -2.3878 -0.2896  1.7549
   56CHL1   H2B 6599   5.615   4.488  10.099 -1.2542 -1.0616  3.5112
   56CHL1   C20 6600   5.412   4.486   9.150 -0.2064  0.0223  0.1170
   56CHL1   H20 6601   5.467   4.393   9.126 -0.9947 -0.4600  0.1110
   56CHL1   C21 6602   5.498   4.604   9.163 -0.2716 -0.1156  0.4772
   56CHL1  H21A 6603   5.446   4.677   9.229 -0.1214  0.8974 -0.4823
   56CHL1  H21B 6604   5.505   4.657   9.065  1.2735 -0.8914  0.1501
   56CHL1  H21C 6605   5.597   4.575   9.204 -0.5182 -1.7510 -0.0041
   56CHL1   C22 6606   5.312   4.503   9.023  1.0457  0.3552  0.3419
   56CHL1  H22A 6607   5.251   4.411   9.016  1.6372  0.0300 -0.7172
   56CHL1  H22B 6608   5.247   4.590   9.046 -0.3768 -0.8208  0.9323
   56CHL1   C23 6609   5.370   4.525   8.879  0.3288  0.1233 -0.3679
   56CHL1  H23A 6610   5.405   4.629   8.865 -0.6823  0.4089 -0.8646
   56CHL1  H23B 6611   5.465   4.468   8.874 -0.7599 -1.8875  0.4775
   56CHL1   C24 6612   5.270   4.486   8.768 -0.2752  0.4754  0.2532
   56CHL1  H24A 6613   5.188   4.421   8.804 -1.8985  2.5835  0.5536
   56CHL1  H24B 6614   5.230   4.581   8.724  0.0386 -0.6443 -2.7002
   56CHL1   C25 6615   5.337   4.419   8.646  0.4816  0.0038  0.0329
   56CHL1   H25 6616   5.404   4.344   8.693  0.8039  2.1137  3.2861
   56CHL1   C26 6617   5.224   4.348   8.569 -0.1066  0.2900 -0.1320
   56CHL1  H26A 6618   5.264   4.272   8.499  2.8131  0.7303  0.9331
   56CHL1  H26B 6619   5.149   4.289   8.626 -0.1958  0.1575 -0.3850
   56CHL1  H26C 6620   5.171   4.417   8.500 -1.0321  1.2125  1.4414
   56CHL1   C27 6621   5.426   4.508   8.562 -0.5255  0.3247 -0.3110
   56CHL1  H27A 6622   5.452   4.458   8.467  0.0071 -2.7139  1.2902
   56CHL1  H27B 6623   5.373   4.604   8.543 -1.4449 -0.1616 -0.2843
   56CHL1  H27C 6624   5.521   4.519   8.619  0.1640 -0.5409 -1.2776
   57CHL1    C3 6625   0.119   5.164  10.306 -0.4388  0.8192 -0.2168
   57CHL1    H3 6626   0.116   5.274  10.288 -1.3170  1.0727  1.2625
   57CHL1    O3 6627   0.125   5.132  10.445  0.3067 -0.0175 -0.4585
   57CHL1   H3' 6628   0.126   5.036  10.448  0.6546 -0.0233 -0.7877
   57CHL1    C4 6629  -0.013   5.100  10.260  0.3512  0.3092 -0.2999
   57CHL1   H4A 6630  -0.027   4.995  10.293 -1.7662  0.5774 -0.1946
   57CHL1   H4B 6631  -0.102   5.153  10.300  0.0748  1.6981 -2.5688
   57CHL1    C5 6632  -0.024   5.106  10.111 -0.1585  0.2098  0.4097
   57CHL1    C6 6633  -0.126   5.176  10.057  0.0630  0.5365  0.2104
   57CHL1    H6 6634  -0.193   5.231  10.124 -0.2001  1.8813 -1.1287
   57CHL1    C7 6635  -0.150   5.196   9.906  0.8676  0.0224  0.1920
   57CHL1   H7A 6636  -0.252   5.165   9.876  1.0130  1.2439 -1.8019
   57CHL1   H7B 6637  -0.142   5.304   9.881 -1.6906  0.7849  2.2398
   57CHL1    C8 6638  -0.054   5.109   9.823  0.2518  0.7341  0.7255
   57CHL1    H8 6639  -0.090   5.004   9.829  1.4815  0.3681  2.4411
   57CHL1   C14 6640  -0.057   5.158   9.679 -0.3150  0.4539 -0.4919
   57CHL1   H14 6641  -0.016   5.262   9.677  1.0054 -0.0316  0.2965
   57CHL1   C15 6642  -0.195   5.164   9.611 -0.4924 -0.5783 -0.1470
   57CHL1  H15A 6643  -0.257   5.079   9.646  1.7548 -0.9835  3.2073
   57CHL1  H15B 6644  -0.259   5.252   9.634  0.8257  0.3937 -0.0693
   57CHL1   C16 6645  -0.155   5.163   9.456  0.0001 -0.3539  0.6590
   57CHL1  H16A 6646  -0.218   5.088   9.402  0.2613 -0.7026  0.8346
   57CHL1  H16B 6647  -0.180   5.259   9.407  0.6553 -0.7162 -0.4175
   57CHL1   C17 6648  -0.002   5.133   9.447  0.8572 -0.1575 -0.4967
   57CHL1   H17 6649   0.048   5.233   9.440 -1.3566  1.1259  0.8222
   57CHL1   C13 6650   0.037   5.080   9.586  0.0163 -0.0144 -0.1177
   57CHL1   C18 6651  -0.004   4.933   9.576  0.3026  0.3961  0.0540
   57CHL1  H18A 6652  -0.104   4.917   9.530 -0.1649  2.3757  0.2902
   57CHL1  H18B 6653   0.072   4.881   9.514 -0.0439 -0.7381  0.5648
   57CHL1  H18C 6654  -0.005   4.875   9.671  1.2432 -0.0864 -0.2230
   57CHL1   C12 6655   0.181   5.079   9.640  0.3090 -0.3515  0.3358
   57CHL1  H12A 6656   0.241   5.011   9.576 -0.5928 -0.9717  0.1341
   57CHL1  H12B 6657   0.222   5.182   9.630  0.5871 -0.5793 -1.2557
   57CHL1   C11 6658   0.188   5.022   9.777 -0.2677 -0.2218 -0.2846
   57CHL1  H11A 6659   0.171   4.912   9.779  1.0669 -0.4480  1.7949
   57CHL1  H11B 6660   0.292   5.043   9.811  0.7265 -1.6324 -2.2592
   57CHL1    C9 6661   0.088   5.097   9.877  0.4365 -0.2983 -0.5536
   57CHL1    H9 6662   0.117   5.204   9.882 -3.0884  0.8626 -1.4435
   57CHL1   C10 6663   0.095   5.047  10.020 -1.0882 -0.3179 -0.3907
   57CHL1   C19 6664   0.099   4.891  10.030 -0.5359  0.1057 -0.1999
   57CHL1  H19A 6665   0.076   4.841  10.126 -0.3763 -0.6165 -0.5299
   57CHL1  H19B 6666   0.025   4.845   9.960 -1.4365  0.7202  0.3157
   57CHL1  H19C 6667   0.203   4.865  10.001 -0.6076 -1.5077  0.8387
   57CHL1    C1 6668   0.234   5.092  10.090  0.3898 -0.1570  0.4487
   57CHL1   H1A 6669   0.312   5.023  10.052 -0.3368 -0.3285 -0.7829
   57CHL1   H1B 6670   0.252   5.194  10.049  0.2476  0.2853  1.4449
   57CHL1    C2 6671   0.245   5.099  10.241 -0.0522 -0.1841 -0.2875
   57CHL1   H2A 6672   0.331   5.154  10.284 -0.4303  0.1674  0.0399
   57CHL1   H2B 6673   0.240   4.994  10.276 -0.0193 -0.0223  0.2040
   57CHL1   C20 6674   0.040   5.067   9.315  0.3023  0.9678  0.4467
   57CHL1   H20 6675  -0.001   4.964   9.324 -0.2464  0.9042 -2.0852
   57CHL1   C21 6676   0.194   5.050   9.291 -0.3105 -0.7598  0.2111
   57CHL1  H21A 6677   0.227   5.033   9.186  0.2878 -0.1339  0.2894
   57CHL1  H21B 6678   0.238   4.976   9.361  1.7343 -0.6080 -0.8338
   57CHL1  H21C 6679   0.240   5.148   9.315 -1.2498 -0.4526  0.7940
   57CHL1   C22 6680  -0.022   5.135   9.192 -0.0514 -0.3658  0.1603
   57CHL1  H22A 6681  -0.131   5.146   9.207 -0.1908 -0.2725 -0.8839
   57CHL1  H22B 6682   0.018   5.237   9.176  0.2959 -0.5777 -0.3506
   57CHL1   C23 6683  -0.006   5.061   9.058  0.0765 -0.2218 -0.0987
   57CHL1  H23A 6684  -0.088   5.097   8.992  0.2947  0.9442  0.2301
   57CHL1  H23B 6685   0.091   5.073   9.006  0.6655 -0.8893  0.8118
   57CHL1   C24 6686  -0.047   4.916   9.072 -0.4099  0.0288  0.3601
   57CHL1  H24A 6687   0.030   4.869   9.136 -1.8345 -1.7442  0.8636
   57CHL1  H24B 6688  -0.143   4.905   9.128  0.0917 -4.0683  0.6623
   57CHL1   C25 6689  -0.053   4.835   8.937 -0.1634 -0.3291  0.1809
   57CHL1   H25 6690   0.040   4.834   8.876 -0.4752  0.9840 -0.3707
   57CHL1   C26 6691  -0.075   4.687   8.964 -0.2117 -0.1536 -0.5702
   57CHL1  H26A 6692  -0.184   4.671   8.979 -0.7724  0.4758 -3.3183
   57CHL1  H26B 6693  -0.052   4.621   8.877  1.1352 -0.4569 -0.0104
   57CHL1  H26C 6694  -0.021   4.646   9.052 -0.0597  0.9269 -0.1546
   57CHL1   C27 6695  -0.168   4.884   8.845 -0.2921  0.0474  0.3946
   57CHL1  H27A 6696  -0.143   4.981   8.798 -1.2009  0.1686  0.1507
   57CHL1  H27B 6697  -0.171   4.813   8.759 -0.3007 -0.3569  0.7247
   57CHL1  H27C 6698  -0.267   4.880   8.895 -0.9498  0.4647 -0.8527
   58CHL1    C3 6699   2.976   3.950  10.296 -1.2399  0.2324  0.7539
   58CHL1    H3 6700   2.927   3.850  10.296  0.9065 -0.9011  0.4927
   58CHL1    O3 6701   2.966   4.008  10.422  0.4620  0.2880  0.3244
   58CHL1   H3' 6702   3.028   4.081  10.426  0.5364  0.3831 -1.5046
   58CHL1    C4 6703   3.126   3.929  10.249  0.0204 -0.4001 -0.0122
   58CHL1   H4A 6704   3.176   4.027  10.260 -0.8567  0.0984 -0.3686
   58CHL1   H4B 6705   3.181   3.864  10.321  0.1026 -0.9673 -0.5809
   58CHL1    C5 6706   3.133   3.880  10.103  0.9034  0.1318 -0.0287
   58CHL1    C6 6707   3.209   3.772  10.068  0.2640 -0.1693 -0.1031
   58CHL1    H6 6708   3.270   3.722  10.145  0.7283 -1.9187 -1.5298
   58CHL1    C7 6709   3.221   3.724   9.925  0.4967 -0.1116  0.0850
   58CHL1   H7A 6710   3.320   3.688   9.890 -0.4174  0.9818 -4.2997
   58CHL1   H7B 6711   3.158   3.633   9.913  0.0832  0.1096  0.5403
   58CHL1    C8 6712   3.172   3.829   9.821 -0.0115  0.0650  1.1081
   58CHL1    H8 6713   3.257   3.900   9.815 -0.0503 -0.0290 -2.1552
   58CHL1   C14 6714   3.145   3.755   9.694 -0.6253  0.9324  0.4642
   58CHL1   H14 6715   3.063   3.682   9.710  1.1398 -1.5717 -1.0769
   58CHL1   C15 6716   3.256   3.664   9.638 -0.6413 -0.4638 -0.3534
   58CHL1  H15A 6717   3.348   3.722   9.658 -1.1570  0.8559 -1.6227
   58CHL1  H15B 6718   3.265   3.575   9.705 -2.0560 -0.1234  0.3516
   58CHL1   C16 6719   3.223   3.638   9.492  0.0841 -0.4481  0.2476
   58CHL1  H16A 6720   3.318   3.670   9.444 -2.4762  3.6497 -2.6944
   58CHL1  H16B 6721   3.190   3.533   9.477 -0.1172 -0.1574 -1.5130
   58CHL1   C17 6722   3.108   3.741   9.456 -0.5530 -1.2131  0.5388
   58CHL1   H17 6723   3.012   3.687   9.470 -0.5830 -0.9261  1.5171
   58CHL1   C13 6724   3.100   3.845   9.575  0.0538  1.1660 -0.0383
   58CHL1   C18 6725   3.197   3.959   9.552 -0.5082  0.2483  0.0355
   58CHL1  H18A 6726   3.155   4.024   9.472 -1.7391 -1.0625 -0.4246
   58CHL1  H18B 6727   3.217   4.019   9.644  1.5612 -1.1679  0.5714
   58CHL1  H18C 6728   3.288   3.916   9.506 -0.5037  1.1616 -0.8575
   58CHL1   C12 6729   2.971   3.909   9.608 -0.2982  0.8918 -0.1438
   58CHL1  H12A 6730   2.943   3.987   9.535 -5.0017 -2.1134 -2.0415
   58CHL1  H12B 6731   2.888   3.836   9.608  0.1424  0.3730 -1.0644
   58CHL1   C11 6732   2.979   3.979   9.746  0.0294  0.1248  0.1746
   58CHL1  H11A 6733   3.025   4.080   9.737 -1.1124  0.6820  0.3880
   58CHL1  H11B 6734   2.874   3.993   9.781 -0.0027 -0.7936  0.4638
   58CHL1    C9 6735   3.043   3.892   9.861  0.3314  0.4802 -0.3494
   58CHL1    H9 6736   2.983   3.800   9.878  1.9759 -0.6303 -0.3269
   58CHL1   C10 6737   3.052   3.957  10.003 -0.2939  1.0424 -0.3381
   58CHL1   C19 6738   3.126   4.099   9.998 -0.0734 -0.1589  0.1167
   58CHL1  H19A 6739   3.086   4.153   9.910  0.2264  0.3629  0.2945
   58CHL1  H19B 6740   3.108   4.156  10.091  0.9343 -0.0168  0.2368
   58CHL1  H19C 6741   3.235   4.082   9.982 -0.2048  0.1023 -1.1263
   58CHL1    C1 6742   2.913   3.981  10.054  1.3906 -0.4504 -0.6047
   58CHL1   H1A 6743   2.868   4.064   9.995 -1.1659 -1.1384  0.2789
   58CHL1   H1B 6744   2.862   3.883  10.044 -0.3485  0.5172 -1.7911
   58CHL1    C2 6745   2.894   4.033  10.197 -0.3516  0.3761 -0.5899
   58CHL1   H2A 6746   2.786   4.039  10.224 -0.0667  3.7986  0.2098
   58CHL1   H2B 6747   2.927   4.137  10.216  0.9046 -0.2368  0.7313
   58CHL1   C20 6748   3.112   3.802   9.308 -0.0654 -0.0102 -0.5380
   58CHL1   H20 6749   3.178   3.892   9.302 -1.3056  0.9083 -0.8028
   58CHL1   C21 6750   2.973   3.850   9.266  0.4564 -0.2245 -0.1473
   58CHL1  H21A 6751   2.973   3.878   9.159 -0.9528  1.2170  0.1965
   58CHL1  H21B 6752   2.944   3.941   9.323  0.4894  0.6053 -1.4055
   58CHL1  H21C 6753   2.901   3.767   9.280  0.6813 -0.5252 -0.7550
   58CHL1   C22 6754   3.164   3.688   9.215  0.1678  0.0588 -0.0986
   58CHL1  H22A 6755   3.164   3.727   9.111  0.3957  0.6815  0.1285
   58CHL1  H22B 6756   3.267   3.655   9.241 -0.1630 -1.9448 -1.1324
   58CHL1   C23 6757   3.074   3.566   9.194 -0.1655  0.8625 -0.7318
   58CHL1  H23A 6758   3.043   3.532   9.295  1.1093 -1.1942 -0.9799
   58CHL1  H23B 6759   2.980   3.601   9.147 -1.3059 -0.6796  0.2839
   58CHL1   C24 6760   3.137   3.449   9.107 -0.2551  0.5419  0.0432
   58CHL1  H24A 6761   3.241   3.428   9.141  0.4235 -0.6577 -2.4922
   58CHL1  H24B 6762   3.087   3.352   9.122 -3.6111  1.8583 -1.6097
   58CHL1   C25 6763   3.149   3.475   8.952  0.3455 -0.2146 -0.2345
   58CHL1   H25 6764   3.231   3.549   8.940 -1.2383  1.8400  0.9576
   58CHL1   C26 6765   3.183   3.340   8.877  0.3842 -0.0975  0.0946
   58CHL1  H26A 6766   3.270   3.298   8.932 -0.2437  0.6219  1.7235
   58CHL1  H26B 6767   3.105   3.262   8.889  0.6294 -0.0074  3.1580
   58CHL1  H26C 6768   3.211   3.359   8.771  0.4379 -1.1231 -0.0809
   58CHL1   C27 6769   3.018   3.536   8.895  0.4109  1.0223  0.5435
   58CHL1  H27A 6770   2.923   3.483   8.922  0.2565  0.5714 -0.8041
   58CHL1  H27B 6771   3.015   3.637   8.940  0.3817  0.7173  1.2370
   58CHL1  H27C 6772   3.030   3.554   8.786  1.3806 -0.0128  0.4574
   59CHL1    C3 6773   2.390   3.065  10.352 -0.4849 -0.1923  0.5168
   59CHL1    H3 6774   2.281   3.058  10.331 -0.2887  3.1558 -2.4489
   59CHL1    O3 6775   2.416   3.087  10.490  0.4052 -0.6928 -0.8659
   59CHL1   H3' 6776   2.351   3.031  10.534 -0.4037 -0.0149 -1.1874
   59CHL1    C4 6777   2.476   2.945  10.309  0.0235  0.2591  0.1686
   59CHL1   H4A 6778   2.584   2.964  10.330  0.1112  0.1154 -0.1442
   59CHL1   H4B 6779   2.452   2.854  10.368 -2.5851  1.4191  1.0531
   59CHL1    C5 6780   2.473   2.925  10.153 -0.9879  0.4444  0.0655
   59CHL1    C6 6781   2.447   2.805  10.099  0.0735  0.1581  0.1482
   59CHL1    H6 6782   2.444   2.723  10.172  0.5071 -0.8037 -0.8846
   59CHL1    C7 6783   2.451   2.769   9.953  0.4588 -0.6690 -0.1100
   59CHL1   H7A 6784   2.518   2.682   9.935  2.0206 -0.2565  2.9609
   59CHL1   H7B 6785   2.354   2.719   9.936  0.4389 -1.2298  1.4192
   59CHL1    C8 6786   2.490   2.888   9.862  0.1249 -0.2727  0.3288
   59CHL1    H8 6787   2.600   2.879   9.859  0.4448  2.6672 -0.6019
   59CHL1   C14 6788   2.425   2.882   9.726 -0.4416 -0.2068  0.7016
   59CHL1   H14 6789   2.316   2.903   9.739 -0.3375 -0.8670  3.1807
   59CHL1   C15 6790   2.433   2.743   9.661 -0.1950 -0.5817  0.2351
   59CHL1  H15A 6791   2.539   2.710   9.674  0.5633  1.4561 -0.3975
   59CHL1  H15B 6792   2.359   2.677   9.712  0.2084  1.4690  3.8300
   59CHL1   C16 6793   2.393   2.773   9.518 -0.0161  0.5060 -1.0009
   59CHL1  H16A 6794   2.474   2.722   9.463  0.2018 -0.6791  0.3722
   59CHL1  H16B 6795   2.298   2.728   9.482  0.6656 -1.8559 -0.0364
   59CHL1   C17 6796   2.385   2.926   9.496  1.0154 -0.1110  0.6930
   59CHL1   H17 6797   2.279   2.955   9.510  1.0703  1.0753 -1.0050
   59CHL1   C13 6798   2.466   2.983   9.619 -0.0054  0.1566  0.3954
   59CHL1   C18 6799   2.617   2.969   9.591  0.1715 -0.7268 -0.2506
   59CHL1  H18A 6800   2.663   3.058   9.543  0.3601 -1.1986 -0.9620
   59CHL1  H18B 6801   2.660   2.958   9.693 -0.7470 -0.7412  0.1531
   59CHL1  H18C 6802   2.639   2.874   9.539 -0.0599 -0.3250 -1.0992
   59CHL1   C12 6803   2.438   3.124   9.675 -0.0329 -0.0200  0.0138
   59CHL1  H12A 6804   2.479   3.200   9.605  0.2248 -0.9772 -0.8970
   59CHL1  H12B 6805   2.330   3.146   9.677 -0.3086 -0.9705 -2.0236
   59CHL1   C11 6806   2.486   3.148   9.817 -0.2407  0.0678  0.1583
   59CHL1  H11A 6807   2.596   3.134   9.812 -0.4133 -0.9807 -2.7425
   59CHL1  H11B 6808   2.459   3.249   9.854  0.0038 -0.9146  3.3039
   59CHL1    C9 6809   2.447   3.032   9.919 -0.2139 -0.1342 -0.5228
   59CHL1    H9 6810   2.336   3.034   9.921 -0.2278  0.4241 -1.3664
   59CHL1   C10 6811   2.497   3.049  10.068 -0.5739 -0.4332  0.1377
   59CHL1   C19 6812   2.650   3.073  10.066  0.5305  0.6200 -0.5568
   59CHL1  H19A 6813   2.694   2.977  10.031 -1.6063 -0.0098 -1.7395
   59CHL1  H19B 6814   2.677   3.161  10.004 -1.3798 -0.1319 -2.6109
   59CHL1  H19C 6815   2.691   3.096  10.166 -0.8555  1.2837 -0.1109
   59CHL1    C1 6816   2.428   3.170  10.124 -0.7586 -0.3341 -0.1759
   59CHL1   H1A 6817   2.476   3.264  10.088 -1.7702  0.7053  1.0851
   59CHL1   H1B 6818   2.322   3.188  10.098 -0.5193  3.2440  0.6788
   59CHL1    C2 6819   2.450   3.188  10.279 -0.5970 -0.4817 -0.1106
   59CHL1   H2A 6820   2.416   3.288  10.314  1.1233  0.2537 -0.4741
   59CHL1   H2B 6821   2.557   3.200  10.306 -1.1152  0.8661  1.5140
   59CHL1   C20 6822   2.415   2.967   9.351 -0.2242  0.0982 -0.2734
   59CHL1   H20 6823   2.523   2.975   9.330 -0.3520 -0.5550 -1.2634
   59CHL1   C21 6824   2.357   3.108   9.340 -0.0045  0.4149 -0.3668
   59CHL1  H21A 6825   2.385   3.163   9.247  0.3632 -1.5967 -1.5022
   59CHL1  H21B 6826   2.389   3.179   9.419 -0.1343 -0.5346  0.5551
   59CHL1  H21C 6827   2.248   3.089   9.348  0.4061 -1.5884  1.0722
   59CHL1   C22 6828   2.344   2.880   9.243 -0.1616  0.1696  0.5316
   59CHL1  H22A 6829   2.387   2.777   9.241  0.8317  0.5694  0.5441
   59CHL1  H22B 6830   2.237   2.860   9.266 -1.0133  3.3430 -0.2163
   59CHL1   C23 6831   2.363   2.941   9.102 -0.0080  0.0192 -0.2111
   59CHL1  H23A 6832   2.296   3.029   9.091 -1.0564 -0.6775  0.4503
   59CHL1  H23B 6833   2.468   2.976   9.093 -0.2402  0.6649 -0.4264
   59CHL1   C24 6834   2.317   2.849   8.987  0.3746  0.0619 -0.4531
   59CHL1  H24A 6835   2.383   2.760   8.986  0.9106  0.3786  1.8093
   59CHL1  H24B 6836   2.219   2.802   9.011  1.4127 -1.1799  1.6094
   59CHL1   C25 6837   2.299   2.914   8.846 -0.8871 -0.1910 -0.0781
   59CHL1   H25 6838   2.218   2.988   8.855 -0.7989 -0.0122 -0.6794
   59CHL1   C26 6839   2.425   2.984   8.788 -0.9376  0.2915  0.7670
   59CHL1  H26A 6840   2.481   2.905   8.733  1.2594  2.0029  0.4103
   59CHL1  H26B 6841   2.400   3.057   8.709 -2.2061 -1.2210 -0.3055
   59CHL1  H26C 6842   2.487   3.027   8.869  0.8005  1.1858 -0.9610
   59CHL1   C27 6843   2.251   2.801   8.747  0.1043 -0.3109  0.5101
   59CHL1  H27A 6844   2.206   2.845   8.656 -1.2482 -1.0695  0.7962
   59CHL1  H27B 6845   2.338   2.740   8.715  1.2295  1.7610 -0.5933
   59CHL1  H27C 6846   2.180   2.743   8.810  0.7535  1.4347  3.0145
   60CHL1    C3 6847   6.618   2.625  10.372 -0.1649 -0.0644  0.1190
   60CHL1    H3 6848   6.695   2.564  10.320 -0.4394  0.1103 -0.5010
   60CHL1    O3 6849   6.632   2.640  10.508  0.1360 -0.3424  0.1263
   60CHL1   H3' 6850   6.579   2.717  10.531 -1.6475 -1.1490 -1.0343
   60CHL1    C4 6851   6.615   2.759  10.301  0.1208 -0.9425 -0.1764
   60CHL1   H4A 6852   6.546   2.816  10.367 -0.0680 -0.8239 -0.4788
   60CHL1   H4B 6853   6.713   2.812  10.307 -0.8911  1.0371 -0.3203
   60CHL1    C5 6854   6.562   2.749  10.155 -0.0599 -0.4541  0.1166
   60CHL1    C6 6855   6.627   2.808  10.052 -0.2456  0.8899 -0.5059
   60CHL1    H6 6856   6.716   2.870  10.068  0.2238  0.2576 -0.6670
   60CHL1    C7 6857   6.578   2.798   9.912  0.1716  0.4803 -0.5194
   60CHL1   H7A 6858   6.583   2.897   9.862  0.9758 -0.2023 -1.8678
   60CHL1   H7B 6859   6.649   2.731   9.858 -0.6127  0.0417 -1.0291
   60CHL1    C8 6860   6.432   2.741   9.895 -0.2901 -0.2914 -0.0025
   60CHL1    H8 6861   6.363   2.823   9.923 -0.0666  0.4614 -1.5651
   60CHL1   C14 6862   6.404   2.706   9.754  0.0014  0.3034 -0.0917
   60CHL1   H14 6863   6.475   2.622   9.738 -0.5131 -0.1530 -0.0109
   60CHL1   C15 6864   6.438   2.801   9.645 -0.0638 -0.3657  0.1285
   60CHL1  H15A 6865   6.421   2.898   9.696 -2.8309 -2.3749  3.5110
   60CHL1  H15B 6866   6.545   2.792   9.616  0.8105 -1.8402  3.3398
   60CHL1   C16 6867   6.356   2.760   9.525  0.6617  0.7328 -0.0189
   60CHL1  H16A 6868   6.277   2.837   9.510  0.1993  0.1075 -0.9465
   60CHL1  H16B 6869   6.422   2.751   9.436 -1.0441  1.5817 -1.4360
   60CHL1   C17 6870   6.270   2.637   9.568 -0.2035  0.1981 -0.1521
   60CHL1   H17 6871   6.330   2.545   9.551  0.7199  0.8597 -0.5814
   60CHL1   C13 6872   6.257   2.652   9.726 -0.0824  0.7846 -0.0226
   60CHL1   C18 6873   6.157   2.759   9.760 -0.1132  0.1470  0.3880
   60CHL1  H18A 6874   6.155   2.782   9.868  1.1479 -0.8897  0.6526
   60CHL1  H18B 6875   6.184   2.854   9.710 -0.2793  0.5726  1.1092
   60CHL1  H18C 6876   6.052   2.728   9.736 -0.3405 -0.7058  2.3331
   60CHL1   C12 6877   6.248   2.525   9.802  0.3003 -0.1832 -0.3158
   60CHL1  H12A 6878   6.153   2.470   9.787  0.0302  0.4963 -1.1851
   60CHL1  H12B 6879   6.331   2.456   9.773  1.5864  0.9292  0.5545
   60CHL1   C11 6880   6.272   2.549   9.951  0.4407  0.3025  0.6642
   60CHL1  H11A 6881   6.184   2.605   9.991 -0.8593 -1.3996  0.3260
   60CHL1  H11B 6882   6.281   2.449  10.000 -1.3314 -1.8400 -2.9673
   60CHL1    C9 6883   6.406   2.620   9.986 -0.0821 -0.6871  0.1571
   60CHL1    H9 6884   6.487   2.552   9.952  1.2110  0.1041  1.5573
   60CHL1   C10 6885   6.435   2.663  10.136 -0.1308  0.0515  0.2976
   60CHL1   C19 6886   6.318   2.745  10.190  0.1613 -0.1672  0.2428
   60CHL1  H19A 6887   6.340   2.756  10.298  3.8721 -1.1241 -0.2714
   60CHL1  H19B 6888   6.315   2.843  10.137  1.8688 -0.6428 -0.8198
   60CHL1  H19C 6889   6.219   2.699  10.169  1.5201 -2.0924 -2.6081
   60CHL1    C1 6890   6.453   2.528  10.216 -0.1131  1.0307  0.2325
   60CHL1   H1A 6891   6.349   2.489  10.223  1.0808 -3.1782 -2.1294
   60CHL1   H1B 6892   6.516   2.459  10.156  0.2342 -0.3387  2.0593
   60CHL1    C2 6893   6.495   2.538  10.356  0.4128  0.1442 -0.3679
   60CHL1   H2A 6894   6.504   2.443  10.413 -1.2065  0.1276 -0.0823
   60CHL1   H2B 6895   6.417   2.595  10.411 -0.7249  0.5555 -2.3149
   60CHL1   C20 6896   6.135   2.636   9.497 -0.1400  0.0163 -0.1670
   60CHL1   H20 6897   6.082   2.731   9.516  1.3908  0.6528  1.1702
   60CHL1   C21 6898   6.042   2.524   9.547  0.5141  0.7075  0.0511
   60CHL1  H21A 6899   6.089   2.425   9.526 -1.8612  0.0817 -2.9471
   60CHL1  H21B 6900   5.950   2.528   9.485  0.2954  2.2581  0.4391
   60CHL1  H21C 6901   6.010   2.529   9.653  1.6342  1.0991  0.3898
   60CHL1   C22 6902   6.149   2.625   9.343  0.1303 -0.1473  0.3701
   60CHL1  H22A 6903   6.044   2.628   9.307  0.0333  0.8064  0.6941
   60CHL1  H22B 6904   6.195   2.715   9.296 -0.4516 -0.5624 -1.0651
   60CHL1   C23 6905   6.220   2.502   9.285 -0.0180  0.1275  0.2240
   60CHL1  H23A 6906   6.328   2.525   9.274 -0.3466  2.5581  1.3380
   60CHL1  H23B 6907   6.197   2.413   9.348 -0.1490 -1.6270 -2.1408
   60CHL1   C24 6908   6.166   2.474   9.141 -0.4407  0.7891 -0.0991
   60CHL1  H24A 6909   6.060   2.442   9.148 -0.2638  0.1202 -0.4048
   60CHL1  H24B 6910   6.167   2.560   9.070  1.1555  0.6391 -0.2754
   60CHL1   C25 6911   6.239   2.362   9.055 -0.5678 -0.0186  0.3454
   60CHL1   H25 6912   6.340   2.406   9.047 -0.7932  0.4770  0.1613
   60CHL1   C26 6913   6.251   2.223   9.111 -0.0545  0.0371 -0.1867
   60CHL1  H26A 6914   6.233   2.213   9.220 -1.0386 -3.6937 -0.5597
   60CHL1  H26B 6915   6.176   2.154   9.067 -0.4828 -0.8911  1.9304
   60CHL1  H26C 6916   6.348   2.181   9.076 -1.4903 -2.4640 -1.5089
   60CHL1   C27 6917   6.185   2.360   8.916 -0.5007  0.1145 -0.3768
   60CHL1  H27A 6918   6.075   2.342   8.913 -0.6125  0.8238 -2.3213
   60CHL1  H27B 6919   6.212   2.457   8.868  0.1143 -0.6709 -1.6673
   60CHL1  H27C 6920   6.236   2.275   8.866 -0.9640  0.5622 -1.6640
   61CHL1    C3 6921   4.315   1.659  10.359 -1.0089 -0.6747 -0.0458
   61CHL1    H3 6922   4.238   1.731  10.322 -0.4282  0.6824  1.2687
   61CHL1    O3 6923   4.280   1.650  10.494 -1.1569  0.0648 -0.2204
   61CHL1   H3' 6924   4.365   1.620  10.525 -0.5556  1.3387 -0.5701
   61CHL1    C4 6925   4.304   1.517  10.299 -0.1526 -0.0179  0.5718
   61CHL1   H4A 6926   4.382   1.461  10.355 -0.4224 -1.3795 -0.3761
   61CHL1   H4B 6927   4.208   1.463  10.316 -0.8042  0.6536 -0.8159
   61CHL1    C5 6928   4.357   1.520  10.158 -0.5638 -0.0095 -0.1992
   61CHL1    C6 6929   4.269   1.469  10.067  0.4138 -0.5128 -0.6461
   61CHL1    H6 6930   4.167   1.443  10.098  0.0359  2.3478  0.8989
   61CHL1    C7 6931   4.299   1.466   9.920  0.2605  0.5215 -0.3977
   61CHL1   H7A 6932   4.281   1.369   9.871  0.8204  1.2983 -2.2295
   61CHL1   H7B 6933   4.248   1.550   9.867 -1.5855  0.3888  1.1011
   61CHL1    C8 6934   4.452   1.501   9.883 -0.3442  0.2466  0.0028
   61CHL1    H8 6935   4.510   1.407   9.898 -0.0853  0.0959 -1.7094
   61CHL1   C14 6936   4.457   1.545   9.734  0.4303  0.0922  0.4138
   61CHL1   H14 6937   4.403   1.642   9.727 -0.9628 -0.6722  0.2773
   61CHL1   C15 6938   4.389   1.455   9.627  0.3322 -0.0253  0.1874
   61CHL1  H15A 6939   4.419   1.348   9.631  0.2402 -0.1527 -1.6259
   61CHL1  H15B 6940   4.279   1.471   9.614  0.8276  3.5933 -0.7170
   61CHL1   C16 6941   4.444   1.512   9.503 -0.1599 -1.3187 -0.0984
   61CHL1  H16A 6942   4.473   1.440   9.423  0.1314 -0.4507 -0.7821
   61CHL1  H16B 6943   4.365   1.576   9.457  3.1465  2.1616 -1.4172
   61CHL1   C17 6944   4.569   1.602   9.544 -0.2891  0.1886  0.1227
   61CHL1   H17 6945   4.544   1.709   9.530 -0.2184  0.1641 -0.2012
   61CHL1   C13 6946   4.599   1.573   9.691  0.3826  0.1843  0.3299
   61CHL1   C18 6947   4.689   1.450   9.703 -0.3355  0.4005  0.3354
   61CHL1  H18A 6948   4.796   1.473   9.686 -0.7215  1.9719 -0.1091
   61CHL1  H18B 6949   4.708   1.413   9.806  0.0963 -0.5377 -0.0668
   61CHL1  H18C 6950   4.657   1.355   9.656  1.2896 -0.5331  1.0399
   61CHL1   C12 6951   4.651   1.697   9.774 -0.2974 -0.1983  0.5035
   61CHL1  H12A 6952   4.755   1.717   9.740  0.8280 -1.2440  3.0872
   61CHL1  H12B 6953   4.591   1.785   9.741 -0.4278 -1.1272 -1.9959
   61CHL1   C11 6954   4.649   1.665   9.926  0.7836  0.7391  0.2428
   61CHL1  H11A 6955   4.720   1.585   9.954  0.1520 -0.6852 -1.9192
   61CHL1  H11B 6956   4.677   1.760   9.975 -1.9911  1.3097  0.8990
   61CHL1    C9 6957   4.511   1.614   9.970 -0.1079  0.3460 -0.4411
   61CHL1    H9 6958   4.439   1.697   9.955 -1.7934 -1.0592 -0.4468
   61CHL1   C10 6959   4.496   1.585  10.124 -0.2529 -0.4430  0.2145
   61CHL1   C19 6960   4.597   1.473  10.172  0.4271  0.4901  0.1251
   61CHL1  H19A 6961   4.580   1.437  10.276  0.9035 -0.8732 -0.2436
   61CHL1  H19B 6962   4.594   1.391  10.097 -1.1627  0.5249  0.1209
   61CHL1  H19C 6963   4.699   1.516  10.163  0.2296  1.0259  0.4134
   61CHL1    C1 6964   4.508   1.711  10.202 -0.0545  0.1346 -0.5614
   61CHL1   H1A 6965   4.615   1.740  10.193 -0.0977  1.1735  1.6212
   61CHL1   H1B 6966   4.450   1.790  10.150  0.5631  0.9401 -0.0453
   61CHL1    C2 6967   4.456   1.719  10.343 -0.1351  0.6683  0.0725
   61CHL1   H2A 6968   4.451   1.826  10.374  0.6863  1.1608 -1.4288
   61CHL1   H2B 6969   4.533   1.665  10.401  0.0689 -1.5327 -2.1189
   61CHL1   C20 6970   4.683   1.569   9.439  0.8883 -0.9121  0.0225
   61CHL1   H20 6971   4.714   1.465   9.459  1.9427 -1.1662 -2.5983
   61CHL1   C21 6972   4.802   1.657   9.467  0.5227 -0.1156 -0.3377
   61CHL1  H21A 6973   4.765   1.761   9.474 -3.1798 -1.1031 -2.3823
   61CHL1  H21B 6974   4.881   1.638   9.391 -1.8393 -4.3321 -2.1326
   61CHL1  H21C 6975   4.857   1.624   9.558  1.4336 -0.4457 -0.9876
   61CHL1   C22 6976   4.647   1.595   9.291 -0.2989 -0.1009  0.0121
   61CHL1  H22A 6977   4.543   1.566   9.267 -0.0554 -0.0567 -1.1721
   61CHL1  H22B 6978   4.640   1.705   9.282  2.8651  0.2511  0.5248
   61CHL1   C23 6979   4.749   1.528   9.195 -1.0998  0.5808  0.4163
   61CHL1  H23A 6980   4.851   1.570   9.205 -0.9335 -0.0992  1.8378
   61CHL1  H23B 6981   4.759   1.420   9.219  2.7470  0.7326  0.0903
   61CHL1   C24 6982   4.714   1.533   9.043  0.6007  0.0336  0.9924
   61CHL1  H24A 6983   4.624   1.478   9.008  1.3779 -0.1576 -0.8463
   61CHL1  H24B 6984   4.680   1.637   9.026  1.7586 -0.0877 -3.1758
   61CHL1   C25 6985   4.822   1.501   8.941 -0.1476 -0.3434 -0.3209
   61CHL1   H25 6986   4.865   1.403   8.971  0.0537 -0.3041 -0.4763
   61CHL1   C26 6987   4.772   1.480   8.797 -1.0348  0.1185  0.3602
   61CHL1  H26A 6988   4.850   1.475   8.719 -2.2381  1.5377 -0.9941
   61CHL1  H26B 6989   4.707   1.389   8.793  2.1749 -2.3513  0.4686
   61CHL1  H26C 6990   4.715   1.569   8.765 -4.1847 -2.3219 -1.3930
   61CHL1   C27 6991   4.938   1.605   8.941  0.1310 -0.4364 -1.4201
   61CHL1  H27A 6992   4.982   1.642   9.036  0.5029  0.1111 -1.8025
   61CHL1  H27B 6993   5.018   1.562   8.878  0.3830 -0.2197 -1.2475
   61CHL1  H27C 6994   4.889   1.700   8.911  1.4710  1.8254  2.7446
   62CHL1    C3 6995   5.559   5.145  10.186 -0.6333  0.2382 -0.9000
   62CHL1    H3 6996   5.623   5.236  10.179  2.6178 -1.7732  0.2560
   62CHL1    O3 6997   5.528   5.122  10.323 -0.0597 -0.2710 -0.0444
   62CHL1   H3' 6998   5.470   5.198  10.330  0.6558  0.3630 -0.7445
   62CHL1    C4 6999   5.441   5.155  10.103  0.6137 -0.8708  1.0428
   62CHL1   H4A 7000   5.378   5.064  10.106 -0.4495 -0.5188 -3.4780
   62CHL1   H4B 7001   5.384   5.242  10.141  1.1822 -1.2358  2.7908
   62CHL1    C5 7002   5.480   5.169   9.967  1.3547  0.0679 -0.1449
   62CHL1    C6 7003   5.458   5.281   9.902 -0.0800 -1.0294  0.8385
   62CHL1    H6 7004   5.398   5.361   9.948 -1.8078 -1.1128 -1.1291
   62CHL1    C7 7005   5.476   5.297   9.758  0.1815 -0.2861  0.9415
   62CHL1   H7A 7006   5.387   5.329   9.700 -1.8607 -4.4817  1.3509
   62CHL1   H7B 7007   5.553   5.376   9.744 -1.1174  0.7738 -0.6167
   62CHL1    C8 7008   5.525   5.171   9.678  0.6090  0.3085 -0.0189
   62CHL1    H8 7009   5.427   5.123   9.656  0.4151  0.9171 -0.5431
   62CHL1   C14 7010   5.576   5.202   9.537  0.3301 -0.6342 -0.4355
   62CHL1   H14 7011   5.653   5.281   9.554  0.4647 -1.1010  1.3259
   62CHL1   C15 7012   5.485   5.281   9.445  0.1651  0.1859  0.0281
   62CHL1  H15A 7013   5.387   5.232   9.464  0.8532 -1.1911  0.1478
   62CHL1  H15B 7014   5.480   5.386   9.482  0.6554 -0.0130  0.6845
   62CHL1   C16 7015   5.542   5.247   9.310  0.6129 -0.3481  0.1571
   62CHL1  H16A 7016   5.462   5.232   9.234  0.8055  0.6639 -0.2626
   62CHL1  H16B 7017   5.595   5.339   9.275 -2.5220  1.6837  0.3542
   62CHL1   C17 7018   5.651   5.135   9.323 -0.6796 -0.1974 -0.2194
   62CHL1   H17 7019   5.743   5.194   9.338  0.2957 -1.9312  0.9835
   62CHL1   C13 7020   5.622   5.075   9.461 -0.0745 -0.4450 -0.2155
   62CHL1   C18 7021   5.506   4.979   9.446 -0.2666 -0.0205  0.5947
   62CHL1  H18A 7022   5.551   4.895   9.390  2.0746 -0.3647  2.7985
   62CHL1  H18B 7023   5.481   4.932   9.543 -2.0616  0.6170  0.4826
   62CHL1  H18C 7024   5.408   5.016   9.409 -0.0841 -0.3680 -0.2529
   62CHL1   C12 7025   5.734   5.017   9.547 -0.1770  0.3104  0.0003
   62CHL1  H12A 7026   5.771   4.921   9.504  0.7147  1.1288 -1.0867
   62CHL1  H12B 7027   5.820   5.086   9.552 -0.8373  1.0801  3.5636
   62CHL1   C11 7028   5.687   4.973   9.692  0.0863  0.5381  1.2364
   62CHL1  H11A 7029   5.621   4.884   9.682 -1.8663  2.1095 -1.4109
   62CHL1  H11B 7030   5.777   4.951   9.753  0.2966 -0.5683  0.5455
   62CHL1    C9 7031   5.624   5.095   9.764  0.6863 -0.3408  0.1002
   62CHL1    H9 7032   5.708   5.166   9.783 -0.6492  1.4067 -0.3030
   62CHL1   C10 7033   5.570   5.056   9.901  0.3382 -0.0807 -0.3595
   62CHL1   C19 7034   5.474   4.939   9.874  0.7148  0.3721  0.6290
   62CHL1  H19A 7035   5.525   4.842   9.852 -0.8696 -0.2213 -0.5827
   62CHL1  H19B 7036   5.413   4.905   9.960 -1.6505 -0.1533 -1.1546
   62CHL1  H19C 7037   5.405   4.947   9.788  0.0971 -1.6790  0.8822
   62CHL1    C1 7038   5.694   5.024  10.000  0.3689 -0.8016 -0.2906
   62CHL1   H1A 7039   5.735   4.923   9.982  1.1717 -0.6409  0.5512
   62CHL1   H1B 7040   5.776   5.099   9.987 -1.7157  1.4563 -1.2043
   62CHL1    C2 7041   5.646   5.027  10.145 -0.1422  1.2155  0.3952
   62CHL1   H2A 7042   5.734   5.002  10.208  0.7540  1.6553 -0.6530
   62CHL1   H2B 7043   5.592   4.932  10.168  0.1516  1.3619  1.8168
   62CHL1   C20 7044   5.668   5.039   9.204  0.3111  0.6058  0.1452
   62CHL1   H20 7045   5.582   4.970   9.217  1.6285 -1.1247  0.0152
   62CHL1   C21 7046   5.798   4.946   9.218 -0.3285 -0.7615 -0.6839
   62CHL1  H21A 7047   5.856   4.977   9.308 -2.4878  1.7322 -0.0306
   62CHL1  H21B 7048   5.864   4.967   9.131  0.6408  1.5004  0.4966
   62CHL1  H21C 7049   5.767   4.839   9.215  1.5660 -1.4870  1.8637
   62CHL1   C22 7050   5.658   5.110   9.063 -0.2486 -0.3339  0.6023
   62CHL1  H22A 7051   5.582   5.191   9.069  1.0499  0.9459  0.4190
   62CHL1  H22B 7052   5.751   5.168   9.045 -0.6941 -0.1203 -1.1617
   62CHL1   C23 7053   5.636   5.019   8.939  0.1219 -0.4870 -0.7429
   62CHL1  H23A 7054   5.715   4.941   8.939 -1.2928 -1.9924  0.1941
   62CHL1  H23B 7055   5.546   4.958   8.962  0.1883 -0.0712  0.6941
   62CHL1   C24 7056   5.640   5.096   8.810  0.2408  0.4727  0.6076
   62CHL1  H24A 7057   5.535   5.111   8.778  0.5095 -0.1633 -0.6577
   62CHL1  H24B 7058   5.701   5.188   8.818  2.6148 -0.8824 -0.6448
   62CHL1   C25 7059   5.697   5.008   8.693 -0.4008 -0.4621  0.3207
   62CHL1   H25 7060   5.800   4.979   8.720 -0.5127  0.4933  1.9170
   62CHL1   C26 7061   5.613   4.888   8.659  0.2674 -0.2404  0.6242
   62CHL1  H26A 7062   5.581   4.832   8.749  0.1481  1.2480  1.5530
   62CHL1  H26B 7063   5.522   4.936   8.619 -0.4204  1.9736  4.3789
   62CHL1  H26C 7064   5.653   4.818   8.582 -3.1897 -0.6151 -1.0387
   62CHL1   C27 7065   5.716   5.101   8.572 -0.7945  0.6491 -0.0714
   62CHL1  H27A 7066   5.618   5.125   8.524 -1.2837  1.4817  1.2921
   62CHL1  H27B 7067   5.766   5.195   8.604  0.6200 -1.0807  3.3334
   62CHL1  H27C 7068   5.774   5.040   8.499 -2.7933 -2.2388  0.5596
   63CHL1    C3 7069   3.219   6.065  10.264 -0.1995  0.5659 -0.6812
   63CHL1    H3 7070   3.249   5.966  10.225  0.7784  1.4079 -2.1624
   63CHL1    O3 7071   3.199   6.057  10.408  0.1021  0.1985  0.1647
   63CHL1   H3' 7072   3.289   6.046  10.438 -0.4177  0.2034  1.8035
   63CHL1    C4 7073   3.340   6.158  10.235  0.0614 -0.1181  0.5793
   63CHL1   H4A 7074   3.309   6.258  10.271  0.1513  0.7857 -1.7267
   63CHL1   H4B 7075   3.426   6.121  10.294  0.5520 -0.7835 -0.5118
   63CHL1    C5 7076   3.367   6.169  10.087 -1.1040 -0.4387  0.3531
   63CHL1    C6 7077   3.489   6.142  10.040  0.2488  0.4054  0.3282
   63CHL1    H6 7078   3.568   6.110  10.110  1.2770  1.7766 -0.1663
   63CHL1    C7 7079   3.534   6.156   9.898 -0.3965 -1.0641  0.2608
   63CHL1   H7A 7080   3.629   6.213   9.903 -0.5965 -0.8019  1.1469
   63CHL1   H7B 7081   3.559   6.059   9.849  1.0074 -0.6972  0.2055
   63CHL1    C8 7082   3.432   6.253   9.812 -0.4141 -0.7331  0.0517
   63CHL1    H8 7083   3.459   6.356   9.846  1.0058  0.0261 -3.0494
   63CHL1   C14 7084   3.454   6.234   9.662  0.7674 -0.6853 -0.6642
   63CHL1   H14 7085   3.439   6.124   9.653 -0.8357 -0.5981  0.4267
   63CHL1   C15 7086   3.589   6.257   9.594 -0.1713 -0.0526 -0.5923
   63CHL1  H15A 7087   3.615   6.363   9.616  0.3158  0.3208 -2.6531
   63CHL1  H15B 7088   3.675   6.192   9.623 -1.6303 -2.1413 -0.7804
   63CHL1   C16 7089   3.560   6.246   9.447  0.8369 -0.3205  0.5296
   63CHL1  H16A 7090   3.622   6.328   9.406  0.0166 -0.0649 -0.2099
   63CHL1  H16B 7091   3.588   6.147   9.405 -1.3194 -1.6429  2.0252
   63CHL1   C17 7092   3.407   6.265   9.435 -0.5434 -0.7155  0.1858
   63CHL1   H17 7093   3.367   6.162   9.446 -2.9013  0.2940  2.2522
   63CHL1   C13 7094   3.355   6.309   9.577  0.4533  0.7607  0.1559
   63CHL1   C18 7095   3.367   6.467   9.582 -0.7627 -0.2134  0.2184
   63CHL1  H18A 7096   3.283   6.509   9.522  0.2621 -0.6638 -1.6269
   63CHL1  H18B 7097   3.367   6.495   9.689  0.9141 -1.6308  0.6165
   63CHL1  H18C 7098   3.462   6.507   9.541 -0.2276  0.2987  1.9013
   63CHL1   C12 7099   3.209   6.258   9.613 -0.5355  0.1924 -0.2078
   63CHL1  H12A 7100   3.126   6.300   9.552 -2.2995 -2.3354  0.2775
   63CHL1  H12B 7101   3.205   6.150   9.586  1.8998  0.5239 -2.2450
   63CHL1   C11 7102   3.184   6.275   9.762  0.4955  0.1465  0.2838
   63CHL1  H11A 7103   3.176   6.384   9.782  0.8377 -0.2046  2.4851
   63CHL1  H11B 7104   3.081   6.236   9.773 -0.3901  2.3960  0.6609
   63CHL1    C9 7105   3.283   6.211   9.854 -0.0904  0.6247  0.6701
   63CHL1    H9 7106   3.278   6.102   9.833 -1.8077  1.1523 -2.1081
   63CHL1   C10 7107   3.255   6.224  10.008 -0.4263 -0.3421  0.7699
   63CHL1   C19 7108   3.224   6.376  10.045  0.3584 -0.5362 -0.0522
   63CHL1  H19A 7109   3.240   6.399  10.152  3.2743  1.0266 -0.7310
   63CHL1  H19B 7110   3.306   6.425   9.989 -0.6729  1.6360  0.2343
   63CHL1  H19C 7111   3.132   6.423  10.004 -0.4345 -0.8716  1.2767
   63CHL1    C1 7112   3.124   6.150  10.039 -0.5026  0.1298 -0.0531
   63CHL1   H1A 7113   3.038   6.196   9.986 -1.9655 -1.3892  0.8818
   63CHL1   H1B 7114   3.126   6.052   9.987 -0.6123 -0.6725  1.4000
   63CHL1    C2 7115   3.096   6.132  10.193  0.3651  0.2558  0.3952
   63CHL1   H2A 7116   3.007   6.069  10.215  1.1537 -0.4346  1.8211
   63CHL1   H2B 7117   3.072   6.234  10.231 -2.1269  0.3084 -1.1196
   63CHL1   C20 7118   3.356   6.330   9.302 -0.2649  0.1430  0.0348
   63CHL1   H20 7119   3.400   6.431   9.304  0.8456 -0.3412  2.0227
   63CHL1   C21 7120   3.198   6.337   9.302 -0.6954 -0.6730  0.4678
   63CHL1  H21A 7121   3.160   6.378   9.206 -1.4754 -3.6707 -0.6220
   63CHL1  H21B 7122   3.166   6.408   9.382  2.5232  1.1770  0.2929
   63CHL1  H21C 7123   3.159   6.234   9.310 -0.5381 -0.9335 -1.5241
   63CHL1   C22 7124   3.418   6.259   9.179 -0.2794  0.1627  0.3206
   63CHL1  H22A 7125   3.527   6.275   9.191  0.2874 -2.7603 -0.2347
   63CHL1  H22B 7126   3.390   6.153   9.191  2.3787 -0.3825  3.0521
   63CHL1   C23 7127   3.351   6.301   9.042 -0.0504 -0.1023 -0.1959
   63CHL1  H23A 7128   3.244   6.273   9.035  0.1130 -1.0944  0.8868
   63CHL1  H23B 7129   3.364   6.411   9.035 -0.5836  0.0494  0.8894
   63CHL1   C24 7130   3.428   6.232   8.932 -0.3318 -0.0469 -0.1089
   63CHL1  H24A 7131   3.536   6.256   8.945 -0.4871 -0.1919  1.7305
   63CHL1  H24B 7132   3.410   6.123   8.947  2.0835 -0.3674  1.0726
   63CHL1   C25 7133   3.384   6.260   8.788  0.0383  0.3459 -0.6604
   63CHL1   H25 7134   3.448   6.206   8.715 -1.3671  1.0623 -2.5117
   63CHL1   C26 7135   3.243   6.202   8.762 -0.3038 -0.0204  0.0964
   63CHL1  H26A 7136   3.206   6.149   8.852  0.1001  2.0099  1.5263
   63CHL1  H26B 7137   3.176   6.288   8.742 -0.9675 -0.6042 -0.2266
   63CHL1  H26C 7138   3.237   6.126   8.681  0.6259 -1.1122  1.0061
   63CHL1   C27 7139   3.376   6.408   8.742 -0.2241  0.3040 -0.2783
   63CHL1  H27A 7140   3.366   6.428   8.634  1.7356  1.1078 -0.3588
   63CHL1  H27B 7141   3.311   6.480   8.796 -0.1262  1.7275 -1.9977
   63CHL1  H27C 7142   3.477   6.445   8.770 -1.0758  0.6406  2.7015
   64CHL1    C3 7143   0.756   6.535  10.326 -0.1873  0.3993  0.2640
   64CHL1    H3 7144   0.854   6.489  10.304 -1.0631 -1.8382  0.7512
   64CHL1    O3 7145   0.720   6.522  10.460 -1.0279  0.1661 -0.5478
   64CHL1   H3' 7146   0.626   6.536  10.471 -0.5291  1.4767  4.5108
   64CHL1    C4 7147   0.760   6.688  10.281 -0.3364 -0.0477 -0.3305
   64CHL1   H4A 7148   0.661   6.733  10.299 -0.2844  2.2649 -4.4358
   64CHL1   H4B 7149   0.832   6.739  10.348  0.6701 -1.1785 -0.5057
   64CHL1    C5 7150   0.796   6.703  10.135  0.4081  0.1435  0.1439
   64CHL1    C6 7151   0.895   6.776  10.080 -0.0719 -0.7870 -0.2715
   64CHL1    H6 7152   0.961   6.831  10.150 -1.4391  0.1001  0.3695
   64CHL1    C7 7153   0.926   6.789   9.933 -0.3520 -0.2930  0.1363
   64CHL1   H7A 7154   0.941   6.897   9.913 -0.6485 -0.4926 -1.2917
   64CHL1   H7B 7155   1.024   6.738   9.918 -0.6404 -0.5212 -1.1013
   64CHL1    C8 7156   0.816   6.729   9.842 -1.2421 -0.2896  0.0830
   64CHL1    H8 7157   0.734   6.804   9.845 -0.3360  0.7149  2.3886
   64CHL1   C14 7158   0.859   6.714   9.700 -0.3287 -0.2985  0.5628
   64CHL1   H14 7159   0.938   6.635   9.697 -1.9403 -2.0061  0.8644
   64CHL1   C15 7160   0.928   6.832   9.628  0.1380  0.0024  1.1002
   64CHL1  H15A 7161   0.861   6.920   9.645  0.7522  0.8688 -0.7643
   64CHL1  H15B 7162   1.031   6.853   9.664  0.5649 -1.1310  0.5757
   64CHL1   C16 7163   0.917   6.795   9.483  0.5419  0.5138 -0.2198
   64CHL1  H16A 7164   0.853   6.873   9.436  0.2116  1.0340  1.0666
   64CHL1  H16B 7165   1.017   6.796   9.434  0.8136  1.0260  0.3461
   64CHL1   C17 7166   0.836   6.669   9.470 -0.4700 -0.0976 -0.1806
   64CHL1   H17 7167   0.911   6.588   9.488 -0.9643 -0.6749 -0.6780
   64CHL1   C13 7168   0.751   6.664   9.605  0.2288 -0.6530 -0.3500
   64CHL1   C18 7169   0.628   6.760   9.601 -0.6450  1.5055  0.6268
   64CHL1  H18A 7170   0.667   6.862   9.585  3.9462  0.0845  1.3117
   64CHL1  H18B 7171   0.561   6.713   9.526 -1.4923  0.4968  1.9704
   64CHL1  H18C 7172   0.572   6.749   9.696 -0.2174  0.9639  0.8204
   64CHL1   C12 7173   0.709   6.523   9.654 -0.1482 -0.1193  0.6284
   64CHL1  H12A 7174   0.628   6.477   9.594  0.8552 -0.3364 -0.6063
   64CHL1  H12B 7175   0.800   6.462   9.639 -0.2156 -0.3473  1.1290
   64CHL1   C11 7176   0.675   6.517   9.801  0.6190  0.6177 -0.5601
   64CHL1  H11A 7177   0.576   6.567   9.804 -0.1678 -0.8500 -1.3960
   64CHL1  H11B 7178   0.660   6.409   9.822 -1.1950  1.1400  1.1425
   64CHL1    C9 7179   0.771   6.595   9.898  0.1770 -0.3211  0.7116
   64CHL1    H9 7180   0.862   6.534   9.914 -1.8897 -3.8468 -0.1203
   64CHL1   C10 7181   0.704   6.615  10.040  0.2526  0.5593  0.4416
   64CHL1   C19 7182   0.567   6.679  10.036 -0.0216  0.8196  0.6327
   64CHL1  H19A 7183   0.571   6.770   9.973 -3.2515 -0.3021 -1.4746
   64CHL1  H19B 7184   0.481   6.616  10.002  2.0818 -1.8616 -0.0915
   64CHL1  H19C 7185   0.529   6.713  10.135 -1.7241 -2.2669  1.1803
   64CHL1    C1 7186   0.679   6.475  10.104 -0.0896 -0.2594 -0.2373
   64CHL1   H1A 7187   0.606   6.423  10.039  1.2680  0.7942 -2.7272
   64CHL1   H1B 7188   0.775   6.424  10.082 -0.6307 -1.4054 -0.0172
   64CHL1    C2 7189   0.646   6.468  10.254  0.3288  0.5184  0.1955
   64CHL1   H2A 7190   0.637   6.360  10.277 -1.0857  0.6453  0.2755
   64CHL1   H2B 7191   0.545   6.505  10.279  0.6771  0.3965  1.9215
   64CHL1   C20 7192   0.782   6.658   9.328  0.2039 -0.7135  0.1926
   64CHL1   H20 7193   0.689   6.716   9.308 -0.8917 -2.6565 -0.6538
   64CHL1   C21 7194   0.726   6.510   9.311 -0.1093  0.1822 -0.3104
   64CHL1  H21A 7195   0.798   6.434   9.350 -1.8239 -2.2478 -1.6025
   64CHL1  H21B 7196   0.701   6.491   9.205 -0.3869  1.2517 -0.4469
   64CHL1  H21C 7197   0.633   6.494   9.370  1.1138 -1.3665  1.3175
   64CHL1   C22 7198   0.888   6.704   9.232 -0.4682  0.1413  0.3109
   64CHL1  H22A 7199   0.917   6.810   9.241 -1.0165  0.2035  1.4113
   64CHL1  H22B 7200   0.977   6.641   9.251 -0.7246 -0.0667  0.8364
   64CHL1   C23 7201   0.881   6.684   9.074  0.2286 -0.4786  0.2760
   64CHL1  H23A 7202   0.983   6.694   9.032 -0.3176 -2.5215 -1.7687
   64CHL1  H23B 7203   0.861   6.578   9.048  1.0107 -0.9973  1.7088
   64CHL1   C24 7204   0.777   6.773   8.993 -0.6883 -0.5742 -0.1247
   64CHL1  H24A 7205   0.681   6.759   9.047 -0.3405  0.9942  0.9752
   64CHL1  H24B 7206   0.813   6.878   8.993  0.7689 -1.0125  1.7151
   64CHL1   C25 7207   0.768   6.735   8.844 -0.3127 -0.1732 -0.1793
   64CHL1   H25 7208   0.735   6.629   8.845 -2.0878  0.2970  3.0471
   64CHL1   C26 7209   0.665   6.810   8.775 -0.1089 -1.1712  0.2061
   64CHL1  H26A 7210   0.688   6.918   8.763  0.9237 -0.9298  3.4168
   64CHL1  H26B 7211   0.648   6.768   8.673 -1.1804  0.1970 -0.2077
   64CHL1  H26C 7212   0.565   6.809   8.822 -0.8849  4.2346 -0.7442
   64CHL1   C27 7213   0.899   6.744   8.765 -0.6379  1.0630 -0.4625
   64CHL1  H27A 7214   0.950   6.646   8.776 -0.5019  1.2720  1.0644
   64CHL1  H27B 7215   0.901   6.772   8.658  3.4812  1.1252 -0.5388
   64CHL1  H27C 7216   0.963   6.824   8.808  0.9238 -0.6888  0.6874
   65CHL1    C3 7217   2.199   3.586  10.211  0.2457  0.2697 -0.1471
   65CHL1    H3 7218   2.304   3.551  10.220 -0.1250 -0.7225  0.4847
   65CHL1    O3 7219   2.139   3.591  10.338 -0.1823 -0.6152  0.4831
   65CHL1   H3' 7220   2.191   3.659  10.381  1.6469 -0.6831 -1.4479
   65CHL1    C4 7221   2.196   3.725  10.143  0.0976 -0.5670  0.1226
   65CHL1   H4A 7222   2.087   3.735  10.130 -0.0383 -1.0337  0.8312
   65CHL1   H4B 7223   2.244   3.791  10.219 -0.3313 -1.7611  1.4760
   65CHL1    C5 7224   2.275   3.724  10.013 -0.3510 -0.2569  0.5633
   65CHL1    C6 7225   2.384   3.805  10.003  0.5922 -0.5904 -0.0918
   65CHL1    H6 7226   2.409   3.871  10.088 -2.9276  1.0493 -0.1228
   65CHL1    C7 7227   2.468   3.800   9.879  0.1492 -0.0074 -0.4104
   65CHL1   H7A 7228   2.500   3.902   9.849 -0.6517  0.6401  0.8253
   65CHL1   H7B 7229   2.554   3.731   9.892 -0.0577 -0.0221  1.0184
   65CHL1    C8 7230   2.388   3.752   9.756  0.2573  0.0516  0.6363
   65CHL1    H8 7231   2.317   3.832   9.727  2.2359  0.7968 -2.7941
   65CHL1   C14 7232   2.481   3.728   9.637 -0.2156  0.5863 -0.3982
   65CHL1   H14 7233   2.556   3.654   9.670  0.7184  2.9252  3.3812
   65CHL1   C15 7234   2.579   3.836   9.593  0.5368  0.1938  0.4670
   65CHL1  H15A 7235   2.528   3.931   9.567 -0.1741 -0.2481  0.2253
   65CHL1  H15B 7236   2.667   3.861   9.655  0.8763  0.8482 -0.2638
   65CHL1   C16 7237   2.620   3.796   9.447 -0.8772  0.0445 -0.3589
   65CHL1  H16A 7238   2.611   3.878   9.372  0.5431 -1.2563 -2.0611
   65CHL1  H16B 7239   2.729   3.775   9.459 -0.6306  0.6106 -1.4495
   65CHL1   C17 7240   2.530   3.669   9.408  0.0763  0.4734 -0.0314
   65CHL1   H17 7241   2.592   3.581   9.435  2.1223  1.3794 -1.4376
   65CHL1   C13 7242   2.416   3.673   9.509  0.0894  0.2566  0.0320
   65CHL1   C18 7243   2.313   3.770   9.449 -0.3479  0.1552  0.4368
   65CHL1  H18A 7244   2.275   3.732   9.352 -2.0621  2.3794  0.1695
   65CHL1  H18B 7245   2.229   3.800   9.515 -0.6180 -1.2775  0.7829
   65CHL1  H18C 7246   2.368   3.860   9.415  0.9693  0.0427  2.1553
   65CHL1   C12 7247   2.347   3.538   9.545  0.0343  0.2322  0.5569
   65CHL1  H12A 7248   2.294   3.498   9.456  1.9486  1.1184 -1.0611
   65CHL1  H12B 7249   2.424   3.459   9.556  1.8399  1.9251  0.5127
   65CHL1   C11 7250   2.247   3.553   9.655  0.3857  0.5908  0.2828
   65CHL1  H11A 7251   2.159   3.609   9.616 -0.4134  0.5944  1.9980
   65CHL1  H11B 7252   2.203   3.454   9.681 -0.0246  0.3760 -1.1181
   65CHL1    C9 7253   2.310   3.622   9.785 -0.0849  0.1094 -0.1705
   65CHL1    H9 7254   2.395   3.558   9.815  0.0684  0.9015  1.1832
   65CHL1   C10 7255   2.217   3.630   9.905 -0.3370  0.7665  0.0696
   65CHL1   C19 7256   2.076   3.672   9.849  0.5352  0.6034 -0.6262
   65CHL1  H19A 7257   2.089   3.759   9.780 -0.7738 -0.5387 -2.3935
   65CHL1  H19B 7258   2.032   3.586   9.795  0.3509  1.2599 -1.5566
   65CHL1  H19C 7259   2.013   3.692   9.938  1.6060  0.5703  0.1615
   65CHL1    C1 7260   2.201   3.483   9.971 -0.4950 -0.6423  0.1773
   65CHL1   H1A 7261   2.147   3.416   9.901 -0.3769 -0.7308  0.1696
   65CHL1   H1B 7262   2.306   3.447   9.975  0.3760  1.4193 -1.6251
   65CHL1    C2 7263   2.138   3.481  10.116  0.8655  0.1963  0.3581
   65CHL1   H2A 7264   2.150   3.382  10.165 -0.9721 -0.1502  0.1856
   65CHL1   H2B 7265   2.029   3.497  10.101  0.9243 -1.2999 -2.3432
   65CHL1   C20 7266   2.501   3.652   9.254  0.2945 -0.2734  0.2543
   65CHL1   H20 7267   2.454   3.744   9.214 -1.0668 -1.5067 -1.1382
   65CHL1   C21 7268   2.416   3.519   9.232  0.7057 -0.1380  0.0294
   65CHL1  H21A 7269   2.460   3.428   9.278 -0.1272 -1.5773 -1.9007
   65CHL1  H21B 7270   2.441   3.487   9.129 -2.0718 -0.2639 -0.6626
   65CHL1  H21C 7271   2.306   3.530   9.245  0.4202 -0.3846 -1.8769
   65CHL1   C22 7272   2.629   3.636   9.163  0.0485  1.4746 -0.4548
   65CHL1  H22A 7273   2.710   3.690   9.217  1.5704 -0.2641 -0.9112
   65CHL1  H22B 7274   2.656   3.529   9.163 -4.0793  0.2155  0.9244
   65CHL1   C23 7275   2.608   3.702   9.021  0.0750 -0.5609 -0.4620
   65CHL1  H23A 7276   2.544   3.641   8.953 -0.3920  0.2195 -0.7324
   65CHL1  H23B 7277   2.557   3.799   9.042 -0.7173 -1.6894  3.7703
   65CHL1   C24 7278   2.737   3.743   8.953  0.2440 -0.3904 -0.0014
   65CHL1  H24A 7279   2.777   3.820   9.023 -0.7655 -1.1856  1.5142
   65CHL1  H24B 7280   2.813   3.662   8.962 -0.1322 -0.8563 -0.9459
   65CHL1   C25 7281   2.712   3.808   8.817  0.5593  0.7942  0.3959
   65CHL1   H25 7282   2.630   3.882   8.833 -0.5844 -0.2958 -0.2780
   65CHL1   C26 7283   2.843   3.874   8.776 -0.5464 -0.5390  0.0760
   65CHL1  H26A 7284   2.904   3.795   8.728  0.6910  0.3984  0.0548
   65CHL1  H26B 7285   2.822   3.956   8.705  1.2329 -1.2475 -1.3299
   65CHL1  H26C 7286   2.903   3.914   8.861 -0.5845  0.5315 -0.3826
   65CHL1   C27 7287   2.648   3.733   8.705 -0.2050 -0.3453  1.2238
   65CHL1  H27A 7288   2.647   3.796   8.613 -1.2126 -0.7613  0.9319
   65CHL1  H27B 7289   2.702   3.638   8.684 -0.5196 -0.3322  0.2881
   65CHL1  H27C 7290   2.542   3.709   8.731 -0.0774 -1.0873  1.0745
   66CHL1    C3 7291   0.490   1.131  10.592 -0.9864  0.9421  0.2362
   66CHL1    H3 7292   0.582   1.070  10.577 -1.9405 -0.3422 -0.6819
   66CHL1    O3 7293   0.441   1.128  10.722  0.1024  0.1538 -0.6845
   66CHL1   H3' 7294   0.410   1.039  10.740 -0.9267  0.7841  0.8184
   66CHL1    C4 7295   0.520   1.277  10.543  0.5638  0.5850 -1.1581
   66CHL1   H4A 7296   0.421   1.327  10.551  1.6631  2.8229 -0.7021
   66CHL1   H4B 7297   0.594   1.310  10.619  3.2381 -3.0754 -1.9172
   66CHL1    C5 7298   0.560   1.286  10.400 -0.3946  0.5933  0.1744
   66CHL1    C6 7299   0.679   1.338  10.363  0.4195 -1.2071  0.4589
   66CHL1    H6 7300   0.752   1.380  10.434 -1.5776  0.5322  1.6051
   66CHL1    C7 7301   0.705   1.363  10.219 -0.1218  0.2963  0.6932
   66CHL1   H7A 7302   0.745   1.466  10.204  2.1636 -0.6473  0.0101
   66CHL1   H7B 7303   0.790   1.298  10.191 -0.7280  0.1921 -1.0159
   66CHL1    C8 7304   0.580   1.347  10.125  0.0012  0.5828 -0.2732
   66CHL1    H8 7305   0.510   1.432  10.137 -1.8491 -0.6287 -1.9456
   66CHL1   C14 7306   0.617   1.347   9.979 -0.7619  0.1097 -0.0840
   66CHL1   H14 7307   0.688   1.263   9.968  0.6025  0.8325  2.5169
   66CHL1   C15 7308   0.692   1.466   9.925 -0.3450 -0.2300 -0.2258
   66CHL1  H15A 7309   0.636   1.550   9.972  0.6064  1.3115 -1.7365
   66CHL1  H15B 7310   0.797   1.478   9.960  0.1011  1.2008 -1.8949
   66CHL1   C16 7311   0.680   1.463   9.773 -0.0757  0.4166 -0.4761
   66CHL1  H16A 7312   0.645   1.560   9.733  1.0452  0.9512 -0.1925
   66CHL1  H16B 7313   0.772   1.428   9.721 -0.8162 -1.1677 -0.8031
   66CHL1   C17 7314   0.569   1.344   9.747 -0.5317  0.6879 -0.3342
   66CHL1   H17 7315   0.634   1.255   9.733  0.4403  1.3674 -0.2560
   66CHL1   C13 7316   0.498   1.319   9.884 -0.0213 -0.8924 -0.3759
   66CHL1   C18 7317   0.400   1.439   9.899  0.0187 -0.6236  0.1008
   66CHL1  H18A 7318   0.315   1.437   9.828  0.5639 -1.0825 -0.5458
   66CHL1  H18B 7319   0.355   1.453  10.000 -0.0929 -1.2439  0.1434
   66CHL1  H18C 7320   0.450   1.534   9.871 -2.1068  1.0775  1.6876
   66CHL1   C12 7321   0.443   1.180   9.916  0.1934 -0.6563  0.6151
   66CHL1  H12A 7322   0.367   1.148   9.842  0.5365 -0.3880  0.1419
   66CHL1  H12B 7323   0.527   1.109   9.901 -0.9216 -1.6485 -1.3119
   66CHL1   C11 7324   0.394   1.170  10.058  0.0602 -0.1022 -0.2086
   66CHL1  H11A 7325   0.297   1.224  10.060  0.3968  0.5721 -1.1474
   66CHL1  H11B 7326   0.380   1.063  10.086  0.7342 -0.7335 -2.1128
   66CHL1    C9 7327   0.501   1.219  10.164 -0.4394 -0.3291  0.6835
   66CHL1    H9 7328   0.580   1.141  10.154 -0.7436 -0.5419 -0.1232
   66CHL1   C10 7329   0.452   1.228  10.309 -0.0723  0.1493  0.0441
   66CHL1   C19 7330   0.321   1.312  10.311  0.2062  0.5003  0.3635
   66CHL1  H19A 7331   0.249   1.251  10.252  1.1971 -1.8915  1.4518
   66CHL1  H19B 7332   0.273   1.321  10.411  0.6521  0.8540  0.5463
   66CHL1  H19C 7333   0.335   1.411  10.265  0.7226 -0.4683 -1.6714
   66CHL1    C1 7334   0.426   1.080  10.356 -0.3741  0.0845 -0.2320
   66CHL1   H1A 7335   0.359   1.013  10.298  0.1733 -0.2281 -0.5100
   66CHL1   H1B 7336   0.523   1.027  10.350 -0.2937  0.2549 -0.4753
   66CHL1    C2 7337   0.379   1.070  10.500  0.4439  0.5204 -1.1965
   66CHL1   H2A 7338   0.371   0.968  10.544  0.1262  0.6386 -0.9767
   66CHL1   H2B 7339   0.278   1.116  10.503  0.2757  0.6510 -4.7109
   66CHL1   C20 7340   0.487   1.363   9.620  1.1287 -0.2481 -0.6880
   66CHL1   H20 7341   0.420   1.452   9.617  0.5289 -0.6726 -0.2488
   66CHL1   C21 7342   0.391   1.239   9.594  0.4375  0.0837  0.2080
   66CHL1  H21A 7343   0.359   1.249   9.488  1.8464  1.2758 -0.1440
   66CHL1  H21B 7344   0.308   1.236   9.667  0.1835  0.9648 -0.0344
   66CHL1  H21C 7345   0.459   1.152   9.602 -1.7407 -1.8137 -0.7122
   66CHL1   C22 7346   0.582   1.393   9.499 -0.3569  0.3737  1.0234
   66CHL1  H22A 7347   0.515   1.424   9.416 -1.2250 -0.7027  1.2947
   66CHL1  H22B 7348   0.629   1.492   9.519 -2.0860  1.3263  0.6336
   66CHL1   C23 7349   0.678   1.279   9.453  0.7507  0.0395  0.5222
   66CHL1  H23A 7350   0.751   1.248   9.531  1.1592  0.0969  0.1647
   66CHL1  H23B 7351   0.608   1.197   9.426 -1.5302  2.5312 -1.6658
   66CHL1   C24 7352   0.748   1.314   9.319  0.0820 -0.1012 -0.0768
   66CHL1  H24A 7353   0.660   1.320   9.251 -0.2868  4.0347  0.5056
   66CHL1  H24B 7354   0.787   1.417   9.334  3.0046 -0.8852 -1.4483
   66CHL1   C25 7355   0.861   1.225   9.263 -0.2966  0.0538 -1.0648
   66CHL1   H25 7356   0.939   1.237   9.342 -1.0662  1.9212 -0.5380
   66CHL1   C26 7357   0.824   1.072   9.242  0.4193 -0.4976 -0.1760
   66CHL1  H26A 7358   0.911   1.009   9.215  0.5805 -0.5699  0.4979
   66CHL1  H26B 7359   0.775   1.035   9.336 -2.2310 -2.2703 -2.0996
   66CHL1  H26C 7360   0.741   1.065   9.168  0.8565  3.4327 -1.2265
   66CHL1   C27 7361   0.936   1.278   9.140 -0.3539  0.1537  0.5374
   66CHL1  H27A 7362   1.040   1.240   9.135 -0.4484  0.0378 -1.8343
   66CHL1  H27B 7363   0.894   1.227   9.051 -0.0598  2.4578 -1.0014
   66CHL1  H27C 7364   0.933   1.389   9.127 -0.0077  0.0196 -0.8437
   67CHL1    C3 7365   4.477   2.764  10.465 -0.7114 -0.3272 -0.7392
   67CHL1    H3 7366   4.571   2.823  10.465  0.2809 -1.8547 -1.6367
   67CHL1    O3 7367   4.427   2.764  10.599  0.6078 -0.1384  0.4333
   67CHL1   H3' 7368   4.438   2.849  10.642  0.4097 -0.4545  1.1309
   67CHL1    C4 7369   4.378   2.844  10.370  0.3371 -0.3966 -0.1942
   67CHL1   H4A 7370   4.274   2.805  10.384  0.1222 -0.0337 -0.7441
   67CHL1   H4B 7371   4.374   2.947  10.410 -1.7791 -0.8613  0.9559
   67CHL1    C5 7372   4.427   2.831  10.227 -0.2253  0.0680 -0.3004
   67CHL1    C6 7373   4.434   2.943  10.152 -0.2783 -0.1285 -0.2943
   67CHL1    H6 7374   4.404   3.038  10.199 -1.7665 -1.1546  0.9274
   67CHL1    C7 7375   4.439   2.935  10.001  0.2011 -0.3316 -0.1672
   67CHL1   H7A 7376   4.359   3.003   9.967 -1.6743 -3.1021 -1.6542
   67CHL1   H7B 7377   4.535   2.977   9.963 -1.3975  1.6484 -2.2388
   67CHL1    C8 7378   4.430   2.790   9.953 -0.8036  0.5757  0.0690
   67CHL1    H8 7379   4.322   2.766   9.944 -0.4990 -0.6606 -0.5190
   67CHL1   C14 7380   4.498   2.791   9.812  0.1260  0.2401  0.2098
   67CHL1   H14 7381   4.605   2.818   9.825 -0.1532  0.3538  2.6164
   67CHL1   C15 7382   4.448   2.889   9.711 -0.7441  0.0758  0.0959
   67CHL1  H15A 7383   4.337   2.881   9.701 -0.7513  0.5976 -0.2864
   67CHL1  H15B 7384   4.466   2.994   9.744  0.6527 -0.4043  0.9319
   67CHL1   C16 7385   4.502   2.852   9.574 -0.7636  0.6785  0.3221
   67CHL1  H16A 7386   4.434   2.854   9.487  1.3228 -0.1598 -1.4263
   67CHL1  H16B 7387   4.589   2.915   9.548  0.6812 -1.1960  0.3910
   67CHL1   C17 7388   4.548   2.705   9.599 -0.6356  0.4909  0.2133
   67CHL1   H17 7389   4.657   2.706   9.624 -1.0318  0.3796  2.0839
   67CHL1   C13 7390   4.495   2.659   9.738 -0.3981 -0.1377 -0.0561
   67CHL1   C18 7391   4.348   2.606   9.714  0.1224  0.3530  0.0695
   67CHL1  H18A 7392   4.286   2.598   9.806 -1.6385 -2.5986 -1.2431
   67CHL1  H18B 7393   4.304   2.667   9.633 -1.7376  0.0628  0.7995
   67CHL1  H18C 7394   4.355   2.501   9.678  0.4981  0.9893 -1.8102
   67CHL1   C12 7395   4.578   2.556   9.816 -0.8439 -0.2228 -0.1605
   67CHL1  H12A 7396   4.576   2.456   9.767  2.4209  0.5833 -2.2506
   67CHL1  H12B 7397   4.683   2.592   9.826 -0.6250 -0.9941  0.4388
   67CHL1   C11 7398   4.529   2.552   9.961  0.0289  0.0272 -0.0779
   67CHL1  H11A 7399   4.429   2.504   9.951  0.5590 -0.8908 -1.0908
   67CHL1  H11B 7400   4.593   2.476  10.010 -1.7851 -1.2022  0.4968
   67CHL1    C9 7401   4.515   2.688  10.034  0.2516  0.7548 -0.9717
   67CHL1    H9 7402   4.618   2.730  10.032  1.0147 -1.0349 -2.4855
   67CHL1   C10 7403   4.456   2.690  10.180  0.6639  0.0444 -0.5773
   67CHL1   C19 7404   4.305   2.629  10.191 -0.1154 -0.7582  0.0411
   67CHL1  H19A 7405   4.302   2.528  10.146 -1.5221 -0.6373 -0.1637
   67CHL1  H19B 7406   4.294   2.601  10.297  0.0715  0.6215  0.4524
   67CHL1  H19C 7407   4.224   2.694  10.150  0.3943  0.2637  0.6009
   67CHL1    C1 7408   4.545   2.606  10.280  0.1648 -0.3446  0.6139
   67CHL1   H1A 7409   4.547   2.500  10.247 -1.7230 -0.0576 -0.5753
   67CHL1   H1B 7410   4.653   2.634  10.275  0.1556  0.3979  3.2309
   67CHL1    C2 7411   4.507   2.621  10.427 -0.7096  1.0572  0.3941
   67CHL1   H2A 7412   4.599   2.601  10.486  2.3944  0.8482 -4.0389
   67CHL1   H2B 7413   4.432   2.544  10.454 -2.8225  2.8883  0.0562
   67CHL1   C20 7414   4.540   2.613   9.473 -0.3004  0.4221  0.8043
   67CHL1   H20 7415   4.434   2.616   9.441  0.0235  1.0404 -0.2504
   67CHL1   C21 7416   4.585   2.464   9.493 -0.0971 -0.3853 -1.0525
   67CHL1  H21A 7417   4.621   2.418   9.398  2.6000  2.4597 -1.5935
   67CHL1  H21B 7418   4.511   2.402   9.548 -0.4458  1.2233  0.3821
   67CHL1  H21C 7419   4.671   2.481   9.561 -2.0377 -2.1028  2.0281
   67CHL1   C22 7420   4.626   2.662   9.355 -0.3289  0.4749  0.0091
   67CHL1  H22A 7421   4.623   2.773   9.360  1.2078  0.4834  3.1811
   67CHL1  H22B 7422   4.730   2.625   9.366  0.3011  2.4873  1.5554
   67CHL1   C23 7423   4.572   2.621   9.217 -0.0009  0.5493  0.2291
   67CHL1  H23A 7424   4.583   2.512   9.205 -2.5686  0.1484  0.8131
   67CHL1  H23B 7425   4.462   2.625   9.201 -0.3791  0.6478  2.5853
   67CHL1   C24 7426   4.641   2.699   9.103 -0.2353  0.3893  0.5912
   67CHL1  H24A 7427   4.619   2.808   9.100 -1.8421  0.0634 -0.2299
   67CHL1  H24B 7428   4.748   2.670   9.114 -0.7232 -1.0515  1.8968
   67CHL1   C25 7429   4.602   2.630   8.972  0.9720  0.1384  0.4161
   67CHL1   H25 7430   4.493   2.609   8.979  1.3987 -2.8427 -0.5260
   67CHL1   C26 7431   4.603   2.738   8.861 -0.2362 -0.1253  0.0646
   67CHL1  H26A 7432   4.549   2.831   8.886  0.0902  0.0122  0.2692
   67CHL1  H26B 7433   4.705   2.776   8.839 -0.2064  0.4532  1.1342
   67CHL1  H26C 7434   4.573   2.696   8.763 -0.2541 -0.1725  0.0904
   67CHL1   C27 7435   4.679   2.501   8.946  0.2637  0.0236  0.5365
   67CHL1  H27A 7436   4.656   2.416   9.015  0.8514  0.2332  0.9967
   67CHL1  H27B 7437   4.659   2.483   8.838  2.0647  1.0228 -0.0064
   67CHL1  H27C 7438   4.789   2.512   8.945  0.3201 -0.1048 -2.5784
   68CHL1    C3 7439   3.326   2.847  10.347  0.4146  0.5637  0.2168
   68CHL1    H3 7440   3.215   2.843  10.344  0.4421 -1.4585  0.4303
   68CHL1    O3 7441   3.369   2.892  10.473 -0.0795  0.7723  0.3157
   68CHL1   H3' 7442   3.464   2.891  10.462 -0.0366 -2.6059 -0.0284
   68CHL1    C4 7443   3.370   2.704  10.316 -0.1719 -0.0384 -0.7039
   68CHL1   H4A 7444   3.477   2.696  10.343 -0.6819 -1.9535  1.0351
   68CHL1   H4B 7445   3.308   2.638  10.381  1.6238 -1.6505 -0.5239
   68CHL1    C5 7446   3.337   2.656  10.174 -0.0266  0.4230  0.1472
   68CHL1    C6 7447   3.265   2.544  10.158 -0.1532  0.1682 -0.1742
   68CHL1    H6 7448   3.233   2.480  10.242 -2.0909  1.7845  0.3820
   68CHL1    C7 7449   3.229   2.494  10.023 -0.3880  0.4188  0.5074
   68CHL1   H7A 7450   3.252   2.386  10.013  0.8966  0.8263 -1.6719
   68CHL1   H7B 7451   3.121   2.503   9.998  0.1236 -0.4791 -2.4060
   68CHL1    C8 7452   3.312   2.563   9.910 -0.1527 -0.0259 -0.1452
   68CHL1    H8 7453   3.412   2.516   9.921 -1.0903 -2.3485 -1.0721
   68CHL1   C14 7454   3.272   2.533   9.761 -0.0923  0.3172  0.2652
   68CHL1   H14 7455   3.180   2.593   9.747 -0.3701  0.0161  0.7665
   68CHL1   C15 7456   3.246   2.386   9.724  0.1540  0.0230 -0.4439
   68CHL1  H15A 7457   3.331   2.345   9.783  0.1222  0.8419  0.2098
   68CHL1  H15B 7458   3.154   2.355   9.780  1.3352  0.1907  1.7162
   68CHL1   C16 7459   3.251   2.382   9.580  1.1223  0.2055  0.4608
   68CHL1  H16A 7460   3.333   2.313   9.550 -0.3991 -0.5891 -2.1860
   68CHL1  H16B 7461   3.152   2.369   9.532  0.3097  2.1641  1.5190
   68CHL1   C17 7462   3.299   2.523   9.527  0.5724  0.0960 -0.5016
   68CHL1   H17 7463   3.206   2.582   9.512  0.2327 -0.2899  0.0153
   68CHL1   C13 7464   3.367   2.585   9.653  0.1671 -0.0206 -0.3945
   68CHL1   C18 7465   3.511   2.526   9.661  0.4060 -0.1400 -0.4820
   68CHL1  H18A 7466   3.572   2.540   9.569  2.2878  0.3619  0.7676
   68CHL1  H18B 7467   3.566   2.579   9.742 -1.3867 -0.7661  1.2077
   68CHL1  H18C 7468   3.515   2.423   9.703  1.2425 -1.2227 -2.9961
   68CHL1   C12 7469   3.368   2.741   9.663  0.1203  0.4631  0.5689
   68CHL1  H12A 7470   3.432   2.792   9.589  0.4201 -1.5747 -0.6400
   68CHL1  H12B 7471   3.263   2.774   9.649 -0.0492 -1.3073 -3.6288
   68CHL1   C11 7472   3.407   2.784   9.811 -0.3973  0.1812 -0.1872
   68CHL1  H11A 7473   3.518   2.781   9.820 -0.0416  3.0864 -2.0749
   68CHL1  H11B 7474   3.385   2.893   9.819 -0.9177 -0.0282  1.4461
   68CHL1    C9 7475   3.337   2.712   9.923 -0.1797 -0.1792 -0.1141
   68CHL1    H9 7476   3.233   2.747   9.907  0.0513  0.3993 -0.3875
   68CHL1   C10 7477   3.391   2.757  10.063 -1.1478  0.7126  0.2986
   68CHL1   C19 7478   3.547   2.751  10.075  0.0245  0.5180 -0.3759
   68CHL1  H19A 7479   3.569   2.644  10.052 -2.0163  0.0634 -0.4038
   68CHL1  H19B 7480   3.600   2.800   9.991  1.0755 -1.4096 -0.9198
   68CHL1  H19C 7481   3.593   2.781  10.171  2.0809  0.2474 -1.2243
   68CHL1    C1 7482   3.353   2.901  10.093  0.1040  0.0543 -0.8700
   68CHL1   H1A 7483   3.414   2.980  10.043 -1.7122  0.9479 -1.7831
   68CHL1   H1B 7484   3.243   2.906  10.081 -0.0428 -1.1980 -0.1989
   68CHL1    C2 7485   3.378   2.941  10.243  0.2767  0.5987  0.2831
   68CHL1   H2A 7486   3.330   3.040  10.259  0.6015  0.7021  0.6495
   68CHL1   H2B 7487   3.488   2.957  10.241  0.4127 -0.2905 -1.5222
   68CHL1   C20 7488   3.366   2.517   9.396 -0.1639 -0.5187  0.2727
   68CHL1   H20 7489   3.460   2.458   9.402 -0.2031 -0.9133 -2.1511
   68CHL1   C21 7490   3.417   2.655   9.341 -0.0342 -0.1076 -0.0695
   68CHL1  H21A 7491   3.338   2.734   9.339  0.2164  0.1410 -1.1693
   68CHL1  H21B 7492   3.473   2.658   9.245  1.9858  4.5920  0.9890
   68CHL1  H21C 7493   3.500   2.694   9.403  0.6932 -2.4376  0.5039
   68CHL1   C22 7494   3.284   2.440   9.287 -0.3853  0.0312 -0.9651
   68CHL1  H22A 7495   3.227   2.353   9.325 -0.6640 -0.7684 -3.0588
   68CHL1  H22B 7496   3.210   2.517   9.256  1.1877  1.9468 -0.2349
   68CHL1   C23 7497   3.371   2.397   9.171 -0.1859  0.5161  0.1456
   68CHL1  H23A 7498   3.412   2.493   9.132 -0.5307  1.9319  2.9349
   68CHL1  H23B 7499   3.463   2.345   9.207 -0.5147  0.8493  1.5414
   68CHL1   C24 7500   3.297   2.319   9.061  0.0926  0.7816 -0.0196
   68CHL1  H24A 7501   3.225   2.247   9.105  0.8278 -0.2516 -0.4310
   68CHL1  H24B 7502   3.239   2.401   9.015 -0.3339  1.3138  1.4028
   68CHL1   C25 7503   3.380   2.237   8.965  0.4317 -0.7201 -0.7168
   68CHL1   H25 7504   3.419   2.147   9.018 -0.4097 -0.3857  0.5013
   68CHL1   C26 7505   3.288   2.194   8.853  0.3357 -0.2410 -0.0442
   68CHL1  H26A 7506   3.189   2.152   8.881 -0.7561  1.3639 -1.2890
   68CHL1  H26B 7507   3.265   2.286   8.795 -3.4270 -2.2943 -2.2289
   68CHL1  H26C 7508   3.333   2.121   8.782  0.6744  0.1013 -0.1834
   68CHL1   C27 7509   3.498   2.311   8.914 -0.6109  0.8491  0.3497
   68CHL1  H27A 7510   3.564   2.343   8.997 -0.4767  0.0460  0.5622
   68CHL1  H27B 7511   3.563   2.250   8.847 -0.0459  0.5989  1.1131
   68CHL1  H27C 7512   3.465   2.399   8.856 -1.2884 -0.2363 -0.9784
   69CHL1    C3 7513   1.896   6.399   6.928 -0.1168 -0.2973  0.1037
   69CHL1    H3 7514   1.810   6.329   6.936 -0.2432 -0.2049 -0.4126
   69CHL1    O3 7515   1.928   6.403   6.790 -0.6451 -0.3737  0.0665
   69CHL1   H3' 7516   2.019   6.435   6.784 -1.1561  1.0395 -0.8863
   69CHL1    C4 7517   1.845   6.537   6.981 -0.5385  0.3579 -0.4594
   69CHL1   H4A 7518   1.934   6.598   6.955 -0.9979  0.6721 -1.3149
   69CHL1   H4B 7519   1.764   6.575   6.916 -0.2365 -1.1281 -1.7702
   69CHL1    C5 7520   1.832   6.547   7.133  0.8436 -0.6057 -0.2624
   69CHL1    C6 7521   1.714   6.594   7.193  0.4770  0.5348 -1.0794
   69CHL1    H6 7522   1.625   6.622   7.136 -0.2629 -1.4288 -0.9712
   69CHL1    C7 7523   1.693   6.597   7.339  0.0904 -0.1902  0.6358
   69CHL1   H7A 7524   1.650   6.694   7.370 -1.8870 -0.9371  0.3856
   69CHL1   H7B 7525   1.615   6.520   7.357  0.6480 -0.4878  1.8894
   69CHL1    C8 7526   1.819   6.578   7.420 -0.3908  0.3499  0.8325
   69CHL1    H8 7527   1.883   6.669   7.427  0.9619 -0.6284  1.8769
   69CHL1   C14 7528   1.778   6.556   7.569 -0.7972  0.4036  0.2444
   69CHL1   H14 7529   1.700   6.477   7.565 -0.1459 -0.2461  0.1276
   69CHL1   C15 7530   1.699   6.668   7.651  0.0445  0.3981  0.2878
   69CHL1  H15A 7531   1.755   6.764   7.653 -3.0727  2.3500  0.0658
   69CHL1  H15B 7532   1.598   6.685   7.609 -0.8036 -0.3985  1.9282
   69CHL1   C16 7533   1.703   6.618   7.797 -0.1478  0.7265 -0.2835
   69CHL1  H16A 7534   1.726   6.702   7.867 -0.3586 -0.1858  0.9128
   69CHL1  H16B 7535   1.608   6.564   7.817  0.7221 -0.7111  0.1286
   69CHL1   C17 7536   1.811   6.501   7.797 -0.0903  0.3015  0.2032
   69CHL1   H17 7537   1.752   6.407   7.791  2.4000 -1.3292  0.2196
   69CHL1   C13 7538   1.886   6.511   7.660 -0.4207  0.6052 -0.2528
   69CHL1   C18 7539   1.999   6.612   7.669  0.6516 -0.0266 -0.3229
   69CHL1  H18A 7540   2.038   6.653   7.574 -1.2816  0.5185 -0.9182
   69CHL1  H18B 7541   1.964   6.704   7.721  1.3076  1.1714 -1.9374
   69CHL1  H18C 7542   2.089   6.577   7.725  0.7508  3.3225  1.8762
   69CHL1   C12 7543   1.955   6.385   7.604  0.0696  0.1378  0.6705
   69CHL1  H12A 7544   2.051   6.363   7.656  0.2454  1.3137  0.8654
   69CHL1  H12B 7545   1.883   6.301   7.616 -1.6540  1.4760  0.0603
   69CHL1   C11 7546   1.999   6.405   7.451 -0.7456 -0.0761 -0.2215
   69CHL1  H11A 7547   2.083   6.477   7.443  0.7342 -1.5715  1.0991
   69CHL1  H11B 7548   2.032   6.307   7.409  2.4738  0.1787  1.4166
   69CHL1    C9 7549   1.895   6.465   7.358  0.4077 -0.5016 -0.2736
   69CHL1    H9 7550   1.824   6.379   7.358  1.7997 -1.6834  0.1142
   69CHL1   C10 7551   1.945   6.491   7.217  0.0944  1.1875 -0.0230
   69CHL1   C19 7552   2.067   6.595   7.223 -0.5298 -0.1988  0.1317
   69CHL1  H19A 7553   2.093   6.639   7.124  1.5686  3.3120  2.0041
   69CHL1  H19B 7554   2.044   6.688   7.281  1.5463 -0.5082  1.5844
   69CHL1  H19C 7555   2.161   6.554   7.266 -1.2649  0.0857  2.1062
   69CHL1    C1 7556   1.983   6.354   7.150 -0.7387  0.1973 -0.1334
   69CHL1   H1A 7557   2.069   6.318   7.210  1.5754  3.1153 -1.4318
   69CHL1   H1B 7558   1.904   6.276   7.160 -1.1230  0.5690 -0.2373
   69CHL1    C2 7559   2.021   6.358   7.003 -0.7725 -1.2619  0.0782
   69CHL1   H2A 7560   2.062   6.260   6.973 -0.3634 -0.5362 -1.8932
   69CHL1   H2B 7561   2.085   6.443   6.971 -1.9205 -0.9350 -1.4661
   69CHL1   C20 7562   1.892   6.505   7.922  0.1345 -0.0497 -0.1377
   69CHL1   H20 7563   1.943   6.602   7.909 -0.4294  0.0213 -2.1032
   69CHL1   C21 7564   1.985   6.378   7.925 -0.5053 -0.0118 -0.6768
   69CHL1  H21A 7565   2.083   6.400   7.878  0.8563 -1.2705  1.4103
   69CHL1  H21B 7566   1.936   6.284   7.892 -0.6590 -0.3209  0.4071
   69CHL1  H21C 7567   2.011   6.356   8.031 -0.3389 -0.1465 -0.7444
   69CHL1   C22 7568   1.803   6.503   8.045  0.4936 -0.0194 -0.4068
   69CHL1  H22A 7569   1.719   6.574   8.032  0.7143  0.2517 -0.3736
   69CHL1  H22B 7570   1.766   6.399   8.053  0.1109 -0.2192 -3.5422
   69CHL1   C23 7571   1.859   6.548   8.183  0.0770  0.6096 -0.2566
   69CHL1  H23A 7572   1.951   6.488   8.204  0.2943  1.5744  1.8055
   69CHL1  H23B 7573   1.903   6.648   8.165 -0.3912  0.8068 -0.3174
   69CHL1   C24 7574   1.767   6.538   8.306  0.2742 -0.4324 -0.0696
   69CHL1  H24A 7575   1.668   6.578   8.275 -0.7365 -4.3832 -2.7013
   69CHL1  H24B 7576   1.734   6.434   8.327 -0.8074 -0.2372 -0.7075
   69CHL1   C25 7577   1.827   6.594   8.434  0.6485  0.0319 -0.6582
   69CHL1   H25 7578   1.924   6.542   8.451 -0.8247 -2.4081  0.9163
   69CHL1   C26 7579   1.854   6.746   8.436 -0.1246 -0.4972 -0.2394
   69CHL1  H26A 7580   1.759   6.803   8.428  1.5160  2.3817 -0.5405
   69CHL1  H26B 7581   1.907   6.770   8.531 -0.5342 -3.0991  0.7324
   69CHL1  H26C 7582   1.910   6.776   8.345 -2.2903  0.2201 -1.4064
   69CHL1   C27 7583   1.744   6.550   8.559 -0.4519  0.5764  0.2553
   69CHL1  H27A 7584   1.803   6.542   8.653  0.6650 -0.1886 -0.4825
   69CHL1  H27B 7585   1.657   6.615   8.583 -0.8136  0.1296  0.1622
   69CHL1  H27C 7586   1.698   6.451   8.541 -1.5181  1.1504 -0.3052
   70CHL1    C3 7587   1.581   3.598   7.253 -0.0103  1.3681 -0.1646
   70CHL1    H3 7588   1.481   3.639   7.279 -0.9925 -0.8558 -0.2406
   70CHL1    O3 7589   1.581   3.577   7.110 -0.5899  0.3538 -0.4422
   70CHL1   H3' 7590   1.671   3.556   7.083 -0.6323 -1.1654  0.4948
   70CHL1    C4 7591   1.697   3.693   7.293  0.6498  0.4133 -0.3280
   70CHL1   H4A 7592   1.789   3.644   7.256  0.4419 -0.1256 -0.1523
   70CHL1   H4B 7593   1.675   3.794   7.251  0.4600  0.6423  0.3059
   70CHL1    C5 7594   1.686   3.715   7.441 -0.5981  0.6805 -0.6393
   70CHL1    C6 7595   1.672   3.832   7.498 -0.1526 -0.4222 -0.0589
   70CHL1    H6 7596   1.665   3.921   7.433 -0.8489 -0.2887  0.1864
   70CHL1    C7 7597   1.679   3.860   7.647 -1.0778  0.4168  0.0398
   70CHL1   H7A 7598   1.741   3.951   7.663 -2.9512  1.6471  0.7333
   70CHL1   H7B 7599   1.579   3.900   7.674 -1.4812 -0.2528 -0.4291
   70CHL1    C8 7600   1.734   3.736   7.733  0.2281  0.0161 -1.0009
   70CHL1    H8 7601   1.842   3.732   7.709  0.4318 -2.8203  0.0279
   70CHL1   C14 7602   1.715   3.753   7.885  1.1292 -0.0215 -0.0498
   70CHL1   H14 7603   1.605   3.738   7.886  0.8988  1.5295 -0.3956
   70CHL1   C15 7604   1.737   3.885   7.955 -0.9215  0.0028  0.3264
   70CHL1  H15A 7605   1.826   3.944   7.923 -2.7481  1.6370 -2.0579
   70CHL1  H15B 7606   1.648   3.949   7.940 -0.7373 -0.0155 -0.9600
   70CHL1   C16 7607   1.753   3.849   8.104  0.0265 -0.1908  0.2651
   70CHL1  H16A 7608   1.853   3.885   8.137  0.7897 -3.1901  1.5598
   70CHL1  H16B 7609   1.670   3.897   8.160  0.1405 -1.0333  1.1873
   70CHL1   C17 7610   1.745   3.693   8.110  0.0521  0.0767 -0.2618
   70CHL1   H17 7611   1.640   3.662   8.128 -0.9078  1.9076 -2.2549
   70CHL1   C13 7612   1.779   3.641   7.963 -0.2055  0.9623  0.0494
   70CHL1   C18 7613   1.935   3.640   7.941 -0.0983  0.2555 -0.2127
   70CHL1  H18A 7614   1.971   3.741   7.969 -0.9424  0.5525 -0.1896
   70CHL1  H18B 7615   1.991   3.570   8.007 -0.1199  0.8000  0.3879
   70CHL1  H18C 7616   1.957   3.622   7.834 -0.6421 -1.4354 -0.0697
   70CHL1   C12 7617   1.720   3.504   7.917  0.2263 -0.2167  0.2660
   70CHL1  H12A 7618   1.766   3.420   7.974  0.8495  0.4696  0.7964
   70CHL1  H12B 7619   1.615   3.508   7.951 -0.1057  1.9486 -0.8936
   70CHL1   C11 7620   1.735   3.470   7.769  0.7187  0.2113  0.5998
   70CHL1  H11A 7621   1.842   3.446   7.749 -0.0045 -2.6992 -0.2862
   70CHL1  H11B 7622   1.681   3.374   7.751 -1.6036  1.6834 -0.8992
   70CHL1    C9 7623   1.680   3.596   7.685  0.3140  0.4924  0.2186
   70CHL1    H9 7624   1.569   3.597   7.698  0.3891  0.3688  0.8961
   70CHL1   C10 7625   1.696   3.576   7.526 -0.6888 -0.1875 -0.0411
   70CHL1   C19 7626   1.838   3.523   7.500 -0.1693  0.0541 -0.4916
   70CHL1  H19A 7627   1.854   3.523   7.390 -0.8440  2.3004 -0.6501
   70CHL1  H19B 7628   1.914   3.592   7.544 -2.2118  1.9960  0.1870
   70CHL1  H19C 7629   1.854   3.417   7.531 -0.0116 -0.0291 -0.8568
   70CHL1    C1 7630   1.585   3.479   7.474 -0.3166  0.5866 -0.1661
   70CHL1   H1A 7631   1.604   3.380   7.522 -0.0433  0.6022 -0.2401
   70CHL1   H1B 7632   1.485   3.516   7.503  0.6475  1.2789  2.6259
   70CHL1    C2 7633   1.595   3.463   7.323 -0.5129 -0.1465  0.3468
   70CHL1   H2A 7634   1.519   3.393   7.281 -1.4352  0.5356  0.8312
   70CHL1   H2B 7635   1.694   3.428   7.287 -0.7710  0.3668 -0.9407
   70CHL1   C20 7636   1.818   3.642   8.231 -0.0378  0.0971  0.0407
   70CHL1   H20 7637   1.924   3.675   8.232 -0.2874  0.9725 -0.5377
   70CHL1   C21 7638   1.836   3.491   8.230 -0.2935  1.0295 -0.0440
   70CHL1  H21A 7639   1.906   3.466   8.313  1.2588  3.1500 -0.6213
   70CHL1  H21B 7640   1.891   3.447   8.144 -1.2108  0.8542 -0.5589
   70CHL1  H21C 7641   1.743   3.432   8.246  0.1620 -0.0536 -1.2171
   70CHL1   C22 7642   1.755   3.689   8.363  0.5658 -0.1205  0.4588
   70CHL1  H22A 7643   1.739   3.798   8.350  0.9446 -0.3411 -2.5819
   70CHL1  H22B 7644   1.650   3.653   8.366 -0.0502  1.5887  0.7013
   70CHL1   C23 7645   1.835   3.675   8.495 -0.6155  0.0271 -0.1529
   70CHL1  H23A 7646   1.861   3.568   8.506  1.4061  0.5587  0.7276
   70CHL1  H23B 7647   1.923   3.743   8.482 -0.5834 -0.1209 -0.7435
   70CHL1   C24 7648   1.755   3.734   8.610  0.6132 -0.0343 -0.1907
   70CHL1  H24A 7649   1.720   3.839   8.592  1.8225  0.6211  1.0994
   70CHL1  H24B 7650   1.668   3.666   8.596  2.4182 -2.3585 -0.6420
   70CHL1   C25 7651   1.813   3.703   8.749 -0.5341  0.6123 -0.5205
   70CHL1   H25 7652   1.920   3.731   8.740  0.3552 -2.1576  0.6076
   70CHL1   C26 7653   1.745   3.779   8.862  0.2762  0.4443 -0.4170
   70CHL1  H26A 7654   1.754   3.888   8.842  1.8154  0.9218  2.3996
   70CHL1  H26B 7655   1.643   3.738   8.877  0.4716 -0.1211 -0.6208
   70CHL1  H26C 7656   1.781   3.762   8.965 -0.2648  0.0291 -0.2952
   70CHL1   C27 7657   1.796   3.547   8.779  0.0256  0.2986  0.7375
   70CHL1  H27A 7658   1.853   3.521   8.871  0.2033  1.4565  0.9787
   70CHL1  H27B 7659   1.693   3.525   8.814  0.7013 -0.4319  2.3240
   70CHL1  H27C 7660   1.809   3.477   8.693 -1.0848 -0.0978  0.8799
   71CHL1    C3 7661   1.039   1.387   6.906 -0.9566  0.8634  0.4446
   71CHL1    H3 7662   0.964   1.309   6.877 -0.5358 -0.0118  1.6308
   71CHL1    O3 7663   1.097   1.437   6.791 -0.1572 -0.5583  0.3450
   71CHL1   H3' 7664   1.107   1.365   6.728  2.5071  0.6412 -0.7306
   71CHL1    C4 7665   0.961   1.493   6.983 -0.3466  0.2075  0.8464
   71CHL1   H4A 7666   1.017   1.589   6.984  0.0258  0.0268 -0.4721
   71CHL1   H4B 7667   0.875   1.532   6.924 -1.1751  1.2692  2.6799
   71CHL1    C5 7668   0.911   1.444   7.119 -0.5140 -0.2287  0.1325
   71CHL1    C6 7669   0.783   1.463   7.152 -0.3142 -0.3209  0.1461
   71CHL1    H6 7670   0.712   1.507   7.080 -1.7407  2.0536  2.7752
   71CHL1    C7 7671   0.728   1.430   7.283  0.2720 -0.0081  0.0543
   71CHL1   H7A 7672   0.661   1.509   7.322 -0.0353  0.1105 -0.7121
   71CHL1   H7B 7673   0.671   1.335   7.276  0.2380  0.0854 -1.0995
   71CHL1    C8 7674   0.841   1.414   7.389 -0.4187  1.1020 -0.6346
   71CHL1    H8 7675   0.886   1.512   7.417 -0.0790  0.9370 -0.5932
   71CHL1   C14 7676   0.791   1.344   7.515  0.1590  0.2728  1.0859
   71CHL1   H14 7677   0.752   1.246   7.479 -0.3204  0.6850  0.4629
   71CHL1   C15 7678   0.671   1.404   7.594 -0.7173 -0.4701  0.7133
   71CHL1  H15A 7679   0.674   1.514   7.582 -1.6685 -0.7123 -3.1844
   71CHL1  H15B 7680   0.575   1.357   7.562 -0.6788 -1.5444  2.0864
   71CHL1   C16 7681   0.696   1.369   7.740 -0.0161  0.4927  0.3140
   71CHL1  H16A 7682   0.718   1.460   7.800 -0.7763  0.4478  0.6656
   71CHL1  H16B 7683   0.609   1.318   7.786  1.9126 -1.3933  2.0978
   71CHL1   C17 7684   0.814   1.267   7.735 -0.3653 -0.1263  0.3421
   71CHL1   H17 7685   0.769   1.175   7.692  1.1703 -0.8724  0.2547
   71CHL1   C13 7686   0.898   1.317   7.618  0.8489 -0.0013 -0.1948
   71CHL1   C18 7687   0.951   1.457   7.654  0.1983 -0.1493  0.6952
   71CHL1  H18A 7688   0.870   1.533   7.661  0.9976  0.6964  0.9434
   71CHL1  H18B 7689   0.989   1.450   7.758 -0.7882 -1.7270  0.9847
   71CHL1  H18C 7690   1.020   1.500   7.578 -3.0858 -0.1124 -2.5794
   71CHL1   C12 7691   1.005   1.220   7.563  0.0081  0.6023 -0.0861
   71CHL1  H12A 7692   1.061   1.187   7.653 -0.9568 -1.2267 -0.1085
   71CHL1  H12B 7693   0.944   1.132   7.530 -0.1569  0.8609 -0.4801
   71CHL1   C11 7694   1.069   1.274   7.440  0.1742  0.0172  0.4660
   71CHL1  H11A 7695   1.133   1.361   7.465 -1.3772  1.1162  0.7707
   71CHL1  H11B 7696   1.118   1.192   7.383 -0.6421 -0.0045 -0.2164
   71CHL1    C9 7697   0.954   1.319   7.333  0.3497  1.0704  0.7605
   71CHL1    H9 7698   0.911   1.219   7.309  2.5097  0.2345  0.0360
   71CHL1   C10 7699   1.014   1.377   7.204  0.5344  0.2025 -0.4914
   71CHL1   C19 7700   1.111   1.484   7.243 -0.6696  1.0957 -0.1712
   71CHL1  H19A 7701   1.212   1.443   7.266 -1.2258  0.8960  2.1474
   71CHL1  H19B 7702   1.132   1.567   7.171  1.6992  1.8534  1.2697
   71CHL1  H19C 7703   1.077   1.529   7.338  0.0304  0.2814  0.4791
   71CHL1    C1 7704   1.082   1.267   7.117 -0.1950 -0.5513  0.4110
   71CHL1   H1A 7705   1.164   1.215   7.171  2.4524  3.0151  0.2665
   71CHL1   H1B 7706   1.007   1.193   7.081  0.2428 -1.3736  1.1601
   71CHL1    C2 7707   1.146   1.327   6.993  0.3429 -0.1694  0.5296
   71CHL1   H2A 7708   1.189   1.237   6.944 -0.4906 -0.4333  0.2668
   71CHL1   H2B 7709   1.218   1.408   7.017  2.1517 -1.4134 -0.3829
   71CHL1   C20 7710   0.884   1.236   7.863  0.2532 -0.1301 -0.0837
   71CHL1   H20 7711   0.990   1.207   7.847  0.7647  1.9506 -0.7160
   71CHL1   C21 7712   0.819   1.102   7.916 -0.2515  0.7032 -0.4082
   71CHL1  H21A 7713   0.708   1.102   7.910 -0.2255 -0.8746 -1.2185
   71CHL1  H21B 7714   0.856   1.094   8.021  0.2648 -1.9573 -0.7329
   71CHL1  H21C 7715   0.868   1.019   7.862 -1.1824 -0.9215  1.1377
   71CHL1   C22 7716   0.886   1.338   7.978  0.0393 -0.1154 -0.3301
   71CHL1  H22A 7717   0.909   1.438   7.937  1.1976  0.0156  0.5968
   71CHL1  H22B 7718   0.785   1.347   8.024 -0.0586 -1.2767 -0.2992
   71CHL1   C23 7719   0.995   1.322   8.081  0.2981 -0.2133  0.1878
   71CHL1  H23A 7720   0.980   1.229   8.140 -0.6751 -0.4668 -0.4304
   71CHL1  H23B 7721   1.099   1.315   8.043  0.9515  1.2192  1.5838
   71CHL1   C24 7722   0.987   1.448   8.177  0.1794 -0.2088 -0.4184
   71CHL1  H24A 7723   1.083   1.466   8.229 -0.1210 -0.5277  0.2575
   71CHL1  H24B 7724   0.960   1.521   8.098 -1.4190 -1.7309 -1.3530
   71CHL1   C25 7725   0.871   1.436   8.272  0.6067  0.3782 -0.5217
   71CHL1   H25 7726   0.795   1.370   8.225  0.1644 -1.0424  1.9836
   71CHL1   C26 7727   0.911   1.372   8.412  0.3558 -0.3266  0.9446
   71CHL1  H26A 7728   0.953   1.273   8.383 -0.7428  0.1982 -2.9794
   71CHL1  H26B 7729   0.979   1.433   8.475 -0.7251  1.5333  0.3852
   71CHL1  H26C 7730   0.824   1.357   8.480  0.5249  1.2362  1.5593
   71CHL1   C27 7731   0.816   1.573   8.296 -0.3042 -0.0761  1.1518
   71CHL1  H27A 7732   0.895   1.625   8.354  1.4409 -1.3429 -0.0268
   71CHL1  H27B 7733   0.788   1.610   8.195 -1.9416  1.0223  1.9651
   71CHL1  H27C 7734   0.726   1.568   8.362 -1.0947  1.2969  0.2342
   72CHL1    C3 7735   1.258   3.836   7.141  0.5996 -0.4035  0.1651
   72CHL1    H3 7736   1.365   3.809   7.140  0.6941 -0.0308 -0.1688
   72CHL1    O3 7737   1.223   3.807   7.003  1.0748 -0.3955  0.0357
   72CHL1   H3' 7738   1.150   3.865   6.982 -0.0742 -1.8129 -0.0720
   72CHL1    C4 7739   1.189   3.741   7.238  0.7253 -0.3590 -0.3446
   72CHL1   H4A 7740   1.079   3.757   7.229  0.7344  1.4989  1.8180
   72CHL1   H4B 7741   1.215   3.639   7.205 -0.8904 -0.3063 -1.9919
   72CHL1    C5 7742   1.224   3.771   7.384 -0.1658  0.5776 -0.0945
   72CHL1    C6 7743   1.255   3.672   7.469  0.6902 -0.1359 -0.0470
   72CHL1    H6 7744   1.249   3.570   7.430  2.3490 -0.3019  0.0832
   72CHL1    C7 7745   1.287   3.696   7.615  0.6600  0.0721 -0.2693
   72CHL1   H7A 7746   1.229   3.623   7.676  0.0556  0.1752 -0.7048
   72CHL1   H7B 7747   1.397   3.687   7.626  0.7959  0.4421 -1.2484
   72CHL1    C8 7748   1.236   3.835   7.660 -0.2871 -0.1983  0.4187
   72CHL1    H8 7749   1.126   3.829   7.676 -0.4127  1.0240  0.1227
   72CHL1   C14 7750   1.298   3.874   7.793  0.4486  0.3176 -0.5599
   72CHL1   H14 7751   1.406   3.890   7.772  0.6161  0.5502  0.4378
   72CHL1   C15 7752   1.286   3.778   7.915  0.0772  0.0474  0.2353
   72CHL1  H15A 7753   1.181   3.742   7.916 -0.0764  0.4557 -0.5123
   72CHL1  H15B 7754   1.354   3.691   7.903 -0.6474 -0.4732 -0.2082
   72CHL1   C16 7755   1.318   3.856   8.041 -0.5915  0.8987  0.1987
   72CHL1  H16A 7756   1.233   3.844   8.111 -0.6241 -3.2213 -0.3335
   72CHL1  H16B 7757   1.412   3.820   8.088 -1.3076  0.5738  1.4077
   72CHL1   C17 7758   1.333   4.007   7.995 -0.5420 -0.2844  0.1074
   72CHL1   H17 7759   1.439   4.023   7.964 -0.3814 -0.4013  0.5792
   72CHL1   C13 7760   1.255   4.011   7.863 -1.1003  0.1363 -0.4368
   72CHL1   C18 7761   1.104   4.025   7.887  0.1433 -0.4625 -0.4926
   72CHL1  H18A 7762   1.081   4.129   7.920  2.8143  0.3035 -0.7527
   72CHL1  H18B 7763   1.049   4.003   7.793 -2.3547 -1.7904  1.1954
   72CHL1  H18C 7764   1.077   3.954   7.967 -1.9598  1.9522  1.0910
   72CHL1   C12 7765   1.316   4.115   7.759 -0.1451 -0.4597  0.0135
   72CHL1  H12A 7766   1.295   4.218   7.795  0.6794 -0.4893  0.6251
   72CHL1  H12B 7767   1.425   4.099   7.749 -0.0103 -0.5067  1.3841
   72CHL1   C11 7768   1.253   4.089   7.617 -0.1663 -0.0468 -0.1198
   72CHL1  H11A 7769   1.143   4.099   7.624 -0.3096 -0.2744 -1.6595
   72CHL1  H11B 7770   1.279   4.165   7.541 -1.9754 -0.7647 -1.5373
   72CHL1    C9 7771   1.270   3.942   7.561 -0.4450  0.1681  0.4680
   72CHL1    H9 7772   1.381   3.943   7.556 -0.2925  3.4136  1.6170
   72CHL1   C10 7773   1.208   3.918   7.422 -0.4766 -0.2283  0.1875
   72CHL1   C19 7774   1.061   3.959   7.424 -0.6708  0.0669  0.2015
   72CHL1  H19A 7775   1.016   3.909   7.512  0.7207 -1.1030  0.2790
   72CHL1  H19B 7776   1.053   4.069   7.439  1.2176  0.0863  1.3616
   72CHL1  H19C 7777   1.001   3.932   7.335 -3.8274  3.6200  0.9782
   72CHL1    C1 7778   1.281   4.010   7.317 -0.2172  0.3686 -0.1024
   72CHL1   H1A 7779   1.257   4.115   7.345  0.7649  0.9990 -1.4961
   72CHL1   H1B 7780   1.390   3.988   7.321 -0.0501  0.9103 -1.3784
   72CHL1    C2 7781   1.241   3.985   7.172  0.0943  0.2117  0.1918
   72CHL1   H2A 7782   1.297   4.047   7.099 -2.6515  1.5226 -0.9699
   72CHL1   H2B 7783   1.135   4.018   7.170  0.5796  1.8279 -0.8207
   72CHL1   C20 7784   1.296   4.107   8.111  0.6970  0.6434  0.0157
   72CHL1   H20 7785   1.186   4.101   8.130  0.1579  2.7960 -2.0425
   72CHL1   C21 7786   1.319   4.251   8.057 -0.9888 -0.1121 -0.3331
   72CHL1  H21A 7787   1.423   4.259   8.022 -0.7757 -2.3849 -0.3438
   72CHL1  H21B 7788   1.305   4.323   8.141 -0.7878 -1.8446  1.2679
   72CHL1  H21C 7789   1.257   4.284   7.971 -0.6658  1.2347 -0.0685
   72CHL1   C22 7790   1.375   4.058   8.239  0.4575 -0.2564 -0.1478
   72CHL1  H22A 7791   1.303   3.985   8.281 -0.6256  0.5245 -0.6040
   72CHL1  H22B 7792   1.479   4.028   8.216  0.9211  2.2133 -1.6909
   72CHL1   C23 7793   1.400   4.172   8.349  0.2627  0.0635  0.5780
   72CHL1  H23A 7794   1.485   4.233   8.312  0.7117 -0.8959 -0.0004
   72CHL1  H23B 7795   1.313   4.239   8.367  0.5028  0.6527 -0.4160
   72CHL1   C24 7796   1.441   4.110   8.482 -0.3575  0.7043  0.4057
   72CHL1  H24A 7797   1.535   4.057   8.455 -0.6203 -0.3613  1.5068
   72CHL1  H24B 7798   1.471   4.197   8.544  0.6084  1.1535 -0.6586
   72CHL1   C25 7799   1.326   4.035   8.555 -0.6095  0.3273 -0.5111
   72CHL1   H25 7800   1.229   4.070   8.514 -1.1764 -2.6807 -2.0438
   72CHL1   C26 7801   1.327   3.877   8.534  0.0769  0.0377 -0.1954
   72CHL1  H26A 7802   1.350   3.853   8.428  1.8062 -1.5278  0.4753
   72CHL1  H26B 7803   1.409   3.823   8.586  0.4806 -0.9558 -1.8115
   72CHL1  H26C 7804   1.233   3.825   8.562 -1.1475  0.9096 -2.4901
   72CHL1   C27 7805   1.332   4.062   8.707  0.1029 -0.1840  0.6049
   72CHL1  H27A 7806   1.425   4.015   8.745 -0.4238 -2.0961 -0.3722
   72CHL1  H27B 7807   1.316   4.169   8.734  0.3025 -0.1323  0.5139
   72CHL1  H27C 7808   1.250   4.002   8.753  0.0521 -1.1760 -0.7112
   73CHL1    C3 7809   0.691   0.558   7.219  0.3916  0.5305  0.0804
   73CHL1    H3 7810   0.765   0.640   7.229  1.0823  0.1199 -1.3551
   73CHL1    O3 7811   0.638   0.553   7.086 -0.0007 -0.3578  0.1856
   73CHL1   H3' 7812   0.589   0.471   7.092  2.4596 -1.9146  0.6512
   73CHL1    C4 7813   0.766   0.427   7.249 -0.9967  0.0121 -0.7829
   73CHL1   H4A 7814   0.698   0.348   7.210 -1.1538  0.4358 -1.3875
   73CHL1   H4B 7815   0.862   0.432   7.193 -0.1344  0.1777  0.6747
   73CHL1    C5 7816   0.792   0.406   7.392  0.1651  0.7034 -0.1060
   73CHL1    C6 7817   0.915   0.365   7.434  1.0219  0.1623 -0.6178
   73CHL1    H6 7818   0.999   0.348   7.365  0.8368 -2.0270 -0.3838
   73CHL1    C7 7819   0.949   0.324   7.573  0.1551  0.1516 -0.4903
   73CHL1   H7A 7820   1.019   0.238   7.574  1.0713  0.8881 -0.0508
   73CHL1   H7B 7821   0.995   0.418   7.610 -1.3246  0.8512 -0.3382
   73CHL1    C8 7822   0.828   0.289   7.659 -0.0478  0.3631 -0.3899
   73CHL1    H8 7823   0.795   0.188   7.628  0.2199 -0.6660  2.3882
   73CHL1   C14 7824   0.870   0.290   7.805 -0.1262 -0.1347  0.0803
   73CHL1   H14 7825   0.901   0.396   7.821  2.8336 -0.9699  0.3196
   73CHL1   C15 7826   0.993   0.214   7.849  0.0787  0.8837  0.1593
   73CHL1  H15A 7827   0.979   0.111   7.808  0.2527 -0.2180  2.6897
   73CHL1  H15B 7828   1.093   0.255   7.825  1.0871 -2.3078 -1.7552
   73CHL1   C16 7829   0.961   0.200   8.001  0.2774 -0.8577 -0.4835
   73CHL1  H16A 7830   0.958   0.092   8.025 -0.2208 -0.1698  3.0424
   73CHL1  H16B 7831   1.037   0.243   8.070 -1.1350 -0.2933  0.7814
   73CHL1   C17 7832   0.827   0.269   8.029  0.4646 -0.1870 -0.7380
   73CHL1   H17 7833   0.850   0.377   8.043 -0.1257  0.0604 -1.6037
   73CHL1   C13 7834   0.759   0.264   7.897 -0.3572 -0.3538  0.8604
   73CHL1   C18 7835   0.704   0.116   7.879 -0.4160 -0.5783  0.4158
   73CHL1  H18A 7836   0.781   0.038   7.894  0.7365  0.7448  1.7829
   73CHL1  H18B 7837   0.627   0.106   7.958 -0.9115  0.2104  0.0495
   73CHL1  H18C 7838   0.660   0.116   7.777 -0.2177 -4.6445  0.1689
   73CHL1   C12 7839   0.648   0.373   7.884 -0.0683 -0.3908  0.2644
   73CHL1  H12A 7840   0.559   0.352   7.947 -0.9431 -1.6834 -1.3238
   73CHL1  H12B 7841   0.695   0.470   7.910 -0.6509  0.1962 -0.7985
   73CHL1   C11 7842   0.597   0.391   7.741  0.1479 -0.3850 -0.0110
   73CHL1  H11A 7843   0.518   0.318   7.713 -0.2220 -0.5545  1.3971
   73CHL1  H11B 7844   0.549   0.491   7.747  1.3138  0.1288  1.2423
   73CHL1    C9 7845   0.713   0.398   7.633 -0.4468  0.1054 -0.1145
   73CHL1    H9 7846   0.769   0.494   7.644  0.5034 -0.1370 -2.3493
   73CHL1   C10 7847   0.672   0.418   7.484 -0.3484 -0.1888  0.2038
   73CHL1   C19 7848   0.559   0.313   7.453 -0.1350 -0.5724 -0.5255
   73CHL1  H19A 7849   0.584   0.221   7.509 -1.2422 -0.4254  0.2554
   73CHL1  H19B 7850   0.461   0.341   7.497  0.2649 -0.8745  0.5667
   73CHL1  H19C 7851   0.550   0.286   7.345  0.9983 -1.9376 -0.2957
   73CHL1    C1 7852   0.615   0.562   7.461  0.0763 -0.2633 -0.4646
   73CHL1   H1A 7853   0.534   0.576   7.535  0.4016  0.0455 -0.1600
   73CHL1   H1B 7854   0.699   0.632   7.485 -0.1512  0.0623 -0.6152
   73CHL1    C2 7855   0.574   0.586   7.316 -0.0571  0.3767  0.6366
   73CHL1   H2A 7856   0.548   0.694   7.308 -0.5232  0.2412  0.3342
   73CHL1   H2B 7857   0.486   0.527   7.285  1.5022 -0.7752 -1.9872
   73CHL1   C20 7858   0.772   0.203   8.164  0.1822  0.1754 -0.4993
   73CHL1   H20 7859   0.751   0.097   8.138 -0.8864  0.8193 -2.4808
   73CHL1   C21 7860   0.630   0.261   8.203  0.3749  0.0592 -0.3586
   73CHL1  H21A 7861   0.626   0.371   8.222  0.0968 -0.2211  1.3167
   73CHL1  H21B 7862   0.594   0.216   8.298  1.2217 -0.3631 -0.2273
   73CHL1  H21C 7863   0.551   0.236   8.129 -1.2773 -0.2640  1.4255
   73CHL1   C22 7864   0.868   0.213   8.277 -0.1584  0.8515 -0.5248
   73CHL1  H22A 7865   0.809   0.176   8.364 -0.3276  1.7542 -0.2457
   73CHL1  H22B 7866   0.956   0.146   8.274 -0.6421  0.1196  0.6452
   73CHL1   C23 7867   0.928   0.346   8.315 -0.7361  0.5000  0.1168
   73CHL1  H23A 7868   0.982   0.377   8.222 -0.8471 -0.5013 -0.2956
   73CHL1  H23B 7869   0.847   0.418   8.339  0.8026  2.2202  0.3389
   73CHL1   C24 7870   1.016   0.339   8.439 -0.1315  0.2360 -0.5198
   73CHL1  H24A 7871   1.104   0.286   8.397 -0.0441  1.2893 -1.7196
   73CHL1  H24B 7872   1.038   0.447   8.448 -0.9584  0.3779 -0.0351
   73CHL1   C25 7873   0.955   0.281   8.578  0.4173 -0.2603  0.2563
   73CHL1   H25 7874   0.928   0.173   8.570  0.4818 -0.2970  0.5361
   73CHL1   C26 7875   1.071   0.280   8.679 -0.7540  0.1376  0.0666
   73CHL1  H26A 7876   1.114   0.383   8.679  3.0709 -1.3086 -1.0701
   73CHL1  H26B 7877   1.030   0.240   8.774 -1.1588 -0.2110 -0.2525
   73CHL1  H26C 7878   1.146   0.210   8.637 -0.9100  0.5473 -0.9291
   73CHL1   C27 7879   0.839   0.368   8.619  0.5617  0.1813  0.0255
   73CHL1  H27A 7880   0.803   0.342   8.721 -1.2707  1.6634 -0.1968
   73CHL1  H27B 7881   0.870   0.474   8.628 -0.1108  0.4273 -0.5017
   73CHL1  H27C 7882   0.744   0.353   8.564  0.0955 -0.8013  1.0499
   74CHL1    C3 7883   6.679   6.709   6.847  1.0024  0.2949  0.0000
   74CHL1    H3 7884   6.727   6.609   6.854 -0.9011 -0.5321  2.8892
   74CHL1    O3 7885   6.659   6.738   6.710  0.1652 -0.1447 -0.1542
   74CHL1   H3' 7886   6.564   6.743   6.692 -0.3605  0.7560  2.4191
   74CHL1    C4 7887   6.540   6.723   6.917 -0.6960  1.0620  0.8160
   74CHL1   H4A 7888   6.512   6.829   6.900  1.3440  1.0609 -4.4860
   74CHL1   H4B 7889   6.467   6.651   6.874  2.4142 -1.1644 -1.2161
   74CHL1    C5 7890   6.568   6.685   7.058  0.0051  0.2645  0.2790
   74CHL1    C6 7891   6.500   6.580   7.114 -0.2086 -0.4749 -0.2342
   74CHL1    H6 7892   6.426   6.518   7.061 -1.0343  1.7811 -1.8612
   74CHL1    C7 7893   6.507   6.541   7.268 -0.6263 -0.6304  0.0540
   74CHL1   H7A 7894   6.415   6.498   7.313  0.6780 -3.0736  0.5567
   74CHL1   H7B 7895   6.575   6.453   7.268  0.7776  0.4206  0.0181
   74CHL1    C8 7896   6.557   6.659   7.342  0.4656  0.0642 -0.3561
   74CHL1    H8 7897   6.478   6.736   7.356 -2.4438 -2.4891 -1.5417
   74CHL1   C14 7898   6.593   6.610   7.477 -0.4519  0.5424  0.0699
   74CHL1   H14 7899   6.676   6.537   7.465  1.0029  1.6145  2.7060
   74CHL1   C15 7900   6.487   6.537   7.576 -0.6510  0.3137 -0.6477
   74CHL1  H15A 7901   6.394   6.598   7.570 -0.2417  0.9899 -0.3476
   74CHL1  H15B 7902   6.467   6.431   7.552 -1.1977 -0.4018  2.5615
   74CHL1   C16 7903   6.566   6.540   7.708  0.5866 -0.1308  0.1940
   74CHL1  H16A 7904   6.498   6.581   7.786  0.0822 -1.5687  0.5293
   74CHL1  H16B 7905   6.602   6.438   7.732  1.1891 -0.5094 -2.1190
   74CHL1   C17 7906   6.693   6.630   7.690 -0.1685  0.3393  0.1273
   74CHL1   H17 7907   6.771   6.558   7.657 -1.4461 -1.0278 -0.0107
   74CHL1   C13 7908   6.657   6.713   7.563  0.5394  0.0035 -0.4199
   74CHL1   C18 7909   6.553   6.832   7.593  0.2127 -0.0444 -0.4116
   74CHL1  H18A 7910   6.508   6.871   7.499  0.9184  3.5514  0.6002
   74CHL1  H18B 7911   6.474   6.799   7.664  0.9039  0.6004  0.6824
   74CHL1  H18C 7912   6.604   6.915   7.647 -0.3712 -0.3262  0.6184
   74CHL1   C12 7913   6.777   6.765   7.502  0.7306 -0.4541 -0.1574
   74CHL1  H12A 7914   6.820   6.848   7.562  0.5700  0.2822 -1.0400
   74CHL1  H12B 7915   6.865   6.697   7.496 -0.5636 -2.1702 -0.4560
   74CHL1   C11 7916   6.757   6.822   7.365  0.1228 -0.4418 -0.8001
   74CHL1  H11A 7917   6.701   6.916   7.378 -1.4707 -1.4355 -0.2370
   74CHL1  H11B 7918   6.854   6.850   7.319 -0.2427  0.9228 -0.7667
   74CHL1    C9 7919   6.685   6.718   7.277  0.5302  0.5078  0.2071
   74CHL1    H9 7920   6.746   6.627   7.263 -0.4590 -0.0511 -0.6969
   74CHL1   C10 7921   6.667   6.782   7.134 -0.1412 -0.1708  0.2656
   74CHL1   C19 7922   6.622   6.929   7.146 -0.1230  0.0943  0.3829
   74CHL1  H19A 7923   6.704   6.990   7.187  0.0102 -0.3451  0.7779
   74CHL1  H19B 7924   6.582   6.983   7.057 -0.7857  0.6630  1.0203
   74CHL1  H19C 7925   6.544   6.939   7.224  0.3819 -1.0386  1.0557
   74CHL1    C1 7926   6.803   6.775   7.062  0.0271  0.4585 -0.1894
   74CHL1   H1A 7927   6.879   6.849   7.096  0.1591 -0.1572  0.9001
   74CHL1   H1B 7928   6.850   6.674   7.069  1.7807  0.8944 -3.3862
   74CHL1    C2 7929   6.782   6.803   6.911 -0.0777  0.6291  0.1339
   74CHL1   H2A 7930   6.877   6.799   6.855 -0.2923 -1.2671 -0.1535
   74CHL1   H2B 7931   6.736   6.905   6.905 -0.9137  0.2492 -0.1043
   74CHL1   C20 7932   6.754   6.695   7.811 -0.2671  0.2306 -0.2877
   74CHL1   H20 7933   6.840   6.761   7.787 -0.2052 -0.4173 -2.0160
   74CHL1   C21 7934   6.815   6.578   7.892  0.0951  0.6788 -0.1924
   74CHL1  H21A 7935   6.869   6.609   7.983 -2.1640 -0.0179  1.4617
   74CHL1  H21B 7936   6.898   6.528   7.837  0.6153 -0.3371  1.4437
   74CHL1  H21C 7937   6.736   6.506   7.921  1.1500  0.2127  1.6701
   74CHL1   C22 7938   6.658   6.775   7.899 -0.3041  0.0721 -0.2084
   74CHL1  H22A 7939   6.648   6.869   7.841  0.3340  0.0082 -0.4353
   74CHL1  H22B 7940   6.558   6.727   7.898 -0.1123 -0.4972  2.1203
   74CHL1   C23 7941   6.715   6.801   8.043  0.7903  1.1097  0.3173
   74CHL1  H23A 7942   6.715   6.709   8.105  0.4267  0.7471 -0.2055
   74CHL1  H23B 7943   6.822   6.829   8.049  0.6363  1.9941 -0.6938
   74CHL1   C24 7944   6.628   6.889   8.127  0.3623  0.8191  0.2948
   74CHL1  H24A 7945   6.614   6.985   8.072 -1.0329  0.6945  0.3861
   74CHL1  H24B 7946   6.528   6.842   8.136  1.1981 -1.1414 -0.0498
   74CHL1   C25 7947   6.684   6.919   8.268 -0.3194  0.6156  0.0412
   74CHL1   H25 7948   6.602   6.958   8.332  0.0878 -1.7051  2.1838
   74CHL1   C26 7949   6.737   6.793   8.348  0.0910 -0.2437  0.5258
   74CHL1  H26A 7950   6.784   6.825   8.443  1.7056  0.5551 -0.4868
   74CHL1  H26B 7951   6.656   6.722   8.373 -0.7137  0.4589 -0.0377
   74CHL1  H26C 7952   6.817   6.740   8.291  0.9424 -1.2349  2.5568
   74CHL1   C27 7953   6.789   7.028   8.253 -0.6100  0.1398 -0.4716
   74CHL1  H27A 7954   6.744   7.106   8.189 -0.6479  1.7963  1.4678
   74CHL1  H27B 7955   6.828   7.080   8.343  0.3149  1.3515 -1.5367
   74CHL1  H27C 7956   6.885   6.989   8.213 -0.9074 -1.7335  0.5254
   75CHL1    C3 7957   3.650   0.358   6.678  0.0407 -0.3222  0.1145
   75CHL1    H3 7958   3.701   0.453   6.707  0.4137 -0.9148  1.4428
   75CHL1    O3 7959   3.636   0.377   6.539  0.2574 -0.2589 -0.9248
   75CHL1   H3' 7960   3.725   0.386   6.505 -0.2088 -2.6126 -3.0555
   75CHL1    C4 7961   3.736   0.237   6.696  0.4594 -0.1869  0.2343
   75CHL1   H4A 7962   3.684   0.149   6.652 -0.6380  1.4048 -1.8257
   75CHL1   H4B 7963   3.832   0.245   6.641  0.8608 -0.0276  0.9508
   75CHL1    C5 7964   3.768   0.206   6.839  0.5041 -0.1090 -0.0728
   75CHL1    C6 7965   3.900   0.186   6.874  0.0362  0.1017 -0.4702
   75CHL1    H6 7966   3.985   0.198   6.805 -0.2772  1.6534 -0.6190
   75CHL1    C7 7967   3.934   0.172   7.026 -0.3442  0.7742 -0.4695
   75CHL1   H7A 7968   4.012   0.093   7.030  2.0775  2.9918 -1.3595
   75CHL1   H7B 7969   3.973   0.268   7.066 -0.4915  0.8520 -0.5105
   75CHL1    C8 7970   3.814   0.129   7.122  0.4453 -0.8051  0.2374
   75CHL1    H8 7971   3.788   0.022   7.107 -0.1836 -0.9623  2.1137
   75CHL1   C14 7972   3.846   0.143   7.266  0.2534 -0.3121  0.3983
   75CHL1   H14 7973   3.889   0.244   7.281 -0.7874  0.1380  0.4026
   75CHL1   C15 7974   3.950   0.044   7.320 -0.2329 -0.2288  0.2210
   75CHL1  H15A 7975   3.933  -0.062   7.292 -0.6199  0.1307 -0.9764
   75CHL1  H15B 7976   4.049   0.082   7.287 -0.0338 -1.7159 -0.9851
   75CHL1   C16 7977   3.936   0.049   7.477 -0.2607 -0.3155  0.5318
   75CHL1  H16A 7978   3.949  -0.055   7.513  2.6197 -0.8350 -1.6489
   75CHL1  H16B 7979   4.021   0.108   7.517 -0.6701 -0.1760  1.2138
   75CHL1   C17 7980   3.800   0.121   7.500  0.0400 -0.5974 -0.4294
   75CHL1   H17 7981   3.836   0.225   7.511 -2.7211  0.3665  0.3266
   75CHL1   C13 7982   3.727   0.122   7.369  0.0985 -0.7985  0.2966
   75CHL1   C18 7983   3.671  -0.027   7.367 -0.5298 -0.1369  0.3654
   75CHL1  H18A 7984   3.662  -0.049   7.258 -0.8032  1.3435  0.0613
   75CHL1  H18B 7985   3.736  -0.106   7.409  1.1090  0.9385 -0.0233
   75CHL1  H18C 7986   3.573  -0.035   7.419 -0.1664 -0.3268  1.0323
   75CHL1   C12 7987   3.616   0.223   7.331 -0.3876 -0.3218 -0.6386
   75CHL1  H12A 7988   3.537   0.215   7.409  1.1010 -0.7915  0.8799
   75CHL1  H12B 7989   3.645   0.330   7.339  0.3841 -0.6487  1.7429
   75CHL1   C11 7990   3.577   0.207   7.185 -0.0802  0.4212 -0.0804
   75CHL1  H11A 7991   3.531   0.107   7.173  2.4983 -1.3310  2.8260
   75CHL1  H11B 7992   3.501   0.286   7.169 -0.2827  0.4662  1.0029
   75CHL1    C9 7993   3.697   0.221   7.085  0.8958 -0.2310 -0.2420
   75CHL1    H9 7994   3.741   0.320   7.108 -1.2234  0.8554 -0.6479
   75CHL1   C10 7995   3.653   0.215   6.940 -0.4001 -0.0300 -0.2444
   75CHL1   C19 7996   3.586   0.079   6.917 -0.7747  0.0829  0.2170
   75CHL1  H19A 7997   3.480   0.071   6.949 -0.6398  0.2825  0.7195
   75CHL1  H19B 7998   3.571   0.057   6.809 -1.2531 -1.4849  0.5714
   75CHL1  H19C 7999   3.646  -0.000   6.967  1.2861 -0.4550 -2.8109
   75CHL1    C1 8000   3.545   0.328   6.898  0.4608  0.1738 -0.1664
   75CHL1   H1A 8001   3.452   0.317   6.958  0.1226  1.9377 -0.3265
   75CHL1   H1B 8002   3.594   0.417   6.943 -0.1655  0.1274  0.6288
   75CHL1    C2 8003   3.519   0.352   6.749 -0.4044 -0.1361 -0.5075
   75CHL1   H2A 8004   3.478   0.455   6.759  0.7962  0.2129  1.2542
   75CHL1   H2B 8005   3.442   0.285   6.705  0.1507 -1.6280  0.6919
   75CHL1   C20 8006   3.728   0.087   7.639 -0.0647  0.5894  0.5422
   75CHL1   H20 8007   3.661  -0.001   7.633 -1.2342  1.2958  2.4286
   75CHL1   C21 8008   3.634   0.205   7.676 -0.3299 -0.1671 -0.0267
   75CHL1  H21A 8009   3.557   0.176   7.751 -1.8580 -2.9986 -2.5011
   75CHL1  H21B 8010   3.577   0.235   7.586 -1.4766 -2.6238 -0.1964
   75CHL1  H21C 8011   3.702   0.284   7.716 -0.1528 -1.2256  1.8513
   75CHL1   C22 8012   3.826   0.055   7.753 -0.1111 -0.5182  0.3709
   75CHL1  H22A 8013   3.897  -0.028   7.729  2.0957  1.6795 -1.1538
   75CHL1  H22B 8014   3.884   0.149   7.764 -0.8734 -0.0182  0.1683
   75CHL1   C23 8015   3.755   0.008   7.886 -0.9573  0.1241 -1.5803
   75CHL1  H23A 8016   3.705   0.092   7.940  2.1471  0.1515  1.6406
   75CHL1  H23B 8017   3.679  -0.072   7.872 -2.4685  1.7308 -3.0525
   75CHL1   C24 8018   3.863  -0.018   8.000 -0.5009 -0.6367  0.4744
   75CHL1  H24A 8019   3.930  -0.097   7.960  1.0437  1.7311 -1.9405
   75CHL1  H24B 8020   3.928   0.073   7.998 -0.7062 -0.4957 -0.8221
   75CHL1   C25 8021   3.806  -0.065   8.134 -0.3180  0.4785 -0.3749
   75CHL1   H25 8022   3.716  -0.009   8.167 -1.0996 -0.4236 -0.9215
   75CHL1   C26 8023   3.757  -0.216   8.114  0.8028 -1.0072  0.3400
   75CHL1  H26A 8024   3.671  -0.220   8.044 -0.7484 -0.0514  2.0976
   75CHL1  H26B 8025   3.826  -0.271   8.047 -1.1396 -0.8561 -1.9487
   75CHL1  H26C 8026   3.752  -0.258   8.217  1.1215  0.7947  1.1192
   75CHL1   C27 8027   3.901  -0.063   8.258  0.0867 -0.2362  0.1005
   75CHL1  H27A 8028   3.848  -0.059   8.355  2.4951  0.3755  1.4484
   75CHL1  H27B 8029   3.965  -0.154   8.257 -0.1025 -0.3702 -0.1102
   75CHL1  H27C 8030   3.967   0.026   8.254  0.3650 -0.4035 -4.1162
   76CHL1    C3 8031   1.711   2.663   7.459  0.3683 -0.2590  0.9492
   76CHL1    H3 8032   1.816   2.629   7.446  0.1674 -0.6201  0.2155
   76CHL1    O3 8033   1.656   2.672   7.328  0.2064  0.0421 -0.6720
   76CHL1   H3' 8034   1.563   2.693   7.340  0.1468  0.3207 -1.5140
   76CHL1    C4 8035   1.637   2.557   7.543  0.1355  0.0628  0.4817
   76CHL1   H4A 8036   1.533   2.595   7.552  0.6776  1.6968  0.1353
   76CHL1   H4B 8037   1.641   2.456   7.495 -0.3260 -0.1091  0.7936
   76CHL1    C5 8038   1.701   2.547   7.679 -0.0071 -0.0109 -0.0960
   76CHL1    C6 8039   1.757   2.428   7.725  0.2832 -0.2146 -0.1970
   76CHL1    H6 8040   1.767   2.335   7.667  2.2594 -0.5526  0.5941
   76CHL1    C7 8041   1.814   2.408   7.855 -0.3931 -0.0369  0.2682
   76CHL1   H7A 8042   1.796   2.310   7.902 -0.0998 -0.3589 -0.2753
   76CHL1   H7B 8043   1.925   2.407   7.847 -0.5303 -1.0767 -2.4920
   76CHL1    C8 8044   1.776   2.530   7.949 -0.1627 -0.1282  0.3023
   76CHL1    H8 8045   1.670   2.514   7.979 -0.0848  0.9324  1.2153
   76CHL1   C14 8046   1.859   2.526   8.072 -0.5601  0.1150 -0.3435
   76CHL1   H14 8047   1.964   2.543   8.038 -1.0505  3.3269 -0.4835
   76CHL1   C15 8048   1.852   2.395   8.154  0.9815  0.1314 -0.0068
   76CHL1  H15A 8049   1.748   2.355   8.156  0.6452  0.9284 -1.0323
   76CHL1  H15B 8050   1.912   2.314   8.107 -0.9629 -0.7661 -1.0822
   76CHL1   C16 8051   1.883   2.438   8.300  0.2380  0.1402  0.1089
   76CHL1  H16A 8052   1.792   2.419   8.361 -0.4702  0.3719 -0.8566
   76CHL1  H16B 8053   1.970   2.375   8.329  0.4525  0.5124  0.2845
   76CHL1   C17 8054   1.913   2.592   8.287  0.1705  0.5870  0.2525
   76CHL1   H17 8055   2.019   2.603   8.255  0.5416 -0.3797  1.0614
   76CHL1   C13 8056   1.827   2.639   8.170 -0.4756  0.1531 -0.0223
   76CHL1   C18 8057   1.676   2.649   8.221  0.1786 -0.1765  0.4254
   76CHL1  H18A 8058   1.610   2.661   8.132 -0.2595  1.2299  0.9102
   76CHL1  H18B 8059   1.647   2.557   8.277 -0.8251 -0.1961 -0.1051
   76CHL1  H18C 8060   1.656   2.733   8.291  1.6724  0.1418  0.4986
   76CHL1   C12 8061   1.862   2.773   8.103  0.4595  0.1379  0.5119
   76CHL1  H12A 8062   1.833   2.852   8.175 -2.4521 -0.2376 -0.1230
   76CHL1  H12B 8063   1.970   2.775   8.077  0.8213 -2.1977  1.5453
   76CHL1   C11 8064   1.780   2.792   7.967  0.0094 -0.3499 -0.2489
   76CHL1  H11A 8065   1.673   2.802   7.995 -0.2093 -2.7500 -0.0098
   76CHL1  H11B 8066   1.809   2.887   7.915 -0.5238 -0.4472 -0.7323
   76CHL1    C9 8067   1.797   2.668   7.877  1.0363 -0.9093  0.5530
   76CHL1    H9 8068   1.901   2.671   7.839  0.2690  0.3683 -1.6233
   76CHL1   C10 8069   1.705   2.681   7.749 -0.0129  0.2289 -0.6804
   76CHL1   C19 8070   1.557   2.720   7.780  0.2407  0.0463 -0.2343
   76CHL1  H19A 8071   1.508   2.643   7.842 -0.3075 -2.1014 -3.1354
   76CHL1  H19B 8072   1.549   2.818   7.832 -0.3785 -0.3069  0.3484
   76CHL1  H19C 8073   1.494   2.730   7.689 -0.7796  0.2434  0.4832
   76CHL1    C1 8074   1.755   2.798   7.662  0.2770 -0.9510 -0.1116
   76CHL1   H1A 8075   1.739   2.888   7.725  0.0018 -0.8294 -0.3545
   76CHL1   H1B 8076   1.866   2.797   7.654  0.2746 -1.0789 -0.1276
   76CHL1    C2 8077   1.691   2.796   7.525  0.2387 -0.6924  0.4444
   76CHL1   H2A 8078   1.737   2.873   7.460 -1.5920 -2.3273 -3.0648
   76CHL1   H2B 8079   1.583   2.822   7.522  0.7814  1.7456 -1.1079
   76CHL1   C20 8080   1.905   2.668   8.419 -0.3141 -0.1232  0.0306
   76CHL1   H20 8081   1.888   2.772   8.384 -0.0859  0.0142  0.3267
   76CHL1   C21 8082   2.043   2.672   8.478 -0.1267 -0.2072 -0.0189
   76CHL1  H21A 8083   2.113   2.725   8.410 -0.0392 -1.4535 -0.9325
   76CHL1  H21B 8084   2.090   2.572   8.487 -0.4704 -0.3920 -0.2351
   76CHL1  H21C 8085   2.047   2.719   8.579  2.2538 -3.0893  1.3878
   76CHL1   C22 8086   1.807   2.623   8.527  1.0988 -0.5117  0.0658
   76CHL1  H22A 8087   1.714   2.601   8.471  0.0594  0.8041  1.2051
   76CHL1  H22B 8088   1.856   2.531   8.566 -0.1972 -0.6715  1.3982
   76CHL1   C23 8089   1.768   2.727   8.635  0.1535  0.2278  0.7581
   76CHL1  H23A 8090   1.861   2.753   8.690 -1.1558  2.2551  2.1626
   76CHL1  H23B 8091   1.733   2.819   8.585  1.6487  1.0336  1.1404
   76CHL1   C24 8092   1.679   2.680   8.748  0.0908  0.2262 -0.2578
   76CHL1  H24A 8093   1.695   2.574   8.776 -0.4122  0.0330 -0.6900
   76CHL1  H24B 8094   1.705   2.735   8.840  0.0450 -0.2057  0.0145
   76CHL1   C25 8095   1.528   2.675   8.732 -0.0012  0.1867  0.7100
   76CHL1   H25 8096   1.487   2.770   8.693 -2.2193 -0.1693  1.9626
   76CHL1   C26 8097   1.476   2.554   8.644 -0.4208 -0.1341 -0.4506
   76CHL1  H26A 8098   1.367   2.571   8.631 -0.4562 -0.3216 -0.3881
   76CHL1  H26B 8099   1.535   2.556   8.550  1.8946 -1.6413  0.8664
   76CHL1  H26C 8100   1.503   2.466   8.706  1.1187  1.8580  1.9329
   76CHL1   C27 8101   1.461   2.664   8.873 -0.0529 -1.0519  0.1282
   76CHL1  H27A 8102   1.355   2.635   8.854  0.0674 -1.1140 -0.4644
   76CHL1  H27B 8103   1.513   2.599   8.946  0.5181 -1.4506 -0.6281
   76CHL1  H27C 8104   1.451   2.767   8.915 -1.1704 -1.3393  0.6340
   77CHL1    C3 8105   3.152   0.423   6.864  0.1631 -0.1898  0.0251
   77CHL1    H3 8106   3.261   0.408   6.847  0.0328 -1.6268  0.3587
   77CHL1    O3 8107   3.081   0.418   6.744  0.1422 -0.3619  0.3694
   77CHL1   H3' 8108   3.102   0.330   6.713 -3.0412 -0.7408 -1.1445
   77CHL1    C4 8109   3.084   0.321   6.950 -0.0301  0.1191 -0.5457
   77CHL1   H4A 8110   2.977   0.342   6.932  0.1429  0.7219 -0.8822
   77CHL1   H4B 8111   3.084   0.218   6.908 -0.3883 -0.3725  0.6198
   77CHL1    C5 8112   3.119   0.313   7.102 -1.0292  0.0120  0.4575
   77CHL1    C6 8113   3.162   0.194   7.161 -0.5217  0.2201 -0.6106
   77CHL1    H6 8114   3.164   0.103   7.099 -0.6516  0.0442 -0.3538
   77CHL1    C7 8115   3.192   0.199   7.305 -0.5182  0.0174 -0.0455
   77CHL1   H7A 8116   3.149   0.108   7.353  0.2787 -0.2649  0.1578
   77CHL1   H7B 8117   3.302   0.188   7.320 -0.5938  0.4199  0.8301
   77CHL1    C8 8118   3.148   0.327   7.386 -0.0036  0.5135  0.5911
   77CHL1    H8 8119   3.039   0.323   7.407  0.1492  0.4362  1.4011
   77CHL1   C14 8120   3.222   0.327   7.515 -0.6305  0.1011 -0.0047
   77CHL1   H14 8121   3.326   0.332   7.477 -0.7225 -0.9525 -0.4333
   77CHL1   C15 8122   3.232   0.211   7.623  0.1888  0.6630  0.3930
   77CHL1  H15A 8123   3.138   0.153   7.630  1.0055 -0.6000  1.1902
   77CHL1  H15B 8124   3.308   0.137   7.591 -1.0276 -0.8549  0.9128
   77CHL1   C16 8125   3.260   0.274   7.762 -0.5303 -0.4528  0.5710
   77CHL1  H16A 8126   3.179   0.268   7.838  0.1916  0.9967  1.4921
   77CHL1  H16B 8127   3.356   0.242   7.807  0.1565  2.0832  1.0768
   77CHL1   C17 8128   3.283   0.423   7.719  0.2606  0.2227 -0.4165
   77CHL1   H17 8129   3.384   0.432   7.674  0.9327 -0.9107  0.7871
   77CHL1   C13 8130   3.203   0.455   7.597  0.2378  0.4401 -1.2466
   77CHL1   C18 8131   3.050   0.475   7.631  0.2781  0.0201 -0.6520
   77CHL1  H18A 8132   3.018   0.394   7.700 -1.5304  0.0282 -1.4411
   77CHL1  H18B 8133   3.031   0.566   7.692  1.1758  0.1863 -0.5998
   77CHL1  H18C 8134   2.992   0.477   7.536  1.0212 -1.3137 -1.1519
   77CHL1   C12 8135   3.261   0.574   7.522 -0.0780  0.1177 -0.4037
   77CHL1  H12A 8136   3.232   0.666   7.577  0.1793 -1.1697  2.0634
   77CHL1  H12B 8137   3.372   0.566   7.514  0.3455 -1.3056  4.1338
   77CHL1   C11 8138   3.193   0.581   7.379  0.1935 -0.4359 -0.1459
   77CHL1  H11A 8139   3.092   0.627   7.389 -0.3120 -1.7797  1.3612
   77CHL1  H11B 8140   3.250   0.661   7.328  1.8065 -1.8037 -0.5738
   77CHL1    C9 8141   3.190   0.447   7.299 -0.8485 -0.2890  0.0777
   77CHL1    H9 8142   3.299   0.426   7.289 -0.8200  0.1680 -0.7271
   77CHL1   C10 8143   3.119   0.450   7.165  0.7245  0.4726  0.1773
   77CHL1   C19 8144   2.972   0.492   7.190 -0.2242 -0.0232  0.1349
   77CHL1  H19A 8145   2.906   0.486   7.101 -2.6588 -0.9600  1.8977
   77CHL1  H19B 8146   2.932   0.429   7.273 -1.1516 -2.1580 -1.8084
   77CHL1  H19C 8147   2.978   0.600   7.215  0.8083  0.1274 -0.6594
   77CHL1    C1 8148   3.184   0.558   7.073 -0.2524  0.0577  0.4888
   77CHL1   H1A 8149   3.184   0.662   7.113  1.1856  0.7393 -1.1373
   77CHL1   H1B 8150   3.289   0.521   7.065  0.3625  1.6813  0.5842
   77CHL1    C2 8151   3.143   0.559   6.926  0.2592  0.0442  0.2909
   77CHL1   H2A 8152   3.207   0.627   6.865 -0.3764  0.6505  0.2933
   77CHL1   H2B 8153   3.042   0.604   6.916 -0.1080 -0.8592 -0.1731
   77CHL1   C20 8154   3.270   0.525   7.839 -0.2063  0.5656  0.2140
   77CHL1   H20 8155   3.252   0.623   7.790  0.9566  0.4603 -0.4465
   77CHL1   C21 8156   3.414   0.537   7.902  0.5464  0.1502 -0.6857
   77CHL1  H21A 8157   3.450   0.435   7.931 -0.3903  0.4001  1.5230
   77CHL1  H21B 8158   3.437   0.610   7.982  0.3532 -0.5729  0.0540
   77CHL1  H21C 8159   3.488   0.569   7.826 -0.6413  4.2456 -0.3380
   77CHL1   C22 8160   3.162   0.496   7.942  0.1187 -0.1410 -0.0409
   77CHL1  H22A 8161   3.065   0.473   7.894 -0.0705 -0.3198  0.4224
   77CHL1  H22B 8162   3.196   0.419   8.015 -0.2677 -0.2331  0.0443
   77CHL1   C23 8163   3.135   0.613   8.036  0.3581 -0.1731 -0.3618
   77CHL1  H23A 8164   3.232   0.637   8.083  1.1878 -1.9714 -1.0796
   77CHL1  H23B 8165   3.104   0.704   7.980  0.8929 -0.8131 -1.7403
   77CHL1   C24 8166   3.028   0.586   8.143  1.1217  0.0625 -0.0432
   77CHL1  H24A 8167   2.997   0.684   8.186  1.9636  0.8500 -1.1461
   77CHL1  H24B 8168   2.943   0.547   8.083 -0.8676  3.9640 -0.1032
   77CHL1   C25 8169   3.064   0.493   8.256  0.2548  0.3977  0.2971
   77CHL1   H25 8170   3.101   0.398   8.212 -1.0292 -0.6327  1.3537
   77CHL1   C26 8171   3.170   0.551   8.352  0.4030 -0.2922  0.3446
   77CHL1  H26A 8172   3.265   0.588   8.308 -0.0201  2.6852  1.6861
   77CHL1  H26B 8173   3.124   0.636   8.407  1.5676 -0.4813  1.6473
   77CHL1  H26C 8174   3.202   0.485   8.435  1.4528  1.3789  1.3231
   77CHL1   C27 8175   2.937   0.450   8.328  0.2001  0.1433 -0.1546
   77CHL1  H27A 8176   2.891   0.532   8.386  0.6039  0.3865 -0.1750
   77CHL1  H27B 8177   2.870   0.390   8.263 -0.2237  0.5772 -0.1181
   77CHL1  H27C 8178   2.972   0.385   8.411  1.4496 -0.2580 -0.9664
   78CHL1    C3 8179   4.134   3.240   6.744 -0.2079 -0.5921  0.2675
   78CHL1    H3 8180   4.220   3.171   6.759 -1.7550 -2.3541  1.6061
   78CHL1    O3 8181   4.131   3.271   6.607 -0.4306  0.2012 -0.2177
   78CHL1   H3' 8182   4.066   3.212   6.568  1.2103  0.2787 -3.4417
   78CHL1    C4 8183   4.011   3.164   6.794  0.7312 -0.0759  0.4293
   78CHL1   H4A 8184   3.920   3.224   6.772  0.5973 -0.7922 -1.1142
   78CHL1   H4B 8185   4.013   3.073   6.730  2.2174 -0.0581  0.4264
   78CHL1    C5 8186   4.020   3.138   6.936 -0.2455  0.4032 -0.0927
   78CHL1    C6 8187   4.025   3.011   6.978  0.5058  0.0197 -0.1452
   78CHL1    H6 8188   3.992   2.935   6.905 -1.7397 -0.0549  0.8543
   78CHL1    C7 8189   4.029   2.979   7.124  0.5406 -0.4970  0.1179
   78CHL1   H7A 8190   3.958   2.897   7.149 -1.5866  0.8870 -1.0607
   78CHL1   H7B 8191   4.133   2.951   7.151  0.4777  0.3459  1.2693
   78CHL1    C8 8192   3.993   3.098   7.221 -0.0112  0.1439  0.8625
   78CHL1    H8 8193   3.885   3.121   7.213  0.0213 -0.3420 -2.9066
   78CHL1   C14 8194   4.030   3.073   7.365 -0.4149  0.0748 -0.0057
   78CHL1   H14 8195   4.141   3.073   7.373 -0.2318  1.7407 -1.8145
   78CHL1   C15 8196   3.987   2.939   7.417 -0.0133  0.1471 -0.3723
   78CHL1  H15A 8197   3.883   2.920   7.382  0.6081 -4.1932 -0.3671
   78CHL1  H15B 8198   4.044   2.850   7.384  0.1266  0.2195 -0.3242
   78CHL1   C16 8199   3.989   2.964   7.573  0.3001  0.1437 -0.0508
   78CHL1  H16A 8200   3.885   2.958   7.610  0.2531 -0.1133 -0.2237
   78CHL1  H16B 8201   4.052   2.892   7.629 -0.6829 -2.7643 -2.4500
   78CHL1   C17 8202   4.019   3.115   7.590  0.3067 -0.0282  0.4151
   78CHL1   H17 8203   4.130   3.122   7.599  0.3206 -0.6563  0.7634
   78CHL1   C13 8204   3.990   3.187   7.456  0.2998 -0.1497 -0.5844
   78CHL1   C18 8205   3.835   3.225   7.447 -0.2847 -0.3666 -0.6702
   78CHL1  H18A 8206   3.771   3.165   7.515  1.8688 -1.3116  0.6491
   78CHL1  H18B 8207   3.842   3.326   7.494  1.2918 -0.3828 -0.8085
   78CHL1  H18C 8208   3.789   3.245   7.348 -0.3137  1.5197 -0.3129
   78CHL1   C12 8209   4.082   3.304   7.418 -0.3590 -0.2109  0.1327
   78CHL1  H12A 8210   4.066   3.392   7.484  0.6139 -1.6178  2.3506
   78CHL1  H12B 8211   4.188   3.271   7.419 -0.3370 -0.1507 -0.2092
   78CHL1   C11 8212   4.056   3.349   7.273  0.8350  0.3200  0.0566
   78CHL1  H11A 8213   3.959   3.404   7.274 -1.4352 -3.3951  0.8430
   78CHL1  H11B 8214   4.131   3.430   7.258  2.4658 -0.5628  2.7509
   78CHL1    C9 8215   4.065   3.228   7.173 -0.7290  0.2690 -0.5579
   78CHL1    H9 8216   4.172   3.200   7.168 -0.4273  0.9877  1.0667
   78CHL1   C10 8217   4.043   3.267   7.024  0.0478  0.3641 -0.9911
   78CHL1   C19 8218   3.915   3.353   7.015  0.5279  0.5132  0.0937
   78CHL1  H19A 8219   3.834   3.302   7.072  1.2661  0.7180  1.3623
   78CHL1  H19B 8220   3.931   3.450   7.067 -0.3063  0.2918  0.7977
   78CHL1  H19C 8221   3.885   3.367   6.909  0.0780 -0.4659  0.0754
   78CHL1    C1 8222   4.169   3.332   6.971 -0.0250 -0.3919 -0.7347
   78CHL1   H1A 8223   4.170   3.423   7.035  0.7649 -1.1777  0.4097
   78CHL1   H1B 8224   4.260   3.272   6.990  0.4380  0.0326 -1.5716
   78CHL1    C2 8225   4.160   3.369   6.826 -0.4502  0.1667 -0.2442
   78CHL1   H2A 8226   4.256   3.415   6.794 -0.0134 -1.6730 -1.7587
   78CHL1   H2B 8227   4.070   3.429   6.804 -0.5088  1.9716  3.9809
   78CHL1   C20 8228   3.969   3.171   7.728  0.1496 -0.2480 -0.0135
   78CHL1   H20 8229   3.859   3.151   7.729  0.1148 -0.1558  1.5264
   78CHL1   C21 8230   3.991   3.322   7.740 -0.9348  0.6330 -0.2022
   78CHL1  H21A 8231   3.967   3.367   7.838 -2.6091 -1.4749  0.4139
   78CHL1  H21B 8232   3.930   3.378   7.665 -0.0975  2.6817  0.5668
   78CHL1  H21C 8233   4.101   3.334   7.723 -0.6709 -0.9708  0.2364
   78CHL1   C22 8234   4.040   3.101   7.848  0.0389  0.2490  0.6518
   78CHL1  H22A 8235   4.018   2.993   7.833 -1.0850  0.6848 -1.0532
   78CHL1  H22B 8236   4.150   3.100   7.831  0.3055 -0.3079  2.2522
   78CHL1   C23 8237   4.012   3.150   7.985  0.0481 -0.4902 -0.5025
   78CHL1  H23A 8238   4.078   3.240   7.980 -1.2759  0.4736 -1.3169
   78CHL1  H23B 8239   3.907   3.184   7.995  0.2518  0.4785 -1.4500
   78CHL1   C24 8240   4.051   3.057   8.099  0.0273 -0.0323  1.2579
   78CHL1  H24A 8241   3.994   2.965   8.077 -0.4291  0.5470 -0.0800
   78CHL1  H24B 8242   4.158   3.030   8.091 -0.3465 -1.6763  1.5027
   78CHL1   C25 8243   4.012   3.103   8.241  0.3125  0.2931  0.1453
   78CHL1   H25 8244   3.905   3.076   8.253  1.0603 -3.2160 -0.1675
   78CHL1   C26 8245   4.077   3.009   8.334  0.1835  1.1595 -0.4253
   78CHL1  H26A 8246   4.042   3.027   8.437 -0.4670 -1.7330 -0.0549
   78CHL1  H26B 8247   4.047   2.904   8.311  0.3436  0.5582  1.9101
   78CHL1  H26C 8248   4.188   3.013   8.339  0.1173  2.4754  0.2566
   78CHL1   C27 8249   4.044   3.253   8.277 -0.4521 -0.5913 -0.6759
   78CHL1  H27A 8250   4.006   3.329   8.206  0.0496 -0.2799 -0.6151
   78CHL1  H27B 8251   3.987   3.283   8.367  1.6242  0.5884  0.3190
   78CHL1  H27C 8252   4.151   3.268   8.301 -0.6037  1.8092 -1.3173
   79CHL1    C3 8253   2.604   2.508   7.202  0.7467 -0.0772  0.5878
   79CHL1    H3 8254   2.662   2.418   7.173 -0.3703 -1.4229  2.3644
   79CHL1    O3 8255   2.540   2.582   7.099 -0.6024 -0.1305  0.1940
   79CHL1   H3' 8256   2.599   2.650   7.066 -0.0699 -0.4994  0.3742
   79CHL1    C4 8257   2.483   2.474   7.293 -1.0821 -0.0893 -0.1232
   79CHL1   H4A 8258   2.435   2.571   7.316 -0.6709 -0.0082  0.4162
   79CHL1   H4B 8259   2.413   2.403   7.244 -0.0182 -2.0657  1.0484
   79CHL1    C5 8260   2.527   2.410   7.426 -0.8243 -0.6427 -0.1695
   79CHL1    C6 8261   2.481   2.296   7.464  0.4387  0.7500 -0.5003
   79CHL1    H6 8262   2.406   2.243   7.403 -0.2408  0.9294  0.1627
   79CHL1    C7 8263   2.511   2.227   7.594 -0.5598 -0.6122 -0.2651
   79CHL1   H7A 8264   2.410   2.217   7.638 -0.7055  0.6093 -0.2955
   79CHL1   H7B 8265   2.565   2.134   7.565 -0.3908 -0.2558 -1.1413
   79CHL1    C8 8266   2.586   2.328   7.697  0.3110 -0.0757 -0.1377
   79CHL1    H8 8267   2.498   2.389   7.728  0.9498  1.7115 -1.6643
   79CHL1   C14 8268   2.655   2.256   7.813  0.0414  0.1875  0.6768
   79CHL1   H14 8269   2.727   2.186   7.766  0.5177  2.2799 -1.9910
   79CHL1   C15 8270   2.572   2.154   7.884 -0.0109  0.1241 -0.3008
   79CHL1  H15A 8271   2.468   2.192   7.897 -0.2474 -0.4086 -0.5793
   79CHL1  H15B 8272   2.564   2.052   7.840 -1.6623 -1.3691  3.0422
   79CHL1   C16 8273   2.646   2.143   8.026 -0.9317  0.0251  0.0747
   79CHL1  H16A 8274   2.577   2.182   8.104  0.0999  3.1231 -0.4572
   79CHL1  H16B 8275   2.685   2.041   8.045 -1.9029 -0.5084 -0.6673
   79CHL1   C17 8276   2.768   2.239   8.008 -0.7872 -0.6075 -0.1896
   79CHL1   H17 8277   2.847   2.183   7.953 -1.4085  0.7596 -2.6015
   79CHL1   C13 8278   2.718   2.345   7.914  0.1931  0.8332  0.8037
   79CHL1   C18 8279   2.612   2.443   7.974 -0.7730  0.3372  0.1596
   79CHL1  H18A 8280   2.657   2.509   8.051  0.8811 -2.6866  1.9451
   79CHL1  H18B 8281   2.566   2.515   7.902 -0.3128 -0.2095 -0.6980
   79CHL1  H18C 8282   2.529   2.384   8.018 -2.0283  2.8392  1.3800
   79CHL1   C12 8283   2.832   2.432   7.843  0.2754 -0.1395 -0.3665
   79CHL1  H12A 8284   2.864   2.504   7.921 -1.5946  0.3678 -0.0189
   79CHL1  H12B 8285   2.922   2.379   7.805  1.3240  0.8666  0.6352
   79CHL1   C11 8286   2.766   2.511   7.725 -0.0855  0.1034 -0.2318
   79CHL1  H11A 8287   2.691   2.582   7.765 -0.0928 -0.2966  0.4878
   79CHL1  H11B 8288   2.847   2.574   7.682  1.6550  0.2792  2.9787
   79CHL1    C9 8289   2.688   2.419   7.621 -0.2739 -0.5630 -0.3639
   79CHL1    H9 8290   2.772   2.352   7.592 -0.2966 -0.3201 -0.9952
   79CHL1   C10 8291   2.635   2.491   7.500  0.2343  0.3227  0.1163
   79CHL1   C19 8292   2.570   2.623   7.557  0.5731  0.5125  0.1826
   79CHL1  H19A 8293   2.507   2.601   7.646  0.9632 -0.3924  0.2376
   79CHL1  H19B 8294   2.645   2.695   7.597  1.0461  0.4169 -0.5107
   79CHL1  H19C 8295   2.523   2.681   7.474  0.1650  0.2409  0.2248
   79CHL1    C1 8296   2.750   2.534   7.402 -0.0303 -0.3679 -0.5537
   79CHL1   H1A 8297   2.826   2.597   7.453 -1.5833  0.2577  1.0764
   79CHL1   H1B 8298   2.794   2.436   7.374  1.0159 -0.3644  0.9775
   79CHL1    C2 8299   2.701   2.601   7.278 -0.0307  0.4145  0.1434
   79CHL1   H2A 8300   2.779   2.635   7.206  0.6442 -0.1057  0.6176
   79CHL1   H2B 8301   2.648   2.693   7.310 -0.6040 -0.5538  2.1184
   79CHL1   C20 8302   2.832   2.282   8.142 -0.3259  1.0880  0.4206
   79CHL1   H20 8303   2.769   2.363   8.184  0.2273  2.3311 -1.0422
   79CHL1   C21 8304   2.982   2.334   8.120  0.0926  0.4069  0.3067
   79CHL1  H21A 8305   2.989   2.433   8.071  0.7575  0.6738  0.9109
   79CHL1  H21B 8306   3.045   2.262   8.063 -0.1801 -0.9452  1.6616
   79CHL1  H21C 8307   3.037   2.358   8.214  0.2987  4.3714 -0.6379
   79CHL1   C22 8308   2.841   2.161   8.239  0.2320 -0.4698 -0.4616
   79CHL1  H22A 8309   2.736   2.124   8.245 -0.1202  0.6689  0.7351
   79CHL1  H22B 8310   2.893   2.079   8.185 -1.0363 -1.2676 -0.5003
   79CHL1   C23 8311   2.899   2.191   8.377 -0.0080 -0.0167  0.4661
   79CHL1  H23A 8312   3.006   2.210   8.358  0.5795 -2.0695  1.4300
   79CHL1  H23B 8313   2.857   2.287   8.414 -1.5064 -0.5220  0.1452
   79CHL1   C24 8314   2.900   2.075   8.480 -0.1887 -0.1158  0.3308
   79CHL1  H24A 8315   2.797   2.044   8.507 -0.3220 -0.6786 -0.7512
   79CHL1  H24B 8316   2.949   1.991   8.426  1.5058  0.6107  0.6709
   79CHL1   C25 8317   2.988   2.100   8.602  0.5000  0.2346  0.0316
   79CHL1   H25 8318   3.095   2.104   8.573  0.2762  0.9571 -0.7426
   79CHL1   C26 8319   2.954   2.239   8.676 -0.3355  0.3720 -0.2949
   79CHL1  H26A 8320   2.849   2.245   8.710  0.2572  2.0185  1.4172
   79CHL1  H26B 8321   3.020   2.250   8.765 -0.9467 -1.6493  0.4674
   79CHL1  H26C 8322   2.991   2.322   8.612  1.3326  2.3598  2.9590
   79CHL1   C27 8323   2.981   1.980   8.697 -0.1770 -0.0637  0.2347
   79CHL1  H27A 8324   2.874   1.961   8.719 -0.1141 -0.8217 -0.0821
   79CHL1  H27B 8325   3.014   1.883   8.654  1.0442 -0.1766  1.3667
   79CHL1  H27C 8326   3.033   2.004   8.792 -1.1209  0.7276  0.5717
   80CHL1    C3 8327   6.093   6.269   7.142  0.1539  0.0491  0.0331
   80CHL1    H3 8328   5.991   6.266   7.184 -0.5803 -0.1416 -1.6861
   80CHL1    O3 8329   6.086   6.312   7.012 -0.5420 -0.1043  0.4404
   80CHL1   H3' 8330   6.177   6.305   6.983 -0.9826 -0.0453 -1.0233
   80CHL1    C4 8331   6.185   6.365   7.223  0.4409  0.6089 -0.6026
   80CHL1   H4A 8332   6.287   6.364   7.178  0.2320  1.1896 -1.0988
   80CHL1   H4B 8333   6.158   6.470   7.200  0.0466  0.3887 -1.1740
   80CHL1    C5 8334   6.191   6.318   7.369 -0.3693 -0.0235 -0.0469
   80CHL1    C6 8335   6.143   6.389   7.471 -0.1372 -0.2050  0.4566
   80CHL1    H6 8336   6.109   6.491   7.449 -0.8644 -0.8175 -1.3947
   80CHL1    C7 8337   6.146   6.342   7.612  0.5909  0.4531  0.2198
   80CHL1   H7A 8338   6.174   6.423   7.682  0.8980  2.1351 -1.7437
   80CHL1   H7B 8339   6.043   6.314   7.643  1.3308 -0.7735  1.7536
   80CHL1    C8 8340   6.229   6.214   7.640 -0.1991  0.2348 -0.9253
   80CHL1    H8 8341   6.335   6.243   7.648 -0.5698  2.1330 -2.2236
   80CHL1   C14 8342   6.197   6.147   7.775  0.7934 -0.2990  0.6314
   80CHL1   H14 8343   6.094   6.113   7.755  0.0093  1.3814  1.5554
   80CHL1   C15 8344   6.198   6.232   7.902 -0.3936  0.3618  0.4528
   80CHL1  H15A 8345   6.296   6.285   7.907  0.2750 -0.7345 -0.7741
   80CHL1  H15B 8346   6.121   6.312   7.908 -0.7674 -0.0266  0.8765
   80CHL1   C16 8347   6.193   6.126   8.015  0.2933 -0.5140  0.9848
   80CHL1  H16A 8348   6.276   6.135   8.089  1.7564 -0.4149 -0.5937
   80CHL1  H16B 8349   6.106   6.143   8.080  0.5285 -2.0196  1.7412
   80CHL1   C17 8350   6.200   5.988   7.943  1.4903  0.4780 -0.4896
   80CHL1   H17 8351   6.095   5.961   7.918  0.5319  0.7589  2.8045
   80CHL1   C13 8352   6.271   6.021   7.808  0.1430 -0.6444  0.3846
   80CHL1   C18 8353   6.420   6.062   7.840  0.2340 -0.1355  0.2099
   80CHL1  H18A 8354   6.467   6.113   7.753 -0.0388 -1.1227 -0.5391
   80CHL1  H18B 8355   6.422   6.122   7.933 -0.1648 -1.3240  1.0139
   80CHL1  H18C 8356   6.486   5.972   7.842 -1.4800 -1.4863 -0.7364
   80CHL1   C12 8357   6.254   5.925   7.698 -0.0025 -0.1850  0.0941
   80CHL1  H12A 8358   6.310   5.833   7.724 -0.1931 -0.3153  0.0514
   80CHL1  H12B 8359   6.152   5.884   7.680  0.3015  0.0456 -2.5544
   80CHL1   C11 8360   6.294   5.983   7.562  0.1178 -0.4929 -0.1017
   80CHL1  H11A 8361   6.402   6.005   7.566  0.1351  0.4084 -2.9429
   80CHL1  H11B 8362   6.280   5.905   7.484  0.0533  0.0316 -0.6177
   80CHL1    C9 8363   6.217   6.113   7.520 -0.3988 -0.5664 -0.7695
   80CHL1    H9 8364   6.114   6.071   7.521 -0.1323 -1.2308 -0.8230
   80CHL1   C10 8365   6.244   6.173   7.380 -0.1577 -0.2565 -0.6077
   80CHL1   C19 8366   6.400   6.170   7.355  0.0611  0.2569 -0.3805
   80CHL1  H19A 8367   6.448   6.071   7.372  0.4055  0.6423  1.0254
   80CHL1  H19B 8368   6.428   6.209   7.255 -0.8399 -0.6240 -0.9835
   80CHL1  H19C 8369   6.454   6.241   7.422 -0.8066  1.5973 -1.0645
   80CHL1    C1 8370   6.179   6.080   7.282 -0.3325  0.1164 -0.7298
   80CHL1   H1A 8371   6.221   5.977   7.286 -0.0180  0.2621 -0.1449
   80CHL1   H1B 8372   6.074   6.067   7.316 -1.3176  1.0604 -3.1890
   80CHL1    C2 8373   6.163   6.132   7.144  0.4936  0.6088 -0.0126
   80CHL1   H2A 8374   6.097   6.066   7.084 -3.4341  5.2952 -1.5427
   80CHL1   H2B 8375   6.260   6.112   7.095 -0.2861 -1.1307 -0.9445
   80CHL1   C20 8376   6.246   5.874   8.033 -0.0524 -0.0800 -0.5567
   80CHL1   H20 8377   6.347   5.896   8.073 -1.6714  3.5994  2.0607
   80CHL1   C21 8378   6.236   5.732   7.960  0.5785 -0.0858  0.4816
   80CHL1  H21A 8379   6.138   5.730   7.907 -0.0229 -1.1980  1.6085
   80CHL1  H21B 8380   6.238   5.650   8.034 -0.3412  0.8715  1.5993
   80CHL1  H21C 8381   6.323   5.722   7.892  0.8604  2.1254  0.4238
   80CHL1   C22 8382   6.160   5.868   8.156 -0.0284  0.1157  0.0472
   80CHL1  H22A 8383   6.152   5.963   8.213  2.3787  0.2104  0.3104
   80CHL1  H22B 8384   6.055   5.849   8.123  0.0370  0.5817 -0.4392
   80CHL1   C23 8385   6.190   5.766   8.275  0.5768 -0.4482 -0.0333
   80CHL1  H23A 8386   6.101   5.753   8.340  0.3809  0.3766 -0.1328
   80CHL1  H23B 8387   6.197   5.664   8.230  2.4313  0.6610 -2.5023
   80CHL1   C24 8388   6.317   5.807   8.345  0.8525  0.7163 -0.2269
   80CHL1  H24A 8389   6.398   5.816   8.269  0.3834 -1.0180 -0.9824
   80CHL1  H24B 8390   6.309   5.906   8.395 -0.3322 -0.0729  1.2315
   80CHL1   C25 8391   6.363   5.707   8.458  0.5701 -0.3891 -0.0248
   80CHL1   H25 8392   6.274   5.695   8.523  0.3793  0.1778 -0.1756
   80CHL1   C26 8393   6.407   5.571   8.412 -0.2171  0.0032  0.1140
   80CHL1  H26A 8394   6.498   5.574   8.348 -0.4509  1.1183 -0.1832
   80CHL1  H26B 8395   6.437   5.506   8.497 -1.8197  0.4508  1.0659
   80CHL1  H26C 8396   6.321   5.521   8.363 -0.1323  1.4423 -1.6126
   80CHL1   C27 8397   6.471   5.772   8.553  0.2795 -0.4308  0.2277
   80CHL1  H27A 8398   6.527   5.690   8.604 -1.0100 -2.3395 -1.2911
   80CHL1  H27B 8399   6.541   5.845   8.508  0.9457 -0.1060  1.7301
   80CHL1  H27C 8400   6.414   5.831   8.628 -2.0532 -1.3622 -0.7196
   81CHL1    C3 8401   4.463   0.090   6.885 -0.3682  0.3441 -0.1481
   81CHL1    H3 8402   4.433   0.182   6.941 -2.3484 -0.3263 -0.0422
   81CHL1    O3 8403   4.506   0.139   6.757 -0.5642  0.2454  0.2112
   81CHL1   H3' 8404   4.570   0.079   6.718 -1.8476 -0.3030 -1.1128
   81CHL1    C4 8405   4.590   0.033   6.950  0.3702 -0.2784 -0.6776
   81CHL1   H4A 8406   4.610  -0.067   6.908  0.0902 -1.3202  1.5139
   81CHL1   H4B 8407   4.677   0.100   6.932  0.5390  0.5898  2.6158
   81CHL1    C5 8408   4.555   0.012   7.097  0.0663 -0.4191  0.7151
   81CHL1    C6 8409   4.621   0.080   7.187 -0.5331 -0.1549  0.5890
   81CHL1    H6 8410   4.698   0.151   7.155  0.7890 -2.5237 -1.7829
   81CHL1    C7 8411   4.579   0.083   7.332 -0.1771 -0.2763  0.4807
   81CHL1   H7A 8412   4.670   0.101   7.393 -0.1395  0.4308  0.2235
   81CHL1   H7B 8413   4.514   0.172   7.348  1.0093  0.2504  2.6908
   81CHL1    C8 8414   4.499  -0.044   7.377 -0.0873 -0.0972 -0.6682
   81CHL1    H8 8415   4.574  -0.126   7.372 -1.2068 -1.4122  2.1906
   81CHL1   C14 8416   4.441  -0.026   7.520  0.1159 -0.1546  0.6800
   81CHL1   H14 8417   4.368   0.056   7.501  0.5292 -0.0870 -0.6746
   81CHL1   C15 8418   4.538   0.025   7.635  0.2105  0.4149 -0.1850
   81CHL1  H15A 8419   4.614  -0.056   7.629 -0.9451 -0.8181  0.9981
   81CHL1  H15B 8420   4.578   0.128   7.626 -1.1089  0.8756 -1.0008
   81CHL1   C16 8421   4.459  -0.006   7.764 -0.3953  0.5017  0.2409
   81CHL1  H16A 8422   4.520  -0.077   7.825  0.3237 -0.5312 -1.5965
   81CHL1  H16B 8423   4.422   0.080   7.824 -3.6760 -0.8650  0.3403
   81CHL1   C17 8424   4.326  -0.088   7.719  0.6038  0.3789 -0.3311
   81CHL1   H17 8425   4.235  -0.029   7.697 -0.7443 -1.4986 -0.1075
   81CHL1   C13 8426   4.360  -0.140   7.569  0.7785 -0.0672  0.6171
   81CHL1   C18 8427   4.438  -0.267   7.573  0.6434 -0.0532 -0.2568
   81CHL1  H18A 8428   4.471  -0.306   7.474  3.3087 -0.6139  0.7697
   81CHL1  H18B 8429   4.527  -0.264   7.639  1.2595  0.8959 -1.0935
   81CHL1  H18C 8430   4.374  -0.347   7.615  2.3175 -0.9049  0.7577
   81CHL1   C12 8431   4.246  -0.160   7.468 -0.9028 -0.7384  0.0796
   81CHL1  H12A 8432   4.188  -0.247   7.503  2.1657 -2.0640  2.2919
   81CHL1  H12B 8433   4.180  -0.071   7.478 -1.1693 -0.8671 -0.4967
   81CHL1   C11 8434   4.282  -0.184   7.318 -0.4874 -0.6108  0.1093
   81CHL1  H11A 8435   4.337  -0.280   7.315 -2.3192 -1.6905 -1.7642
   81CHL1  H11B 8436   4.194  -0.181   7.251 -1.0423  1.4431  0.8468
   81CHL1    C9 8437   4.383  -0.073   7.267 -0.3823 -0.2883  0.1339
   81CHL1    H9 8438   4.327   0.023   7.271  0.3321  0.1218  0.5238
   81CHL1   C10 8439   4.433  -0.078   7.117  0.4268  0.1718 -0.4560
   81CHL1   C19 8440   4.481  -0.227   7.090  0.4480 -0.2048  0.2646
   81CHL1  H19A 8441   4.565  -0.252   7.158  1.3028  2.1807  0.1986
   81CHL1  H19B 8442   4.397  -0.298   7.102  1.7543 -1.8637 -0.1712
   81CHL1  H19C 8443   4.518  -0.238   6.986 -1.0276 -2.4704 -0.0841
   81CHL1    C1 8444   4.316  -0.036   7.024  0.3101 -0.0206  0.2019
   81CHL1   H1A 8445   4.237  -0.114   7.027  1.3989 -1.1528  0.9247
   81CHL1   H1B 8446   4.282   0.062   7.061  0.7993  0.7216 -1.2093
   81CHL1    C2 8447   4.346  -0.016   6.878  0.0496  0.4670 -0.0903
   81CHL1   H2A 8448   4.267   0.038   6.822 -0.4148 -0.1540 -0.0354
   81CHL1   H2B 8449   4.385  -0.106   6.825  1.3001  1.0991 -0.2782
   81CHL1   C20 8450   4.270  -0.190   7.828  0.0572  0.4332 -0.0271
   81CHL1   H20 8451   4.345  -0.271   7.828  1.0929  1.3458  1.1430
   81CHL1   C21 8452   4.127  -0.227   7.780 -0.2782  0.2188 -0.1973
   81CHL1  H21A 8453   4.128  -0.282   7.684 -0.0906 -0.4926  0.2021
   81CHL1  H21B 8454   4.053  -0.146   7.763 -0.5688  0.0443  0.2007
   81CHL1  H21C 8455   4.090  -0.309   7.846  2.4501 -0.3936  0.7294
   81CHL1   C22 8456   4.261  -0.129   7.973 -0.1168  0.3166  0.1237
   81CHL1  H22A 8457   4.357  -0.079   8.001  1.1270 -1.3461 -0.9528
   81CHL1  H22B 8458   4.172  -0.063   7.977 -1.6215 -1.5984 -0.7120
   81CHL1   C23 8459   4.255  -0.233   8.091 -0.1510  1.0547  0.3363
   81CHL1  H23A 8460   4.265  -0.184   8.190  0.5237 -0.2550  0.9283
   81CHL1  H23B 8461   4.161  -0.291   8.080  1.0910 -0.8671 -0.6058
   81CHL1   C24 8462   4.374  -0.331   8.094  0.0300 -0.2694  0.0674
   81CHL1  H24A 8463   4.367  -0.373   7.991 -2.8459 -0.6790  0.3676
   81CHL1  H24B 8464   4.476  -0.287   8.103 -0.0304  0.1309 -1.0525
   81CHL1   C25 8465   4.352  -0.446   8.185  0.5102  0.1573 -0.3324
   81CHL1   H25 8466   4.258  -0.490   8.145  1.1940 -1.2564 -0.4733
   81CHL1   C26 8467   4.460  -0.553   8.157 -0.2538  0.6727  0.1411
   81CHL1  H26A 8468   4.453  -0.596   8.055  2.7933 -2.6611  1.1528
   81CHL1  H26B 8469   4.567  -0.528   8.171 -0.0444 -0.8707  1.5829
   81CHL1  H26C 8470   4.437  -0.632   8.231 -2.3605  0.3255 -0.8124
   81CHL1   C27 8471   4.342  -0.424   8.338  0.0433  0.1487  0.2294
   81CHL1  H27A 8472   4.337  -0.523   8.389 -0.1734  1.0494  2.0286
   81CHL1  H27B 8473   4.425  -0.361   8.375 -1.4405  2.6014 -0.3315
   81CHL1  H27C 8474   4.247  -0.368   8.352 -1.6564 -1.9340 -2.0007
   82CHL1    C3 8475   5.190   2.484   7.012  0.2483  0.2003  0.0047
   82CHL1    H3 8476   5.096   2.432   7.039 -0.6969  2.9543  2.6188
   82CHL1    O3 8477   5.198   2.492   6.869  0.1468  0.5501  0.1201
   82CHL1   H3' 8478   5.224   2.583   6.850 -0.2156  0.6944  0.3112
   82CHL1    C4 8479   5.206   2.619   7.092  0.5286 -0.1709 -0.3715
   82CHL1   H4A 8480   5.299   2.661   7.050 -0.2751 -1.0292 -3.2539
   82CHL1   H4B 8481   5.113   2.676   7.069  0.2140 -0.0110  1.1756
   82CHL1    C5 8482   5.235   2.601   7.241  0.1492 -0.0759 -0.3287
   82CHL1    C6 8483   5.168   2.654   7.343 -0.4170 -0.0386 -0.2305
   82CHL1    H6 8484   5.083   2.720   7.318 -0.7596 -0.6457 -0.7319
   82CHL1    C7 8485   5.187   2.627   7.490  0.5180 -0.1386 -0.1639
   82CHL1   H7A 8486   5.198   2.728   7.535 -0.1937 -0.5679  1.0164
   82CHL1   H7B 8487   5.103   2.565   7.528  1.1309 -0.9350 -0.0690
   82CHL1    C8 8488   5.323   2.558   7.519 -0.1172  0.3868 -0.4348
   82CHL1    H8 8489   5.400   2.636   7.502 -0.0323  0.8312  1.6861
   82CHL1   C14 8490   5.322   2.506   7.659  0.1161 -0.1817  0.1935
   82CHL1   H14 8491   5.237   2.435   7.670  0.8699 -0.6714  4.4119
   82CHL1   C15 8492   5.308   2.614   7.769 -0.1580  0.5534  0.2741
   82CHL1  H15A 8493   5.388   2.690   7.753  1.6100 -0.7836  2.2870
   82CHL1  H15B 8494   5.204   2.653   7.778 -1.5043 -1.1151 -4.6250
   82CHL1   C16 8495   5.348   2.543   7.897  0.3211  0.5686 -0.2432
   82CHL1  H16A 8496   5.420   2.601   7.958  0.8698  0.2631 -0.5917
   82CHL1  H16B 8497   5.256   2.536   7.959 -0.0208  1.0209 -0.6820
   82CHL1   C17 8498   5.405   2.403   7.860  0.2462  0.0032  0.0825
   82CHL1   H17 8499   5.323   2.329   7.862  1.0354 -0.9000 -0.3100
   82CHL1   C13 8500   5.444   2.422   7.705 -0.6489  0.2830  0.0289
   82CHL1   C18 8501   5.577   2.502   7.682 -0.3890  0.6204  0.1199
   82CHL1  H18A 8502   5.660   2.441   7.724  0.2240  0.5592 -1.1409
   82CHL1  H18B 8503   5.612   2.532   7.581  0.8459  2.1411  0.9596
   82CHL1  H18C 8504   5.581   2.596   7.740  1.8698  1.5103 -1.3359
   82CHL1   C12 8505   5.436   2.295   7.615 -0.5310 -0.3525  0.3769
   82CHL1  H12A 8506   5.523   2.226   7.616 -1.8296 -2.0328  1.2713
   82CHL1  H12B 8507   5.344   2.242   7.647 -0.8123  0.1185  0.3648
   82CHL1   C11 8508   5.434   2.326   7.464 -0.1655 -0.7777  0.0305
   82CHL1  H11A 8509   5.537   2.363   7.443 -0.4240  1.8725  2.6444
   82CHL1  H11B 8510   5.408   2.228   7.419 -0.1779 -0.4023 -0.8020
   82CHL1    C9 8511   5.330   2.442   7.424 -0.5923  0.3455 -0.0994
   82CHL1    H9 8512   5.232   2.393   7.437 -0.4438 -0.0713 -0.5112
   82CHL1   C10 8513   5.339   2.489   7.271 -0.7240  0.4057  0.6082
   82CHL1   C19 8514   5.482   2.542   7.241 -0.0331 -0.6007  0.7983
   82CHL1  H19A 8515   5.563   2.470   7.265  1.6176  1.0687  0.4444
   82CHL1  H19B 8516   5.493   2.570   7.134  0.5992  2.7157  1.6073
   82CHL1  H19C 8517   5.499   2.626   7.311  1.2641 -2.3396  2.6695
   82CHL1    C1 8518   5.318   2.355   7.187 -0.5119 -0.1335 -1.3572
   82CHL1   H1A 8519   5.405   2.287   7.201 -1.4730 -0.8997  1.6675
   82CHL1   H1B 8520   5.229   2.299   7.222 -0.0183  0.0045  0.2332
   82CHL1    C2 8521   5.303   2.382   7.039 -0.1560 -0.0348  0.4983
   82CHL1   H2A 8522   5.276   2.289   6.983 -3.2627  1.8456 -1.4224
   82CHL1   H2B 8523   5.388   2.436   6.992  0.3141 -0.0141  1.3513
   82CHL1   C20 8524   5.510   2.358   7.957  0.2258  0.7223  0.3733
   82CHL1   H20 8525   5.598   2.425   7.947  0.3408  0.2466 -2.7179
   82CHL1   C21 8526   5.557   2.222   7.888 -0.2376  1.0656 -0.2902
   82CHL1  H21A 8527   5.625   2.173   7.961  1.0745  1.8722 -0.9216
   82CHL1  H21B 8528   5.614   2.246   7.796  0.3308  2.8953  0.4860
   82CHL1  H21C 8529   5.469   2.162   7.857  1.6627 -1.2180 -1.5592
   82CHL1   C22 8530   5.455   2.338   8.098  0.5815 -0.1763 -0.2123
   82CHL1  H22A 8531   5.417   2.434   8.137  1.5650  0.0277  0.2740
   82CHL1  H22B 8532   5.383   2.254   8.112  1.3745 -0.7883  0.3369
   82CHL1   C23 8533   5.573   2.307   8.200 -0.0676 -0.5184 -0.5171
   82CHL1  H23A 8534   5.636   2.223   8.163 -0.7855 -1.3685  0.1470
   82CHL1  H23B 8535   5.648   2.389   8.200  1.9749 -2.2396  1.3165
   82CHL1   C24 8536   5.535   2.282   8.347  0.5490 -0.4204  0.1303
   82CHL1  H24A 8537   5.492   2.372   8.394 -1.4661 -0.9344 -0.6287
   82CHL1  H24B 8538   5.450   2.210   8.353 -0.4850  0.8878  2.4325
   82CHL1   C25 8539   5.645   2.226   8.431 -0.2939 -0.7988  0.3121
   82CHL1   H25 8540   5.708   2.318   8.441 -0.0849 -1.1260  2.5666
   82CHL1   C26 8541   5.583   2.173   8.563  0.5894  0.4091  0.1673
   82CHL1  H26A 8542   5.504   2.097   8.548  1.6805 -0.9609  1.1797
   82CHL1  H26B 8543   5.672   2.136   8.618  2.3079  2.9748 -0.7169
   82CHL1  H26C 8544   5.557   2.264   8.621 -1.8068  1.7139 -2.6753
   82CHL1   C27 8545   5.723   2.107   8.372 -0.1709 -0.5914  0.2353
   82CHL1  H27A 8546   5.766   2.126   8.271 -0.8351  0.6733  0.1758
   82CHL1  H27B 8547   5.810   2.091   8.439  0.8812  0.1856 -0.8947
   82CHL1  H27C 8548   5.661   2.015   8.368  0.5469 -1.1316  1.1117
   83CHL1    C3 8549   3.493   1.715   6.977 -0.8065 -0.7410  0.0754
   83CHL1    H3 8550   3.584   1.651   6.978  0.7218  1.3259  1.5212
   83CHL1    O3 8551   3.478   1.760   6.844  0.5490 -0.0297  0.6463
   83CHL1   H3' 8552   3.407   1.825   6.845  0.6481  0.1388 -0.9890
   83CHL1    C4 8553   3.364   1.646   7.033 -0.3710  0.1636  0.6879
   83CHL1   H4A 8554   3.271   1.704   7.017 -1.5405 -1.7251  0.3754
   83CHL1   H4B 8555   3.364   1.556   6.968  0.7596  0.4250  0.2947
   83CHL1    C5 8556   3.374   1.605   7.170 -0.5578 -0.1661 -0.3626
   83CHL1    C6 8557   3.360   1.479   7.205 -0.1428 -0.5867 -0.2981
   83CHL1    H6 8558   3.330   1.412   7.123 -3.3996 -0.8134  0.9335
   83CHL1    C7 8559   3.375   1.417   7.339 -0.4812 -0.1049  0.8049
   83CHL1   H7A 8560   3.279   1.363   7.349  0.2790 -1.5418  0.6571
   83CHL1   H7B 8561   3.463   1.350   7.339  1.5496  2.3809 -0.1907
   83CHL1    C8 8562   3.395   1.523   7.447  0.4855  0.2777 -0.2743
   83CHL1    H8 8563   3.296   1.570   7.467 -0.6936 -2.1636  0.0262
   83CHL1   C14 8564   3.452   1.470   7.578 -0.2404  0.2365  1.0187
   83CHL1   H14 8565   3.554   1.437   7.548 -0.1851  0.0837  1.3593
   83CHL1   C15 8566   3.382   1.349   7.629  0.7553 -0.2440 -0.2061
   83CHL1  H15A 8567   3.272   1.360   7.634  0.3386 -1.6015 -3.6597
   83CHL1  H15B 8568   3.415   1.260   7.572  2.1390 -0.3936  0.7632
   83CHL1   C16 8569   3.445   1.340   7.771  0.4000  0.0365  0.4305
   83CHL1  H16A 8570   3.366   1.312   7.844 -2.1348  1.7454 -1.4516
   83CHL1  H16B 8571   3.522   1.260   7.777 -0.3158 -0.5521  2.4286
   83CHL1   C17 8572   3.512   1.480   7.810 -0.1455 -0.9127 -0.1381
   83CHL1   H17 8573   3.620   1.463   7.791 -0.2355 -4.7074  1.7025
   83CHL1   C13 8574   3.468   1.565   7.695  0.2045 -0.4872  0.1284
   83CHL1   C18 8575   3.334   1.639   7.732 -0.5563 -0.6085 -0.1584
   83CHL1  H18A 8576   3.268   1.566   7.784  0.7226 -1.7618 -0.0887
   83CHL1  H18B 8577   3.355   1.725   7.800 -1.7561  0.2288 -0.8181
   83CHL1  H18C 8578   3.285   1.676   7.640 -1.7434  2.7425  1.6185
   83CHL1   C12 8579   3.576   1.659   7.645  0.0825 -0.1296 -0.5250
   83CHL1  H12A 8580   3.592   1.736   7.724  0.0602  0.8121 -1.4258
   83CHL1  H12B 8581   3.676   1.615   7.623 -0.7720 -2.4878 -0.0315
   83CHL1   C11 8582   3.525   1.739   7.519 -0.4781  0.1724  0.0793
   83CHL1  H11A 8583   3.450   1.809   7.562 -1.0510  0.5966 -1.5467
   83CHL1  H11B 8584   3.608   1.805   7.487 -0.6584 -0.8399 -2.7047
   83CHL1    C9 8585   3.480   1.646   7.403 -0.6046  0.0636  0.2476
   83CHL1    H9 8586   3.576   1.597   7.375 -0.0807  1.6296 -0.8276
   83CHL1   C10 8587   3.429   1.716   7.273  0.3195  0.2555  0.0128
   83CHL1   C19 8588   3.319   1.820   7.305  0.4064 -0.5244  0.1765
   83CHL1  H19A 8589   3.355   1.901   7.372  1.6681 -0.3567 -0.6580
   83CHL1  H19B 8590   3.275   1.858   7.210  1.3386  2.6150  0.8999
   83CHL1  H19C 8591   3.236   1.769   7.357  2.0507 -0.3419  3.1746
   83CHL1    C1 8592   3.557   1.794   7.209  0.8054  0.4124  0.1288
   83CHL1   H1A 8593   3.576   1.887   7.267 -2.1092  2.1517 -1.4681
   83CHL1   H1B 8594   3.641   1.723   7.199 -0.3548 -0.7112 -2.3716
   83CHL1    C2 8595   3.534   1.836   7.068 -0.4182 -0.6964  0.6328
   83CHL1   H2A 8596   3.626   1.886   7.031  0.7241 -1.9756  1.6461
   83CHL1   H2B 8597   3.451   1.909   7.076  1.2531  1.2498  0.8993
   83CHL1   C20 8598   3.497   1.526   7.959 -0.6684  0.4536  0.1275
   83CHL1   H20 8599   3.390   1.543   7.984 -1.1137 -2.2093  0.2910
   83CHL1   C21 8600   3.571   1.662   7.980  0.1131  0.3529  0.3453
   83CHL1  H21A 8601   3.676   1.647   7.946  0.2992  1.6907  0.2909
   83CHL1  H21B 8602   3.581   1.689   8.088  1.6815 -0.8344  0.5362
   83CHL1  H21C 8603   3.532   1.752   7.928  0.3910  1.7549  2.4100
   83CHL1   C22 8604   3.543   1.425   8.071 -0.1284 -0.4113 -0.7752
   83CHL1  H22A 8605   3.516   1.320   8.044  0.5205 -0.4702 -1.2490
   83CHL1  H22B 8606   3.653   1.435   8.083 -0.1166  0.1960 -1.3587
   83CHL1   C23 8607   3.483   1.437   8.203 -0.0094  0.4882  0.4508
   83CHL1  H23A 8608   3.514   1.532   8.253 -0.0659  2.2451 -2.6142
   83CHL1  H23B 8609   3.373   1.425   8.203  0.1598 -1.3913 -0.8367
   83CHL1   C24 8610   3.540   1.311   8.277  0.0213  0.5272 -0.3243
   83CHL1  H24A 8611   3.513   1.220   8.220 -1.1953 -0.6130  1.9564
   83CHL1  H24B 8612   3.651   1.308   8.275  0.0499  1.4847 -1.1079
   83CHL1   C25 8613   3.509   1.284   8.424  0.3230  1.0480 -0.0171
   83CHL1   H25 8614   3.561   1.358   8.488  0.2691 -0.1563  1.4830
   83CHL1   C26 8615   3.357   1.299   8.453  0.5351  0.0268 -0.5307
   83CHL1  H26A 8616   3.316   1.400   8.430  0.3851  0.0350 -0.2328
   83CHL1  H26B 8617   3.299   1.225   8.394  1.9319 -1.1249 -0.5393
   83CHL1  H26C 8618   3.338   1.264   8.556 -1.4850  2.1378 -0.1062
   83CHL1   C27 8619   3.551   1.145   8.475  0.0680  0.4669 -0.0339
   83CHL1  H27A 8620   3.661   1.142   8.457  0.1996 -2.9940  0.6859
   83CHL1  H27B 8621   3.534   1.123   8.582 -0.3205 -0.9302 -0.3644
   83CHL1  H27C 8622   3.495   1.062   8.426 -0.1978 -1.0466  2.6570
   84CHL1    C3 8623   2.942   5.281   7.037 -0.2871 -0.3019  0.6739
   84CHL1    H3 8624   3.039   5.335   7.048  0.0239 -0.0580 -2.2546
   84CHL1    O3 8625   2.924   5.244   6.901 -0.0028 -0.0106  0.6936
   84CHL1   H3' 8626   2.830   5.231   6.893 -0.1333  0.8979  0.7001
   84CHL1    C4 8627   2.949   5.151   7.122 -0.1644 -0.1533  0.2365
   84CHL1   H4A 8628   2.850   5.101   7.118  1.5612 -3.8183 -0.2315
   84CHL1   H4B 8629   3.026   5.090   7.072  1.6093  2.4156 -0.3863
   84CHL1    C5 8630   2.974   5.186   7.265  0.0514  0.4592 -0.1550
   84CHL1    C6 8631   3.076   5.128   7.330 -0.0427 -0.1484  0.4099
   84CHL1    H6 8632   3.137   5.058   7.270  2.4514  3.0750 -1.2212
   84CHL1    C7 8633   3.120   5.154   7.467 -0.0811 -0.0424  0.5484
   84CHL1   H7A 8634   3.153   5.065   7.525  1.9500  0.2105 -0.1169
   84CHL1   H7B 8635   3.216   5.209   7.456  1.0665 -1.9965  0.3741
   84CHL1    C8 8636   3.011   5.232   7.551  0.9861  0.9403  0.1112
   84CHL1    H8 8637   2.931   5.158   7.570  1.7875 -0.6049 -2.1335
   84CHL1   C14 8638   3.063   5.290   7.686 -0.6277 -0.8989  0.8184
   84CHL1   H14 8639   3.124   5.376   7.650 -1.7778  0.4283  1.9051
   84CHL1   C15 8640   3.149   5.194   7.769 -0.0212 -0.4727  0.4796
   84CHL1  H15A 8641   3.104   5.094   7.781 -1.5747  0.4140  2.8196
   84CHL1  H15B 8642   3.250   5.174   7.726 -0.4336 -1.6943  0.0339
   84CHL1   C16 8643   3.142   5.271   7.899  0.0759  0.1166  0.0156
   84CHL1  H16A 8644   3.108   5.195   7.973  0.2565  1.6716  1.7813
   84CHL1  H16B 8645   3.240   5.294   7.947  0.0014 -0.4542  0.4499
   84CHL1   C17 8646   3.049   5.395   7.886  0.5439 -0.4887 -0.1132
   84CHL1   H17 8647   3.109   5.478   7.844 -0.0586  0.5119  0.9561
   84CHL1   C13 8648   2.959   5.367   7.765  0.2093  0.4129  0.2119
   84CHL1   C18 8649   2.845   5.265   7.798 -0.6158 -0.1007  0.7489
   84CHL1  H18A 8650   2.768   5.322   7.854  0.0107  1.6015 -0.0690
   84CHL1  H18B 8651   2.788   5.238   7.707 -0.5051 -0.7288  0.8630
   84CHL1  H18C 8652   2.880   5.169   7.842  0.0335  0.1884  0.8811
   84CHL1   C12 8653   2.902   5.486   7.686  0.2439 -0.0021 -0.8181
   84CHL1  H12A 8654   2.823   5.541   7.741 -1.1354 -1.3127 -1.4249
   84CHL1  H12B 8655   2.988   5.556   7.673  1.1495 -1.5040 -3.8705
   84CHL1   C11 8656   2.853   5.439   7.546 -0.4895  0.3540 -0.2064
   84CHL1  H11A 8657   2.753   5.390   7.556  0.0282 -0.8454 -0.6874
   84CHL1  H11B 8658   2.831   5.529   7.484 -0.4651  0.0959 -0.5950
   84CHL1    C9 8659   2.949   5.343   7.464  0.6614 -0.1554 -0.2730
   84CHL1    H9 8660   3.035   5.408   7.439 -0.2025  0.9871 -0.3186
   84CHL1   C10 8661   2.881   5.283   7.329  0.5316  0.0634 -0.5402
   84CHL1   C19 8662   2.744   5.220   7.364 -0.3695  0.4665 -0.0398
   84CHL1  H19A 8663   2.667   5.298   7.380 -0.4212  0.4252 -0.0835
   84CHL1  H19B 8664   2.708   5.150   7.284 -0.2730 -0.6949  0.9002
   84CHL1  H19C 8665   2.749   5.163   7.459 -1.4739  1.8906  0.9142
   84CHL1    C1 8666   2.850   5.405   7.231 -0.6539 -0.2567 -0.4239
   84CHL1   H1A 8667   2.771   5.469   7.276 -1.1166 -1.3200  0.3314
   84CHL1   H1B 8668   2.941   5.468   7.228  1.1488 -2.4069  2.7822
   84CHL1    C2 8669   2.823   5.366   7.088  0.4603 -0.4390 -0.6787
   84CHL1   H2A 8670   2.811   5.452   7.018 -0.5553  0.0167  0.0247
   84CHL1   H2B 8671   2.727   5.311   7.078 -0.7847  1.6312 -0.6607
   84CHL1   C20 8672   2.990   5.447   8.015  0.5547  0.3370  0.5601
   84CHL1   H20 8673   2.939   5.358   8.055  3.8055 -2.4092 -0.9020
   84CHL1   C21 8674   2.876   5.544   7.999  0.9366  0.0329 -0.2094
   84CHL1  H21A 8675   2.836   5.585   8.094  0.5202 -0.3933 -0.2011
   84CHL1  H21B 8676   2.784   5.502   7.954  1.5348  0.7753 -2.2198
   84CHL1  H21C 8677   2.888   5.634   7.934 -1.2360  0.7967  0.3419
   84CHL1   C22 8678   3.101   5.489   8.115  0.5865  0.1611  0.9128
   84CHL1  H22A 8679   3.189   5.422   8.114  0.6349  0.2232  0.2163
   84CHL1  H22B 8680   3.140   5.588   8.082  0.4567 -0.8235 -2.6452
   84CHL1   C23 8681   3.053   5.512   8.260 -0.1838 -0.3227  0.0158
   84CHL1  H23A 8682   3.004   5.612   8.268  1.9674  0.6844  1.7263
   84CHL1  H23B 8683   2.976   5.440   8.295 -1.3829  0.8081 -0.2054
   84CHL1   C24 8684   3.175   5.540   8.348 -0.9131 -0.6362 -0.0192
   84CHL1  H24A 8685   3.234   5.447   8.366 -0.0534  0.0497  0.7735
   84CHL1  H24B 8686   3.241   5.610   8.295 -1.9336 -1.3539 -2.3727
   84CHL1   C25 8687   3.140   5.603   8.479 -0.0708  0.4922  0.4858
   84CHL1   H25 8688   3.076   5.692   8.463 -0.0812  0.7990  2.0454
   84CHL1   C26 8689   3.075   5.502   8.573  0.2799  0.2241  0.4489
   84CHL1  H26A 8690   3.070   5.530   8.680  0.5688  0.1220  0.4908
   84CHL1  H26B 8691   2.972   5.487   8.536  0.0970  2.0816  0.1005
   84CHL1  H26C 8692   3.133   5.407   8.578  1.1873  0.5697 -2.0474
   84CHL1   C27 8693   3.264   5.668   8.545  0.5496  0.9610  0.6130
   84CHL1  H27A 8694   3.293   5.762   8.494 -2.6069  0.7837 -1.8105
   84CHL1  H27B 8695   3.243   5.694   8.651 -0.5010 -0.0099  0.6609
   84CHL1  H27C 8696   3.345   5.591   8.549  1.3849  1.7482 -0.5500
   85CHL1    C3 8697   3.670   1.359   6.875  0.2376  0.3504  0.3161
   85CHL1    H3 8698   3.609   1.449   6.898 -0.2322 -0.6316  3.3181
   85CHL1    O3 8699   3.674   1.327   6.737 -0.2160 -0.1391  0.6115
   85CHL1   H3' 8700   3.681   1.231   6.728 -1.1821 -0.0689 -1.5696
   85CHL1    C4 8701   3.817   1.385   6.927 -0.0583 -0.3938  0.4477
   85CHL1   H4A 8702   3.888   1.311   6.885 -0.8931 -0.2346 -1.3454
   85CHL1   H4B 8703   3.843   1.480   6.874 -0.7972 -0.3733  0.1003
   85CHL1    C5 8704   3.837   1.399   7.079  0.1877  0.3159 -0.4971
   85CHL1    C6 8705   3.885   1.514   7.139  0.4746  0.5205  0.6444
   85CHL1    H6 8706   3.919   1.595   7.073  0.1094  1.2153  1.3002
   85CHL1    C7 8707   3.921   1.518   7.281 -0.3274 -0.6475  0.0417
   85CHL1   H7A 8708   4.022   1.564   7.296 -0.9561  1.0783 -0.7228
   85CHL1   H7B 8709   3.846   1.584   7.328  1.1620  1.1900 -0.0098
   85CHL1    C8 8710   3.913   1.382   7.358 -0.1228 -0.4838  0.6200
   85CHL1    H8 8711   4.006   1.327   7.331 -1.6209 -2.6077 -0.4978
   85CHL1   C14 8712   3.914   1.398   7.508 -0.1326  0.3051 -1.0072
   85CHL1   H14 8713   3.829   1.461   7.544  1.4330  1.3855  1.0853
   85CHL1   C15 8714   4.030   1.479   7.573 -0.3833  0.2470 -1.2300
   85CHL1  H15A 8715   4.116   1.433   7.519 -1.3615 -1.3279 -1.4890
   85CHL1  H15B 8716   4.033   1.590   7.577 -1.3305  0.2535  2.0510
   85CHL1   C16 8717   4.024   1.422   7.721 -0.1825 -0.7356  0.5013
   85CHL1  H16A 8718   4.128   1.397   7.751  1.3471  2.6291 -1.4773
   85CHL1  H16B 8719   3.991   1.509   7.782 -0.3406  0.0365 -0.6727
   85CHL1   C17 8720   3.909   1.318   7.731  0.2533  0.8039  0.1640
   85CHL1   H17 8721   3.824   1.385   7.752  0.0689  0.7986 -0.5239
   85CHL1   C13 8722   3.898   1.254   7.587 -0.2203 -0.4375  0.7225
   85CHL1   C18 8723   4.022   1.159   7.567  0.6144 -0.0326  0.1087
   85CHL1  H18A 8724   4.116   1.196   7.613  1.6577  0.1358 -2.0583
   85CHL1  H18B 8725   4.001   1.054   7.598 -1.1185  0.7641  1.8284
   85CHL1  H18C 8726   4.049   1.152   7.460 -2.3377  0.6372 -0.7776
   85CHL1   C12 8727   3.765   1.192   7.536  0.3318  0.1921 -0.2954
   85CHL1  H12A 8728   3.735   1.096   7.584 -0.7322  0.1190 -1.0901
   85CHL1  H12B 8729   3.684   1.266   7.553  3.5828  3.9660  0.3108
   85CHL1   C11 8730   3.771   1.163   7.384 -0.0699 -0.5601  0.2680
   85CHL1  H11A 8731   3.853   1.090   7.366  0.9609  0.1441  1.8509
   85CHL1  H11B 8732   3.678   1.110   7.357 -0.4548  0.1159  0.2462
   85CHL1    C9 8733   3.794   1.295   7.304  0.7582  0.1402  0.1031
   85CHL1    H9 8734   3.705   1.357   7.328  0.3331 -0.7625  0.9342
   85CHL1   C10 8735   3.787   1.278   7.148  0.6462 -0.1884  0.2750
   85CHL1   C19 8736   3.883   1.163   7.118  0.4660  0.2918 -0.1387
   85CHL1  H19A 8737   3.849   1.064   7.154 -1.2495 -0.1107 -2.6580
   85CHL1  H19B 8738   3.887   1.137   7.011  0.5463 -2.1486  0.4109
   85CHL1  H19C 8739   3.985   1.184   7.158  0.3250 -0.2623  0.5306
   85CHL1    C1 8740   3.645   1.244   7.110  0.4696  0.4092 -0.2193
   85CHL1   H1A 8741   3.622   1.144   7.153 -0.4892  1.8856  3.0358
   85CHL1   H1B 8742   3.570   1.316   7.149 -0.2867  0.3598 -1.5189
   85CHL1    C2 8743   3.629   1.229   6.958  0.5116 -0.3639  0.7746
   85CHL1   H2A 8744   3.521   1.224   6.932  1.2166  0.2351 -2.8598
   85CHL1   H2B 8745   3.678   1.142   6.909 -0.0738 -0.3016  0.0654
   85CHL1   C20 8746   3.924   1.221   7.851 -0.8597 -0.0334 -0.5548
   85CHL1   H20 8747   4.030   1.187   7.853 -1.3798 -1.8470  2.2465
   85CHL1   C21 8748   3.833   1.101   7.856  0.0433  0.0166 -1.2516
   85CHL1  H21A 8749   3.855   1.040   7.767  2.4724 -0.3710 -0.4395
   85CHL1  H21B 8750   3.724   1.126   7.858  0.5560  2.6381  1.7226
   85CHL1  H21C 8751   3.851   1.041   7.948 -4.2894 -0.2831 -0.3767
   85CHL1   C22 8752   3.916   1.308   7.982 -0.3596 -0.1278  0.7888
   85CHL1  H22A 8753   3.961   1.410   7.980  0.2180 -0.2325  3.6789
   85CHL1  H22B 8754   3.810   1.305   8.013 -0.9545 -1.0546 -1.1688
   85CHL1   C23 8755   3.991   1.247   8.100  0.4894  0.0472  0.1665
   85CHL1  H23A 8756   3.967   1.139   8.112 -0.7018  0.2663 -0.0952
   85CHL1  H23B 8757   4.099   1.252   8.078  0.0865  1.8968 -1.6860
   85CHL1   C24 8758   3.974   1.336   8.226  0.7743  0.1202 -0.0148
   85CHL1  H24A 8759   3.996   1.442   8.200  1.1429  0.4311  1.4573
   85CHL1  H24B 8760   3.868   1.344   8.258  0.2432  0.0755 -1.6595
   85CHL1   C25 8761   4.063   1.282   8.348  0.1683 -0.4742 -0.0786
   85CHL1   H25 8762   4.162   1.262   8.302 -0.3643 -0.9686 -1.0498
   85CHL1   C26 8763   4.081   1.386   8.458 -0.3794 -0.2835  1.0975
   85CHL1  H26A 8764   4.141   1.466   8.410  0.0497 -0.1982  1.7616
   85CHL1  H26B 8765   3.994   1.454   8.473 -2.0902 -1.6302 -1.8378
   85CHL1  H26C 8766   4.122   1.353   8.556 -1.7060 -1.7921  1.1922
   85CHL1   C27 8767   3.991   1.159   8.410 -0.1952  0.3199 -0.4728
   85CHL1  H27A 8768   3.903   1.183   8.473  1.0682  1.0776  1.1114
   85CHL1  H27B 8769   3.965   1.083   8.334  0.4631  0.4488 -0.8397
   85CHL1  H27C 8770   4.054   1.112   8.489  1.2278  0.8177 -1.2582
   86CHL1    C3 8771   6.062   6.790   6.878 -0.3326  0.0209  0.5412
   86CHL1    H3 8772   5.975   6.722   6.896  2.3787 -3.4564  1.5101
   86CHL1    O3 8773   6.086   6.817   6.742  0.0213  0.2369  0.1984
   86CHL1   H3' 8774   6.076   6.735   6.693  2.2803 -0.0609  0.1151
   86CHL1    C4 8775   6.041   6.931   6.941  0.0097 -0.6869 -0.4995
   86CHL1   H4A 8776   6.120   7.005   6.915  1.8987 -0.8417  3.9206
   86CHL1   H4B 8777   5.947   6.962   6.889 -0.3965 -0.2209  0.4788
   86CHL1    C5 8778   6.012   6.922   7.086  0.6282 -0.0353  0.9085
   86CHL1    C6 8779   5.897   6.969   7.137 -0.0622  0.1591  1.0563
   86CHL1    H6 8780   5.821   7.017   7.074 -0.3875 -1.7190 -0.0459
   86CHL1    C7 8781   5.869   6.961   7.280 -0.3693 -0.0082 -0.2057
   86CHL1   H7A 8782   5.803   7.046   7.307 -0.2374  0.0548 -0.0849
   86CHL1   H7B 8783   5.805   6.871   7.296 -0.0397 -0.5013 -1.5592
   86CHL1    C8 8784   5.993   6.953   7.362  0.3538 -0.0666 -0.9590
   86CHL1    H8 8785   6.057   7.043   7.350 -0.1887  0.2139 -1.8204
   86CHL1   C14 8786   5.956   6.943   7.513 -0.2745  0.1930 -0.3520
   86CHL1   H14 8787   5.888   6.857   7.528 -0.5084  0.5413  0.6480
   86CHL1   C15 8788   5.879   7.057   7.578 -0.6357 -1.2704 -0.0829
   86CHL1  H15A 8789   5.923   7.158   7.565 -3.6025  0.1774  0.2690
   86CHL1  H15B 8790   5.776   7.059   7.537 -0.9590  2.0102  0.6269
   86CHL1   C16 8791   5.895   7.021   7.730  1.1324  0.0518 -0.1875
   86CHL1  H16A 8792   5.936   7.104   7.791 -0.0884  2.4000 -2.4122
   86CHL1  H16B 8793   5.804   6.987   7.783  0.7734  0.1682 -0.7228
   86CHL1   C17 8794   6.000   6.913   7.738  0.5351 -0.2727 -1.3027
   86CHL1   H17 8795   5.941   6.819   7.749  0.5561 -0.1397  0.2046
   86CHL1   C13 8796   6.079   6.909   7.606 -0.0398  0.1133 -0.6840
   86CHL1   C18 8797   6.172   7.027   7.614 -0.3695  0.3176  0.2813
   86CHL1  H18A 8798   6.278   7.003   7.639  0.1949  0.5132 -1.7655
   86CHL1  H18B 8799   6.171   7.075   7.514  1.5845  1.9847  0.9754
   86CHL1  H18C 8800   6.136   7.114   7.674  0.7002  1.4107 -0.6011
   86CHL1   C12 8801   6.142   6.783   7.557 -0.2114  0.1707 -1.1580
   86CHL1  H12A 8802   6.229   6.755   7.620 -1.6166 -1.2658  0.2195
   86CHL1  H12B 8803   6.070   6.699   7.571  0.4030 -0.0413  1.0978
   86CHL1   C11 8804   6.191   6.796   7.414  0.0202 -0.5180 -0.1956
   86CHL1  H11A 8805   6.275   6.869   7.408 -0.2708 -0.2191 -0.6335
   86CHL1  H11B 8806   6.237   6.699   7.386  0.2270  0.1405 -2.3221
   86CHL1    C9 8807   6.079   6.831   7.318 -0.1165  0.2522  0.3198
   86CHL1    H9 8808   6.002   6.751   7.305  0.7577 -0.5392 -0.0646
   86CHL1   C10 8809   6.116   6.860   7.171 -0.7761 -0.5873  0.1889
   86CHL1   C19 8810   6.246   6.955   7.168 -0.6701 -0.7255  0.3408
   86CHL1  H19A 8811   6.285   6.970   7.065 -0.5466 -0.8056  0.3762
   86CHL1  H19B 8812   6.216   7.052   7.213  1.8613  0.1460  0.2690
   86CHL1  H19C 8813   6.329   6.914   7.230  0.3434  1.1877  0.3074
   86CHL1    C1 8814   6.154   6.722   7.106 -0.2390 -0.0212 -0.9066
   86CHL1   H1A 8815   6.249   6.684   7.148 -0.6418  0.1267  0.1761
   86CHL1   H1B 8816   6.075   6.646   7.127  0.4623 -0.0386  2.1167
   86CHL1    C2 8817   6.181   6.721   6.952 -0.0055 -0.5799  0.4204
   86CHL1   H2A 8818   6.198   6.616   6.919  2.7801 -0.8086  2.2852
   86CHL1   H2B 8819   6.264   6.787   6.918 -0.4098 -1.0678 -1.6476
   86CHL1   C20 8820   6.078   6.922   7.875  0.0888 -0.3635 -0.1127
   86CHL1   H20 8821   6.132   7.019   7.882  1.2905 -0.8721 -1.7636
   86CHL1   C21 8822   6.190   6.819   7.881 -0.6995  0.5910  0.4254
   86CHL1  H21A 8823   6.262   6.842   7.800 -0.7230  1.8352  0.7395
   86CHL1  H21B 8824   6.153   6.714   7.877  1.0808 -0.0407 -0.9950
   86CHL1  H21C 8825   6.245   6.829   7.976 -0.3990  0.9000  0.2196
   86CHL1   C22 8826   5.988   6.920   7.999  0.3887 -0.2050  0.0670
   86CHL1  H22A 8827   5.915   7.001   7.981  0.4975 -0.4914 -1.9462
   86CHL1  H22B 8828   5.926   6.829   8.013  0.4671 -0.3858 -0.7207
   86CHL1   C23 8829   6.050   6.970   8.132 -0.4625  0.2185 -0.0724
   86CHL1  H23A 8830   5.969   6.978   8.207  0.0336  0.8163  0.4053
   86CHL1  H23B 8831   6.116   6.883   8.155 -2.2609 -0.6097  2.2834
   86CHL1   C24 8832   6.129   7.099   8.123 -0.6218 -0.7772  0.0022
   86CHL1  H24A 8833   6.209   7.085   8.047 -0.2214  0.0593  0.2601
   86CHL1  H24B 8834   6.055   7.173   8.087 -1.0461 -0.8005  0.8164
   86CHL1   C25 8835   6.204   7.161   8.248  0.1452  0.3891  0.6450
   86CHL1   H25 8836   6.118   7.190   8.312 -1.0415 -1.1967 -0.1504
   86CHL1   C26 8837   6.289   7.050   8.315  0.5755 -0.7244  0.0463
   86CHL1  H26A 8838   6.371   7.036   8.241 -3.0624  0.9063 -4.8777
   86CHL1  H26B 8839   6.338   7.089   8.406  2.6326 -2.8592 -0.0659
   86CHL1  H26C 8840   6.239   6.952   8.336 -0.4070 -0.0334  1.0868
   86CHL1   C27 8841   6.289   7.290   8.219 -0.7006 -0.1325  0.3976
   86CHL1  H27A 8842   6.318   7.346   8.311 -1.4371  0.0613  0.5211
   86CHL1  H27B 8843   6.382   7.265   8.164  0.7674  1.2923  2.0882
   86CHL1  H27C 8844   6.233   7.372   8.169  0.0370  1.1319  1.5666
   87CHL1    C3 8845   5.967   4.628   7.161  0.1685  0.1509  0.2201
   87CHL1    H3 8846   6.017   4.530   7.145 -0.5227 -0.1168 -0.4091
   87CHL1    O3 8847   5.982   4.703   7.043 -0.7361  0.2416  0.2278
   87CHL1   H3' 8848   5.913   4.769   7.031 -1.1760 -0.1714  0.4450
   87CHL1    C4 8849   5.820   4.586   7.182  0.1897 -0.0145 -0.6402
   87CHL1   H4A 8850   5.757   4.676   7.166 -1.2402 -0.9329 -0.4604
   87CHL1   H4B 8851   5.787   4.517   7.101  1.9991  0.1543 -1.5544
   87CHL1    C5 8852   5.806   4.523   7.322 -0.2858 -0.1860  1.1617
   87CHL1    C6 8853   5.757   4.402   7.340  0.2256 -0.2639  0.5836
   87CHL1    H6 8854   5.722   4.332   7.262  1.4637 -0.3365  0.0797
   87CHL1    C7 8855   5.714   4.365   7.476  0.8825  1.1776 -0.3108
   87CHL1   H7A 8856   5.607   4.338   7.479  1.1478  0.0426 -0.3356
   87CHL1   H7B 8857   5.763   4.270   7.507 -1.0338  0.4992  0.7519
   87CHL1    C8 8858   5.728   4.472   7.587 -0.1880  0.1399 -0.3819
   87CHL1    H8 8859   5.645   4.546   7.578 -1.0594 -0.5585  1.3727
   87CHL1   C14 8860   5.715   4.411   7.724 -0.1228 -0.0390 -0.3562
   87CHL1   H14 8861   5.788   4.327   7.733  0.0264 -0.0120 -1.2314
   87CHL1   C15 8862   5.576   4.339   7.755 -0.2248 -0.4243  0.0002
   87CHL1  H15A 8863   5.495   4.407   7.720 -2.0349 -2.0620  0.8144
   87CHL1  H15B 8864   5.580   4.243   7.700  1.1476 -0.8521  0.8026
   87CHL1   C16 8865   5.577   4.318   7.902  0.0392  0.3573 -0.7348
   87CHL1  H16A 8866   5.485   4.369   7.939 -0.1524 -0.5814  0.1318
   87CHL1  H16B 8867   5.587   4.212   7.933  1.1413  1.0230  1.3322
   87CHL1   C17 8868   5.699   4.400   7.954  0.4707  0.6483 -0.2838
   87CHL1   H17 8869   5.789   4.335   7.952  0.7158  0.9742 -1.8927
   87CHL1   C13 8870   5.740   4.504   7.843 -0.4665  1.0054  0.9567
   87CHL1   C18 8871   5.644   4.628   7.840  0.2587  0.1940  0.8471
   87CHL1  H18A 8872   5.541   4.589   7.850  0.4412 -1.6740 -2.8616
   87CHL1  H18B 8873   5.660   4.692   7.930 -0.8634  0.2176  1.0512
   87CHL1  H18C 8874   5.656   4.682   7.744 -1.3249 -0.1479  0.4302
   87CHL1   C12 8875   5.880   4.535   7.829 -0.1195 -0.4416 -0.2362
   87CHL1  H12A 8876   5.905   4.598   7.916 -2.6505 -0.2829  0.4691
   87CHL1  H12B 8877   5.944   4.445   7.828 -0.5177 -0.7301 -0.2175
   87CHL1   C11 8878   5.907   4.616   7.695 -0.1777  0.6564 -0.2321
   87CHL1  H11A 8879   5.862   4.717   7.692 -2.4603 -0.3129 -0.5610
   87CHL1  H11B 8880   6.017   4.627   7.682  0.0787  0.2839  1.4291
   87CHL1    C9 8881   5.863   4.541   7.568 -0.0194  0.2154  0.3818
   87CHL1    H9 8882   5.940   4.462   7.560 -2.4991 -2.3464  0.4555
   87CHL1   C10 8883   5.855   4.621   7.436 -0.3477  0.2140 -0.4070
   87CHL1   C19 8884   5.761   4.745   7.448 -0.0138  0.0559  0.6001
   87CHL1  H19A 8885   5.655   4.721   7.472 -0.6405  2.0547  0.0148
   87CHL1  H19B 8886   5.790   4.816   7.528 -1.2124  2.2939 -0.8627
   87CHL1  H19C 8887   5.771   4.807   7.357 -1.8633  0.1547  0.4126
   87CHL1    C1 8888   5.996   4.678   7.405 -0.6004  0.4015  0.0696
   87CHL1   H1A 8889   6.015   4.756   7.482 -0.8318 -1.8216  2.5334
   87CHL1   H1B 8890   6.076   4.601   7.416 -0.5947  0.2115 -1.1872
   87CHL1    C2 8891   6.032   4.717   7.269 -0.1509 -0.2067  0.4576
   87CHL1   H2A 8892   6.136   4.742   7.240 -1.1420  0.0757 -3.4710
   87CHL1   H2B 8893   5.985   4.816   7.250  1.7681  0.9762  1.6090
   87CHL1   C20 8894   5.668   4.456   8.098  0.5801  1.0424  0.2278
   87CHL1   H20 8895   5.596   4.540   8.104 -0.9511 -0.1309 -0.7330
   87CHL1   C21 8896   5.799   4.500   8.156  0.1279 -0.4492 -0.0588
   87CHL1  H21A 8897   5.823   4.603   8.124  0.4462 -0.4709  0.1067
   87CHL1  H21B 8898   5.881   4.426   8.142  0.7922  0.1683  0.5042
   87CHL1  H21C 8899   5.793   4.500   8.267  3.0159  2.2824  0.2451
   87CHL1   C22 8900   5.599   4.355   8.195  0.1893  0.0020 -0.0518
   87CHL1  H22A 8901   5.569   4.413   8.285 -2.3013 -1.1781 -0.0558
   87CHL1  H22B 8902   5.495   4.345   8.158  0.4707 -0.8345 -0.6467
   87CHL1   C23 8903   5.668   4.220   8.213 -0.4263  0.9821 -0.4222
   87CHL1  H23A 8904   5.654   4.166   8.117  1.4944 -2.5349  1.0772
   87CHL1  H23B 8905   5.777   4.232   8.230 -0.2947 -1.5350  1.0350
   87CHL1   C24 8906   5.600   4.132   8.320  0.4288  0.3460 -0.5762
   87CHL1  H24A 8907   5.491   4.155   8.313  0.6719  2.1515  0.8839
   87CHL1  H24B 8908   5.610   4.024   8.297 -0.9452  0.3503 -1.3021
   87CHL1   C25 8909   5.648   4.154   8.470  0.1220  0.1432 -0.5903
   87CHL1   H25 8910   5.635   4.262   8.493  0.3831 -0.2091  1.4338
   87CHL1   C26 8911   5.556   4.072   8.571  0.1395 -0.9706  0.0865
   87CHL1  H26A 8912   5.532   3.966   8.548 -2.2272 -0.3303 -0.6528
   87CHL1  H26B 8913   5.601   4.092   8.671  3.5986  0.6801 -1.6217
   87CHL1  H26C 8914   5.454   4.116   8.568  0.4328 -0.3117 -0.6250
   87CHL1   C27 8915   5.796   4.116   8.489  0.1746 -0.4902 -0.4680
   87CHL1  H27A 8916   5.856   4.183   8.423 -0.8434  0.4376 -0.4701
   87CHL1  H27B 8917   5.831   4.129   8.594  0.1784 -0.7545 -0.4366
   87CHL1  H27C 8918   5.796   4.008   8.463 -0.9062 -0.7167  0.4324
   88CHL1    C3 8919   3.501   4.014   6.924 -0.5766  0.4898 -0.7030
   88CHL1    H3 8920   3.577   3.934   6.934 -2.2747 -1.2763 -1.3180
   88CHL1    O3 8921   3.450   4.020   6.798 -0.3092 -0.3522 -0.0410
   88CHL1   H3' 8922   3.389   4.094   6.790 -0.2348 -0.4494 -2.6598
   88CHL1    C4 8923   3.387   3.990   7.028 -0.0107  0.3744  0.5571
   88CHL1   H4A 8924   3.306   4.060   6.998 -0.7521 -1.0888 -1.0607
   88CHL1   H4B 8925   3.337   3.892   7.020  0.8390  0.0489 -1.5262
   88CHL1    C5 8926   3.438   4.000   7.170 -0.4933 -0.4866  0.2067
   88CHL1    C6 8927   3.424   3.900   7.261  0.1288  0.2421 -0.1939
   88CHL1    H6 8928   3.362   3.816   7.226 -0.7291  1.6810 -2.3379
   88CHL1    C7 8929   3.461   3.909   7.404  0.4380 -0.4449  0.0576
   88CHL1   H7A 8930   3.381   3.860   7.464  0.6871 -0.6153  0.2554
   88CHL1   H7B 8931   3.546   3.837   7.411 -1.1152 -2.2795  0.8286
   88CHL1    C8 8932   3.502   4.049   7.448  0.6249 -0.4174 -0.2579
   88CHL1    H8 8933   3.407   4.102   7.469  0.2392 -0.4953 -1.7120
   88CHL1   C14 8934   3.594   4.051   7.569  0.0738 -0.1415  0.0933
   88CHL1   H14 8935   3.688   4.003   7.535 -0.2214 -0.3791 -0.3922
   88CHL1   C15 8936   3.556   3.966   7.699 -0.0142 -0.2034 -0.4464
   88CHL1  H15A 8937   3.447   3.971   7.719 -0.1262  0.5734 -1.1687
   88CHL1  H15B 8938   3.588   3.860   7.693 -0.7091 -0.7277  2.9649
   88CHL1   C16 8939   3.630   4.038   7.816 -0.0520  0.2334  0.3102
   88CHL1  H16A 8940   3.562   4.094   7.883 -1.7736 -1.0781 -0.2281
   88CHL1  H16B 8941   3.691   3.973   7.882  0.6330  0.1925 -0.3485
   88CHL1   C17 8942   3.718   4.138   7.744  0.4839  0.3860  0.1972
   88CHL1   H17 8943   3.804   4.074   7.714 -1.3503 -2.2693  0.2512
   88CHL1   C13 8944   3.638   4.186   7.616 -0.0015  0.6547 -0.0565
   88CHL1   C18 8945   3.517   4.265   7.667  0.1232  0.5330  0.7455
   88CHL1  H18A 8946   3.450   4.204   7.730 -1.5265 -0.5259 -1.8520
   88CHL1  H18B 8947   3.549   4.355   7.725  3.2819  0.7378 -1.0758
   88CHL1  H18C 8948   3.456   4.294   7.579  2.5830 -2.8065 -2.3405
   88CHL1   C12 8949   3.722   4.249   7.499 -0.2759  0.3175 -0.3273
   88CHL1  H12A 8950   3.765   4.348   7.524 -1.1258  0.3208  1.2308
   88CHL1  H12B 8951   3.808   4.182   7.477 -1.1582 -0.4159 -1.7287
   88CHL1   C11 8952   3.647   4.260   7.377  0.1421  0.8654  0.5361
   88CHL1  H11A 8953   3.564   4.333   7.386 -0.0145  0.8001 -0.2688
   88CHL1  H11B 8954   3.710   4.286   7.289  0.4990  2.4602  1.2359
   88CHL1    C9 8955   3.583   4.121   7.335  0.0672 -0.2343 -1.2322
   88CHL1    H9 8956   3.670   4.053   7.324 -0.9629 -1.6733 -0.8040
   88CHL1   C10 8957   3.511   4.131   7.202 -0.4504 -0.1992 -0.1498
   88CHL1   C19 8958   3.409   4.254   7.213 -0.3435 -0.3791  0.3609
   88CHL1  H19A 8959   3.472   4.344   7.199  0.5016 -1.0238 -0.0464
   88CHL1  H19B 8960   3.334   4.252   7.131  1.4398 -0.1992 -1.3422
   88CHL1  H19C 8961   3.364   4.248   7.315  3.2951 -0.9985  2.1002
   88CHL1    C1 8962   3.615   4.165   7.088  0.2500 -0.2062 -0.0826
   88CHL1   H1A 8963   3.650   4.270   7.087 -0.5833  0.0758 -0.9739
   88CHL1   H1B 8964   3.706   4.101   7.094 -0.9389 -1.9031  0.8383
   88CHL1    C2 8965   3.555   4.143   6.950  0.3188  0.0965  0.7218
   88CHL1   H2A 8966   3.629   4.179   6.875 -0.8150  1.1079  0.0404
   88CHL1   H2B 8967   3.479   4.223   6.941 -1.1603 -1.0995  2.0989
   88CHL1   C20 8968   3.771   4.244   7.844  0.6564 -0.0163  0.0977
   88CHL1   H20 8969   3.684   4.283   7.900 -1.1734 -0.7494 -2.0515
   88CHL1   C21 8970   3.822   4.373   7.778  0.1289 -0.4261  0.4419
   88CHL1  H21A 8971   3.842   4.443   7.863 -0.1210 -2.9902  2.7619
   88CHL1  H21B 8972   3.736   4.419   7.725  1.2043 -0.7946 -1.7031
   88CHL1  H21C 8973   3.908   4.350   7.713  1.0925 -0.0610  1.5625
   88CHL1   C22 8974   3.867   4.186   7.940  0.6726  0.1574  0.4602
   88CHL1  H22A 8975   3.809   4.115   8.002 -0.3744 -0.4789 -1.1632
   88CHL1  H22B 8976   3.952   4.146   7.881 -0.7240 -0.5474 -1.1633
   88CHL1   C23 8977   3.917   4.279   8.045 -0.4303 -0.6892  0.0589
   88CHL1  H23A 8978   3.993   4.348   8.003  0.6573 -0.4062  2.3467
   88CHL1  H23B 8979   3.827   4.340   8.068 -1.7255 -1.8007 -1.7856
   88CHL1   C24 8980   3.980   4.213   8.169  0.0638 -0.4444  0.7225
   88CHL1  H24A 8981   3.894   4.158   8.212  0.2382 -0.0163  1.6560
   88CHL1  H24B 8982   4.074   4.157   8.149  1.2877  1.2534  1.4589
   88CHL1   C25 8983   4.021   4.312   8.287 -0.0382 -0.5242  0.4545
   88CHL1   H25 8984   3.932   4.373   8.311  0.3271  0.1747  0.0832
   88CHL1   C26 8985   4.079   4.226   8.399 -0.3678  0.1304  0.4431
   88CHL1  H26A 8986   4.036   4.124   8.399 -0.9095  0.3107 -1.9716
   88CHL1  H26B 8987   4.183   4.209   8.363 -0.8890  0.3285 -1.1989
   88CHL1  H26C 8988   4.078   4.290   8.491  0.7854  1.9403 -0.7286
   88CHL1   C27 8989   4.113   4.437   8.251 -0.1389  0.3028  0.2052
   88CHL1  H27A 8990   4.083   4.488   8.157  2.7805  0.4042 -0.7651
   88CHL1  H27B 8991   4.098   4.509   8.334 -1.7128 -0.8060  0.9430
   88CHL1  H27C 8992   4.218   4.403   8.238  0.1421  0.7143  1.2964
   89CHL1    C3 8993   6.089   5.071   7.096 -0.7521  0.4705  0.5463
   89CHL1    H3 8994   6.045   4.973   7.127 -1.6526 -0.0775 -2.2207
   89CHL1    O3 8995   6.061   5.086   6.959 -0.1017 -0.2120  1.1327
   89CHL1   H3' 8996   6.120   5.157   6.935  1.8248 -2.0290  0.1562
   89CHL1    C4 8997   6.033   5.194   7.174 -0.0953 -0.5150  0.0597
   89CHL1   H4A 8998   6.068   5.289   7.129  2.2670 -1.2988  0.1194
   89CHL1   H4B 8999   5.923   5.185   7.157 -0.3667  0.9140  0.9210
   89CHL1    C5 9000   6.081   5.203   7.320 -0.6369  0.3421 -0.8281
   89CHL1    C6 9001   5.992   5.227   7.414 -0.2128 -0.9209  0.6183
   89CHL1    H6 9002   5.889   5.242   7.380  0.6730 -1.1147 -2.4409
   89CHL1    C7 9003   6.029   5.232   7.559 -0.1635 -0.2232 -0.9169
   89CHL1   H7A 9004   5.985   5.322   7.606  0.0382  0.1432 -1.4198
   89CHL1   H7B 9005   5.976   5.149   7.611  0.5391  0.8577  1.6909
   89CHL1    C8 9006   6.181   5.221   7.592 -0.6870 -0.3267  0.0529
   89CHL1    H8 9007   6.215   5.326   7.573 -1.3801  0.0055  0.6053
   89CHL1   C14 9008   6.204   5.178   7.737  0.4050  0.7745  0.4478
   89CHL1   H14 9009   6.170   5.073   7.740  1.2239  0.4456 -1.0978
   89CHL1   C15 9010   6.133   5.256   7.851  1.0922  0.4804  0.2544
   89CHL1  H15A 9011   6.138   5.364   7.828  0.1924  0.5670  0.4406
   89CHL1  H15B 9012   6.027   5.226   7.862  0.8041  1.1844 -0.5193
   89CHL1   C16 9013   6.215   5.232   7.971  0.1471  0.2681 -0.3182
   89CHL1  H16A 9014   6.253   5.326   8.017 -2.6151  1.4722 -0.2834
   89CHL1  H16B 9015   6.164   5.172   8.049  0.1279 -1.0104 -1.2873
   89CHL1   C17 9016   6.343   5.150   7.924  0.2341 -0.2338 -0.9656
   89CHL1   H17 9017   6.316   5.044   7.944  1.5182 -0.4596 -0.2820
   89CHL1   C13 9018   6.352   5.176   7.775  0.4845 -0.6180  0.3746
   89CHL1   C18 9019   6.422   5.312   7.762 -0.1838 -0.0100 -0.9427
   89CHL1  H18A 9020   6.390   5.390   7.835 -0.8537  0.3370 -1.5981
   89CHL1  H18B 9021   6.532   5.304   7.777 -0.2855 -0.6418 -0.4466
   89CHL1  H18C 9022   6.408   5.361   7.664 -0.2255  1.1288 -0.3873
   89CHL1   C12 9023   6.425   5.073   7.686 -0.6586 -0.1046 -0.9490
   89CHL1  H12A 9024   6.534   5.075   7.708 -0.9535 -1.9482  0.8978
   89CHL1  H12B 9025   6.382   4.974   7.711  2.6489 -1.0930  1.5097
   89CHL1   C11 9026   6.401   5.104   7.539 -0.3484 -0.3227 -0.4144
   89CHL1  H11A 9027   6.461   5.195   7.513  0.5471 -1.1386 -1.2979
   89CHL1  H11B 9028   6.457   5.022   7.490 -2.1181 -2.0735  0.3850
   89CHL1    C9 9029   6.248   5.124   7.497  0.8045 -0.4768  0.1980
   89CHL1    H9 9030   6.205   5.022   7.510 -0.2702  0.1499  1.7821
   89CHL1   C10 9031   6.231   5.164   7.348 -0.1040 -0.8869 -0.7405
   89CHL1   C19 9032   6.326   5.284   7.312  0.0283  0.0380  0.3931
   89CHL1  H19A 9033   6.307   5.362   7.388 -1.2881  0.9032 -0.7798
   89CHL1  H19B 9034   6.433   5.256   7.305  0.1187  0.1013  1.3305
   89CHL1  H19C 9035   6.316   5.325   7.209  2.4197 -2.3926 -0.9282
   89CHL1    C1 9036   6.280   5.042   7.265  1.0563  0.1602  0.2473
   89CHL1   H1A 9037   6.390   5.032   7.277  0.9666  0.6937  1.7607
   89CHL1   H1B 9038   6.230   4.951   7.305  1.2927  0.2179  0.6812
   89CHL1    C2 9039   6.244   5.057   7.119  0.1412  0.0179  0.3856
   89CHL1   H2A 9040   6.289   4.971   7.065  0.8790  0.8392 -0.3287
   89CHL1   H2B 9041   6.290   5.149   7.080  0.4091  0.9802  2.8061
   89CHL1   C20 9042   6.462   5.183   8.014 -0.7076 -0.7170  0.5649
   89CHL1   H20 9043   6.493   5.289   8.015 -0.7599 -0.6980  0.2814
   89CHL1   C21 9044   6.586   5.116   7.961 -0.3346  0.1954 -0.0909
   89CHL1  H21A 9045   6.660   5.095   8.041  0.4526  0.7165 -0.6824
   89CHL1  H21B 9046   6.641   5.161   7.876 -0.4474  0.2629 -0.1284
   89CHL1  H21C 9047   6.540   5.021   7.925 -0.6614  0.2397  0.2059
   89CHL1   C22 9048   6.446   5.131   8.154 -0.0094 -0.0900  0.0435
   89CHL1  H22A 9049   6.340   5.141   8.188 -0.4467  2.1182 -1.7607
   89CHL1  H22B 9050   6.461   5.021   8.152 -1.2123 -0.2893  0.5350
   89CHL1   C23 9051   6.534   5.208   8.253 -0.3420  0.0697 -0.0932
   89CHL1  H23A 9052   6.639   5.172   8.240 -0.0187 -0.7498  3.6346
   89CHL1  H23B 9053   6.551   5.314   8.225  2.4182  0.4705  2.5566
   89CHL1   C24 9054   6.497   5.199   8.400  0.6011 -0.1947 -0.3205
   89CHL1  H24A 9055   6.571   5.265   8.451 -0.6800 -0.1357  1.5514
   89CHL1  H24B 9056   6.399   5.250   8.403  1.4094  1.4655 -0.7455
   89CHL1   C25 9057   6.504   5.059   8.461 -0.6930 -0.1517 -0.2722
   89CHL1   H25 9058   6.451   4.992   8.390  0.8535 -0.3325 -1.3113
   89CHL1   C26 9059   6.651   5.016   8.464  0.4150  0.4399 -0.7242
   89CHL1  H26A 9060   6.641   4.908   8.488  1.0344  0.6718  0.6243
   89CHL1  H26B 9061   6.689   5.015   8.359 -0.6391 -0.2993 -1.1242
   89CHL1  H26C 9062   6.714   5.068   8.538  1.4891 -2.0331  0.2117
   89CHL1   C27 9063   6.429   5.055   8.595  0.2726 -0.0954 -0.3639
   89CHL1  H27A 9064   6.439   4.954   8.641 -1.6912  0.0330  0.4264
   89CHL1  H27B 9065   6.485   5.126   8.659  0.8669  0.3329 -1.3265
   89CHL1  H27C 9066   6.325   5.091   8.583  0.0971 -0.6137 -0.4295
   90CHL1    C3 9067   0.769   1.815   6.983 -0.0553 -0.2565  0.2906
   90CHL1    H3 9068   0.763   1.705   6.996  1.0376 -0.4863 -0.8826
   90CHL1    O3 9069   0.810   1.849   6.851 -0.5836  0.4973 -0.0143
   90CHL1   H3' 9070   0.735   1.845   6.792 -1.1674  1.8102  0.6058
   90CHL1    C4 9071   0.643   1.895   7.019  0.1038  0.5664 -0.1789
   90CHL1   H4A 9072   0.665   2.002   6.997  1.9725  0.1505 -0.4882
   90CHL1   H4B 9073   0.567   1.855   6.948  1.7459 -0.7850 -1.2355
   90CHL1    C5 9074   0.604   1.868   7.165  0.0445  0.7407 -0.4374
   90CHL1    C6 9075   0.485   1.805   7.191 -0.9315 -0.3160  0.0255
   90CHL1    H6 9076   0.413   1.785   7.110  0.4797 -1.1273 -1.0824
   90CHL1    C7 9077   0.435   1.776   7.328 -0.0341  0.1346  0.5823
   90CHL1   H7A 9078   0.343   1.835   7.345  0.4181  0.4736  1.9915
   90CHL1   H7B 9079   0.434   1.668   7.352 -1.7372  0.0658  0.3440
   90CHL1    C8 9080   0.535   1.842   7.438 -0.3080  0.6282 -0.1983
   90CHL1    H8 9081   0.504   1.948   7.439  3.8627  2.0374  0.3484
   90CHL1   C14 9082   0.509   1.776   7.575 -0.0693  0.2779  0.7585
   90CHL1   H14 9083   0.537   1.670   7.557  1.1780  0.8106 -0.6875
   90CHL1   C15 9084   0.361   1.769   7.616  0.2132 -0.0327  0.0464
   90CHL1  H15A 9085   0.334   1.875   7.602 -0.6146  0.1396  2.4055
   90CHL1  H15B 9086   0.304   1.692   7.560 -2.0556  0.1116  1.9907
   90CHL1   C16 9087   0.382   1.729   7.763 -0.0337  0.6417 -0.0867
   90CHL1  H16A 9088   0.329   1.789   7.840  1.3052 -1.2394  2.4817
   90CHL1  H16B 9089   0.360   1.620   7.772  1.4183  0.2890 -0.6273
   90CHL1   C17 9090   0.535   1.744   7.800  0.9155 -0.5018  1.2923
   90CHL1   H17 9091   0.578   1.642   7.789 -0.2217 -1.1097  2.2557
   90CHL1   C13 9092   0.589   1.834   7.691  0.5895 -0.4384 -0.5689
   90CHL1   C18 9093   0.561   1.980   7.720  0.1248 -0.6724  0.0511
   90CHL1  H18A 9094   0.456   1.998   7.751  0.6962  0.9699  1.2123
   90CHL1  H18B 9095   0.622   2.009   7.808  0.6623 -0.7550 -0.2917
   90CHL1  H18C 9096   0.592   2.060   7.649 -0.2830  1.6046  2.2884
   90CHL1   C12 9097   0.735   1.810   7.653 -0.5367  0.4627 -0.0593
   90CHL1  H12A 9098   0.803   1.853   7.730 -2.5694  1.0575  1.4703
   90CHL1  H12B 9099   0.762   1.703   7.659  1.2870  0.8586 -0.4091
   90CHL1   C11 9100   0.779   1.869   7.520  0.2304 -0.2405  0.4238
   90CHL1  H11A 9101   0.778   1.980   7.524  0.2497 -0.0375 -2.6978
   90CHL1  H11B 9102   0.883   1.835   7.499 -0.0836 -0.2674 -1.2188
   90CHL1    C9 9103   0.685   1.825   7.402  0.7237 -0.0087 -0.5921
   90CHL1    H9 9104   0.700   1.715   7.389 -0.5624 -0.1432 -1.0766
   90CHL1   C10 9105   0.716   1.895   7.265 -0.1736  1.3139  0.6260
   90CHL1   C19 9106   0.732   2.042   7.287  0.0847 -0.5756 -0.6882
   90CHL1  H19A 9107   0.829   2.067   7.335  0.5378  2.1322 -2.7583
   90CHL1  H19B 9108   0.738   2.096   7.190  0.2109 -2.1005 -1.5615
   90CHL1  H19C 9109   0.647   2.083   7.344 -0.6096  1.6433 -3.1194
   90CHL1    C1 9110   0.851   1.832   7.219 -0.0361 -0.3477 -0.3678
   90CHL1   H1A 9111   0.934   1.875   7.278  0.1577 -0.8728 -0.2492
   90CHL1   H1B 9112   0.847   1.721   7.234 -2.5065 -0.5893 -2.1808
   90CHL1    C2 9113   0.889   1.860   7.078  0.2865  0.1454  0.9998
   90CHL1   H2A 9114   0.974   1.795   7.050 -0.3493  0.4585 -2.0604
   90CHL1   H2B 9115   0.920   1.965   7.060  0.7225 -0.0531  0.5761
   90CHL1   C20 9116   0.565   1.772   7.947  0.3639 -0.3412  0.4813
   90CHL1   H20 9117   0.530   1.877   7.958 -1.6129 -0.6422 -2.0527
   90CHL1   C21 9118   0.718   1.757   7.968 -0.3669 -0.2229 -0.3365
   90CHL1  H21A 9119   0.756   1.664   7.922 -0.0379 -0.0463 -0.4230
   90CHL1  H21B 9120   0.725   1.771   8.078 -4.4419 -0.6074  0.1390
   90CHL1  H21C 9121   0.769   1.846   7.925 -1.3902  1.3557  1.5327
   90CHL1   C22 9122   0.479   1.701   8.052  0.5342 -0.3731 -0.1889
   90CHL1  H22A 9123   0.504   1.751   8.149 -3.4834 -0.9030  1.2877
   90CHL1  H22B 9124   0.374   1.733   8.035  1.6259  3.5675 -0.5425
   90CHL1   C23 9125   0.509   1.553   8.063  0.3955 -0.2703 -1.0600
   90CHL1  H23A 9126   0.488   1.509   7.963  3.4484 -0.5661 -1.6864
   90CHL1  H23B 9127   0.613   1.517   8.077  0.1656 -0.4585  0.2357
   90CHL1   C24 9128   0.430   1.485   8.181  0.6519  0.9171  0.2962
   90CHL1  H24A 9129   0.464   1.547   8.267 -0.5752  3.1072 -0.7149
   90CHL1  H24B 9130   0.320   1.493   8.167  0.8785  3.6249 -0.5422
   90CHL1   C25 9131   0.476   1.333   8.208 -0.2268 -0.6267 -0.5269
   90CHL1   H25 9132   0.577   1.338   8.253 -0.1951 -0.2869 -0.6334
   90CHL1   C26 9133   0.398   1.267   8.314 -0.0213 -0.5823 -0.1817
   90CHL1  H26A 9134   0.408   1.325   8.407 -0.9786  0.2496 -0.5734
   90CHL1  H26B 9135   0.292   1.265   8.279 -0.4446  2.8260  0.5633
   90CHL1  H26C 9136   0.434   1.163   8.333  2.5586  0.1644 -0.6716
   90CHL1   C27 9137   0.462   1.252   8.080  0.7202  0.2938 -0.0140
   90CHL1  H27A 9138   0.479   1.143   8.095 -3.4224 -0.7884 -1.7239
   90CHL1  H27B 9139   0.363   1.270   8.033  1.0737  0.4381 -0.7144
   90CHL1  H27C 9140   0.535   1.292   8.006  1.7136  1.3637  1.4858
   91CHL1    C3 9141   0.940   2.588   7.263  0.1061  0.1065  0.4813
   91CHL1    H3 9142   0.958   2.694   7.291 -1.6710  1.0486 -1.6465
   91CHL1    O3 9143   0.950   2.571   7.124  0.5068 -0.5396  0.6219
   91CHL1   H3' 9144   1.041   2.545   7.106  0.1927 -1.6428  0.5772
   91CHL1    C4 9145   1.035   2.491   7.327  0.0774 -0.7250  1.0098
   91CHL1   H4A 9146   1.015   2.385   7.301  1.5114 -1.6283  3.2650
   91CHL1   H4B 9147   1.134   2.525   7.289 -1.1067  0.5145 -1.1724
   91CHL1    C5 9148   1.024   2.489   7.475 -0.3223  0.1811 -0.1048
   91CHL1    C6 9149   1.129   2.514   7.555 -0.2112  0.3442  0.4147
   91CHL1    H6 9150   1.228   2.529   7.510  0.0061  0.8094  1.0295
   91CHL1    C7 9151   1.124   2.516   7.706 -0.1786  0.4694  0.1977
   91CHL1   H7A 9152   1.206   2.449   7.740 -0.4189 -0.0153 -0.1684
   91CHL1   H7B 9153   1.138   2.622   7.737  0.7577 -0.2155  2.3193
   91CHL1    C8 9154   0.987   2.461   7.756  0.5855  0.0496 -0.1353
   91CHL1    H8 9155   0.997   2.351   7.756  0.9093  0.0790 -0.1775
   91CHL1   C14 9156   0.962   2.499   7.902  0.3380 -0.1078 -0.3425
   91CHL1   H14 9157   0.958   2.610   7.900 -1.8935 -0.1338 -1.2547
   91CHL1   C15 9158   1.055   2.454   8.013 -0.5396 -0.0455  0.7853
   91CHL1  H15A 9159   1.070   2.345   7.994 -2.7341 -0.5372  1.5457
   91CHL1  H15B 9160   1.149   2.511   8.007 -0.1226 -0.8391 -1.1736
   91CHL1   C16 9161   0.983   2.483   8.142  0.0458 -0.1890  0.3729
   91CHL1  H16A 9162   0.974   2.385   8.193  0.4419  1.0902  3.0536
   91CHL1  H16B 9163   1.025   2.563   8.207 -2.3009  1.0925  0.4210
   91CHL1   C17 9164   0.833   2.511   8.101  0.5747  0.1366  0.1651
   91CHL1   H17 9165   0.817   2.621   8.094 -0.1466  0.1266  1.3827
   91CHL1   C13 9166   0.824   2.457   7.962 -0.4554 -0.3858  0.2877
   91CHL1   C18 9167   0.804   2.304   7.957  0.4966 -0.3491 -0.6163
   91CHL1  H18A 9168   0.829   2.259   7.859  1.6099 -3.7431  1.0360
   91CHL1  H18B 9169   0.862   2.247   8.034 -0.5773 -1.4980 -0.6252
   91CHL1  H18C 9170   0.701   2.276   7.989  0.4597  0.7782  0.3119
   91CHL1   C12 9171   0.724   2.519   7.867 -0.0123 -1.1266  0.9761
   91CHL1  H12A 9172   0.619   2.497   7.897  0.0024 -0.6215  1.4089
   91CHL1  H12B 9173   0.736   2.630   7.861  0.9818 -1.2350  0.7907
   91CHL1   C11 9174   0.732   2.478   7.721  0.0942 -0.1725 -0.4991
   91CHL1  H11A 9175   0.707   2.370   7.709  0.2406 -0.1270 -1.2288
   91CHL1  H11B 9176   0.657   2.534   7.661 -0.2362  0.2031  0.2587
   91CHL1    C9 9177   0.872   2.503   7.662  0.0853  0.1133  0.0568
   91CHL1    H9 9178   0.893   2.612   7.660  1.7346 -0.1890 -0.9023
   91CHL1   C10 9179   0.879   2.465   7.511 -0.4887 -1.0218 -0.5755
   91CHL1   C19 9180   0.838   2.322   7.496 -0.2491  0.1807 -0.6528
   91CHL1  H19A 9181   0.730   2.308   7.520  0.3616 -0.6750  1.8806
   91CHL1  H19B 9182   0.865   2.277   7.398  1.3238 -0.4708  0.0499
   91CHL1  H19C 9183   0.889   2.265   7.576 -1.8340 -1.0904 -0.5120
   91CHL1    C1 9184   0.773   2.558   7.442 -0.1830  0.1598 -0.2727
   91CHL1   H1A 9185   0.663   2.546   7.454 -0.6112  0.6275 -2.9273
   91CHL1   H1B 9186   0.804   2.659   7.475  2.1751 -0.2570 -0.9942
   91CHL1    C2 9187   0.793   2.556   7.290 -0.2808 -0.0569 -0.0026
   91CHL1   H2A 9188   0.733   2.626   7.227 -0.0736  0.5528  0.4585
   91CHL1   H2B 9189   0.756   2.458   7.254  2.3067 -0.7919 -0.8430
   91CHL1   C20 9190   0.733   2.456   8.207  0.3887 -0.1869 -0.1547
   91CHL1   H20 9191   0.747   2.346   8.208 -4.3050 -1.0263 -0.3336
   91CHL1   C21 9192   0.586   2.480   8.156  0.4547  0.1667  0.0673
   91CHL1  H21A 9193   0.569   2.580   8.111 -1.4299 -0.2211 -0.1902
   91CHL1  H21B 9194   0.512   2.461   8.237  0.8711  0.9469  0.6455
   91CHL1  H21C 9195   0.567   2.409   8.073 -0.9145  1.9486 -1.2106
   91CHL1   C22 9196   0.744   2.512   8.353 -0.5587  0.1198 -0.6415
   91CHL1  H22A 9197   0.680   2.449   8.419  0.3006  0.7737  0.8718
   91CHL1  H22B 9198   0.848   2.502   8.392 -0.5099 -0.6142 -0.9324
   91CHL1   C23 9199   0.712   2.658   8.372 -0.1303 -0.3830  0.1142
   91CHL1  H23A 9200   0.783   2.718   8.312 -0.2221 -0.5349 -0.1471
   91CHL1  H23B 9201   0.610   2.680   8.336  0.5622  0.8952 -1.1422
   91CHL1   C24 9202   0.705   2.694   8.522  0.3113 -0.6381 -0.3112
   91CHL1  H24A 9203   0.642   2.622   8.578  0.2929 -0.9346 -0.7125
   91CHL1  H24B 9204   0.811   2.683   8.555  1.2578  0.7712 -2.5969
   91CHL1   C25 9205   0.655   2.843   8.538 -0.2033  0.5634 -0.7925
   91CHL1   H25 9206   0.544   2.833   8.536 -0.3205  1.1262  1.0874
   91CHL1   C26 9207   0.688   2.907   8.675 -0.2294  0.4309  0.0285
   91CHL1  H26A 9208   0.698   2.829   8.754  0.8262  0.9822  0.4601
   91CHL1  H26B 9209   0.787   2.953   8.655 -1.0605  1.6491 -1.5274
   91CHL1  H26C 9210   0.615   2.980   8.714 -1.1219 -0.3209 -0.1746
   91CHL1   C27 9211   0.706   2.941   8.432  0.2463  0.5086 -0.2709
   91CHL1  H27A 9212   0.676   2.915   8.329 -2.1450 -0.3391  0.5799
   91CHL1  H27B 9213   0.663   3.039   8.463 -1.6074 -0.0783 -0.8997
   91CHL1  H27C 9214   0.817   2.945   8.430  0.3436  0.3549  1.8817
   92CHL1    C3 9215   2.475   4.356   6.824 -0.0984 -0.1751 -0.5608
   92CHL1    H3 9216   2.373   4.312   6.832 -0.7750  1.0261 -1.9825
   92CHL1    O3 9217   2.497   4.405   6.692 -0.5814 -0.3125 -0.1612
   92CHL1   H3' 9218   2.499   4.331   6.631 -2.7397 -0.9991  0.5375
   92CHL1    C4 9219   2.491   4.469   6.926 -0.5135 -0.6587  0.1793
   92CHL1   H4A 9220   2.590   4.514   6.904 -0.8531 -0.0912 -0.1894
   92CHL1   H4B 9221   2.418   4.546   6.895 -0.0601 -0.7679 -1.2270
   92CHL1    C5 9222   2.485   4.415   7.064  0.3592 -0.1399  0.0644
   92CHL1    C6 9223   2.399   4.456   7.163 -0.2653  0.0418 -0.3536
   92CHL1    H6 9224   2.329   4.534   7.130 -2.4064 -2.1373 -1.2889
   92CHL1    C7 9225   2.407   4.416   7.311  0.3151  0.4362  0.6174
   92CHL1   H7A 9226   2.386   4.499   7.382 -0.3188  0.2036  0.7061
   92CHL1   H7B 9227   2.324   4.346   7.334 -0.4430  0.8773 -0.6910
   92CHL1    C8 9228   2.537   4.333   7.350  0.9370 -0.5018  0.7540
   92CHL1    H8 9229   2.622   4.404   7.357 -0.4097  1.0138  3.2173
   92CHL1   C14 9230   2.519   4.268   7.481 -0.3065  0.4161 -0.4228
   92CHL1   H14 9231   2.427   4.207   7.474 -0.5609  0.9014 -1.6717
   92CHL1   C15 9232   2.484   4.362   7.598 -0.0398  0.2544  0.1931
   92CHL1  H15A 9233   2.552   4.448   7.618 -0.7979  0.8627  0.1845
   92CHL1  H15B 9234   2.378   4.395   7.590 -0.4699 -1.4476 -1.9547
   92CHL1   C16 9235   2.495   4.265   7.720  0.3444  0.8420 -0.6401
   92CHL1  H16A 9236   2.549   4.313   7.804 -0.2174  1.8434 -0.8287
   92CHL1  H16B 9237   2.400   4.244   7.774  0.5473  2.7087  0.5272
   92CHL1   C17 9238   2.577   4.136   7.673  0.1896  0.3977  0.0450
   92CHL1   H17 9239   2.504   4.056   7.649  1.6346 -1.4740  1.5676
   92CHL1   C13 9240   2.632   4.176   7.533  0.2492  0.1029  0.1344
   92CHL1   C18 9241   2.762   4.254   7.559 -0.7816  0.1823 -0.4987
   92CHL1  H18A 9242   2.795   4.301   7.463 -2.1911 -0.5396 -1.3742
   92CHL1  H18B 9243   2.742   4.335   7.633 -1.2844 -2.7981  2.8530
   92CHL1  H18C 9244   2.846   4.192   7.596 -0.4112  1.3444  0.7143
   92CHL1   C12 9245   2.654   4.071   7.423  0.6926  0.4751 -0.1161
   92CHL1  H12A 9246   2.729   3.993   7.445 -0.8405 -0.8336  0.6593
   92CHL1  H12B 9247   2.556   4.018   7.418  0.0724  1.3175  1.8367
   92CHL1   C11 9248   2.682   4.136   7.285  0.8995  0.0128  0.0935
   92CHL1  H11A 9249   2.785   4.178   7.286  0.3841  1.3906 -0.9450
   92CHL1  H11B 9250   2.678   4.044   7.223 -1.4398 -1.3195  2.0301
   92CHL1    C9 9251   2.579   4.238   7.238  0.5504 -0.1835  0.1753
   92CHL1    H9 9252   2.492   4.172   7.223  1.7283 -1.1756 -2.9403
   92CHL1   C10 9253   2.594   4.309   7.097 -0.0073 -0.9409  0.4411
   92CHL1   C19 9254   2.732   4.377   7.104 -0.2525 -0.2183  0.0692
   92CHL1  H19A 9255   2.752   4.437   7.195 -2.6669 -0.2510  0.6790
   92CHL1  H19B 9256   2.811   4.300   7.092 -0.9012 -0.6699 -1.6069
   92CHL1  H19C 9257   2.744   4.443   7.015 -1.3747 -0.0698  0.0063
   92CHL1    C1 9258   2.591   4.197   6.995  0.1281 -0.2465  0.3835
   92CHL1   H1A 9259   2.677   4.126   7.006  0.5090  0.1554  0.0357
   92CHL1   H1B 9260   2.491   4.153   7.011 -0.4841  1.6148  2.0953
   92CHL1    C2 9261   2.581   4.248   6.843 -0.3094 -0.2101  0.1351
   92CHL1   H2A 9262   2.553   4.156   6.786 -0.5567  0.3171 -0.6130
   92CHL1   H2B 9263   2.676   4.283   6.796 -1.7667  0.9709 -2.0878
   92CHL1   C20 9264   2.673   4.069   7.774 -0.8261  0.2533  0.2953
   92CHL1   H20 9265   2.755   4.139   7.801  0.7427 -1.3064 -0.2939
   92CHL1   C21 9266   2.732   3.939   7.718 -0.5392 -0.7837  0.9663
   92CHL1  H21A 9267   2.788   3.884   7.796  0.5537 -0.3358  0.5096
   92CHL1  H21B 9268   2.804   3.972   7.641 -0.2736  0.2574  1.6285
   92CHL1  H21C 9269   2.650   3.873   7.682 -0.5794  0.1766 -0.8366
   92CHL1   C22 9270   2.594   4.043   7.898 -0.0296 -0.2454 -0.0200
   92CHL1  H22A 9271   2.524   4.122   7.932 -1.6484 -1.8089  0.4485
   92CHL1  H22B 9272   2.526   3.957   7.880  0.3300 -1.0149  2.0157
   92CHL1   C23 9273   2.675   4.015   8.027 -0.4875 -0.3720  0.4978
   92CHL1  H23A 9274   2.743   3.932   8.001  2.6258  1.8824  0.8945
   92CHL1  H23B 9275   2.740   4.104   8.042  0.4903 -1.2710  1.7881
   92CHL1   C24 9276   2.579   3.983   8.144 -0.1952  0.5267  0.5159
   92CHL1  H24A 9277   2.497   4.058   8.149 -1.5706 -0.9974  2.0490
   92CHL1  H24B 9278   2.517   3.895   8.116 -0.5038  0.9722 -0.2135
   92CHL1   C25 9279   2.640   3.965   8.288 -0.9516 -0.0968  0.6930
   92CHL1   H25 9280   2.572   3.909   8.356 -2.5751  0.0969 -0.7186
   92CHL1   C26 9281   2.764   3.874   8.284 -0.3374  0.4327 -0.3891
   92CHL1  H26A 9282   2.731   3.784   8.227 -0.6270 -0.2243  0.7896
   92CHL1  H26B 9283   2.849   3.927   8.234 -0.0777 -0.9594 -1.4900
   92CHL1  H26C 9284   2.796   3.836   8.383  2.0254  0.6652 -0.9830
   92CHL1   C27 9285   2.679   4.103   8.335 -0.5631 -0.0004  0.5401
   92CHL1  H27A 9286   2.748   4.156   8.266  0.6478 -1.6001  0.4750
   92CHL1  H27B 9287   2.586   4.164   8.344 -0.8187 -0.6988  4.1507
   92CHL1  H27C 9288   2.718   4.102   8.439 -0.5755 -0.7626  0.5455
   93CHL1    C3 9289   2.993   1.481   7.073 -0.0474  0.3371 -0.0970
   93CHL1    H3 9290   3.094   1.438   7.090 -0.7951 -1.6098 -0.2613
   93CHL1    O3 9291   2.962   1.485   6.939 -0.5922  0.2193  0.4938
   93CHL1   H3' 9292   2.867   1.500   6.943 -0.5904  0.1639  0.7542
   93CHL1    C4 9293   2.882   1.383   7.141 -0.1473  0.1323  0.4676
   93CHL1   H4A 9294   2.779   1.410   7.111 -0.1526 -0.6598 -0.2478
   93CHL1   H4B 9295   2.901   1.283   7.096  0.7665  0.9317 -1.0248
   93CHL1    C5 9296   2.902   1.385   7.295 -0.4969  0.2688  0.1569
   93CHL1    C6 9297   2.921   1.269   7.365 -0.1243 -0.0147  0.4261
   93CHL1    H6 9298   2.925   1.175   7.308  3.0813  0.2376  0.0441
   93CHL1    C7 9299   2.939   1.253   7.512  0.3889 -0.2468 -0.5393
   93CHL1   H7A 9300   2.869   1.175   7.547  1.0135 -0.0174  1.3589
   93CHL1   H7B 9301   3.048   1.243   7.533  1.3237 -0.4449 -4.6444
   93CHL1    C8 9302   2.886   1.385   7.580 -0.0968 -0.7222  0.4710
   93CHL1    H8 9303   2.776   1.382   7.568 -0.5341  2.7190  2.3868
   93CHL1   C14 9304   2.931   1.390   7.725  0.2794 -0.2834 -1.1814
   93CHL1   H14 9305   3.042   1.393   7.731  0.1732  1.8665  1.7140
   93CHL1   C15 9306   2.900   1.265   7.808  0.2965 -0.3211  0.0339
   93CHL1  H15A 9307   2.800   1.220   7.792 -0.7643  1.4888  1.2413
   93CHL1  H15B 9308   2.965   1.174   7.801  0.2340 -0.5495  1.9697
   93CHL1   C16 9309   2.915   1.308   7.948 -0.4907  0.2859 -0.0441
   93CHL1  H16A 9310   2.831   1.272   8.011 -1.1773 -1.0993 -1.6483
   93CHL1  H16B 9311   3.012   1.269   7.984 -1.1372 -0.6811  0.7123
   93CHL1   C17 9312   2.927   1.465   7.943 -0.0056  0.0116  0.2410
   93CHL1   H17 9313   3.035   1.492   7.941  0.0094  0.0813  1.3644
   93CHL1   C13 9314   2.882   1.508   7.802 -0.3872  0.1507 -0.3618
   93CHL1   C18 9315   2.719   1.510   7.800  0.1647  0.1669  0.0221
   93CHL1  H18A 9316   2.681   1.408   7.823 -0.0977 -0.1429 -1.6476
   93CHL1  H18B 9317   2.681   1.590   7.867 -0.1474  1.3501 -1.5077
   93CHL1  H18C 9318   2.695   1.541   7.696  1.4174 -0.0263 -0.3417
   93CHL1   C12 9319   2.941   1.634   7.742 -0.4558 -0.3906 -0.3922
   93CHL1  H12A 9320   2.899   1.728   7.784  0.8919  0.2492 -0.4223
   93CHL1  H12B 9321   3.050   1.632   7.768 -0.7536  0.4120  1.0492
   93CHL1   C11 9322   2.911   1.644   7.591  0.2126 -0.5157 -0.5926
   93CHL1  H11A 9323   2.803   1.667   7.592  0.1482 -0.4274  2.5762
   93CHL1  H11B 9324   2.961   1.730   7.543  1.0796 -0.3923  0.4632
   93CHL1    C9 9325   2.933   1.511   7.511 -0.3510 -0.3258 -0.0400
   93CHL1    H9 9326   3.044   1.501   7.508 -0.1772  0.8832  1.2950
   93CHL1   C10 9327   2.896   1.520   7.357 -0.2363 -0.5011 -0.4807
   93CHL1   C19 9328   2.749   1.581   7.336  0.4331 -0.4624 -0.5022
   93CHL1  H19A 9329   2.758   1.688   7.363  1.5093 -0.3173 -1.3819
   93CHL1  H19B 9330   2.708   1.556   7.236 -1.8908  0.3225  0.1839
   93CHL1  H19C 9331   2.677   1.524   7.400  0.1853 -1.6078 -1.7319
   93CHL1    C1 9332   2.999   1.606   7.282 -0.4044  0.7541  0.1585
   93CHL1   H1A 9333   2.986   1.711   7.315 -2.7379  0.9017 -1.0185
   93CHL1   H1B 9334   3.099   1.567   7.310 -1.5674 -1.2499  1.8828
   93CHL1    C2 9335   2.982   1.614   7.131 -0.2613  0.8264  0.1579
   93CHL1   H2A 9336   3.061   1.681   7.090 -0.6058  0.7339 -0.6681
   93CHL1   H2B 9337   2.881   1.657   7.118 -0.6353  0.1332  0.7158
   93CHL1   C20 9338   2.871   1.543   8.065  0.0304  0.6060 -0.1090
   93CHL1   H20 9339   2.764   1.524   8.088  0.4465  1.9393  3.6362
   93CHL1   C21 9340   2.861   1.696   8.054 -0.0850 -0.5157  0.1418
   93CHL1  H21A 9341   2.962   1.739   8.038  0.1441 -0.9630  0.3808
   93CHL1  H21B 9342   2.825   1.753   8.143  1.3276 -1.9613  1.7050
   93CHL1  H21C 9343   2.796   1.734   7.972  2.0673  0.7912 -1.0609
   93CHL1   C22 9344   2.963   1.512   8.196 -0.1364  0.0292  0.6436
   93CHL1  H22A 9345   2.984   1.404   8.202 -2.9327 -0.8020 -2.0102
   93CHL1  H22B 9346   3.063   1.555   8.175  0.4615 -0.8553  1.6022
   93CHL1   C23 9347   2.896   1.562   8.327 -0.2387 -0.1099 -0.0883
   93CHL1  H23A 9348   2.873   1.669   8.312  0.7850  0.4597  1.9794
   93CHL1  H23B 9349   2.807   1.495   8.332 -1.0321  0.8856 -0.5346
   93CHL1   C24 9350   2.989   1.551   8.444  0.8226 -0.0383  0.4849
   93CHL1  H24A 9351   3.040   1.453   8.448  2.0685  0.5917  0.7419
   93CHL1  H24B 9352   3.061   1.636   8.445  0.3970  0.3343  0.2834
   93CHL1   C25 9353   2.902   1.563   8.576  0.1336 -0.3383  0.0237
   93CHL1   H25 9354   2.831   1.648   8.572 -0.9801 -1.1780  1.2784
   93CHL1   C26 9355   2.805   1.442   8.596  0.1387  0.2520 -0.8590
   93CHL1  H26A 9356   2.729   1.436   8.515  0.3501 -0.7808 -1.0000
   93CHL1  H26B 9357   2.860   1.345   8.598  1.7720  1.1635 -0.4382
   93CHL1  H26C 9358   2.746   1.467   8.687 -1.0890  3.6402 -2.4355
   93CHL1   C27 9359   2.993   1.586   8.701  0.4281 -0.0273 -0.2726
   93CHL1  H27A 9360   3.008   1.495   8.763 -1.9314  0.3144  0.8916
   93CHL1  H27B 9361   3.095   1.619   8.671  0.5139  0.5696  0.6281
   93CHL1  H27C 9362   2.946   1.661   8.768 -2.4732 -0.3085 -1.8418
   94CHL1    C3 9363   3.275   4.581   6.940  0.8342 -0.3781  0.9344
   94CHL1    H3 9364   3.330   4.485   6.947  0.7525 -0.4859  0.1198
   94CHL1    O3 9365   3.237   4.609   6.807 -0.0122  0.3452 -0.0613
   94CHL1   H3' 9366   3.162   4.668   6.816  0.9752  1.7199 -0.3433
   94CHL1    C4 9367   3.153   4.580   7.029  0.1484  0.1390  0.3150
   94CHL1   H4A 9368   3.100   4.677   7.030 -1.7545 -0.8464  1.6159
   94CHL1   H4B 9369   3.080   4.506   6.989  1.6128 -0.5247 -1.2814
   94CHL1    C5 9370   3.179   4.557   7.178 -0.4161 -0.4652 -0.4834
   94CHL1    C6 9371   3.128   4.454   7.248 -0.2997 -1.2790 -0.0821
   94CHL1    H6 9372   3.074   4.380   7.187 -0.5559 -0.3571 -0.9916
   94CHL1    C7 9373   3.152   4.443   7.398 -0.2469 -0.7209  0.0027
   94CHL1   H7A 9374   3.054   4.420   7.445 -0.6053 -1.7350 -1.1837
   94CHL1   H7B 9375   3.223   4.361   7.420  0.3094 -0.3595 -0.4207
   94CHL1    C8 9376   3.215   4.572   7.455 -0.2592 -0.9285  0.7093
   94CHL1    H8 9377   3.141   4.655   7.446  1.4393  0.7650  1.6116
   94CHL1   C14 9378   3.254   4.552   7.605  1.0737 -0.4178  0.7241
   94CHL1   H14 9379   3.324   4.466   7.603  3.4380  1.2798  3.2733
   94CHL1   C15 9380   3.153   4.503   7.700  0.0784 -0.2486 -0.6634
   94CHL1  H15A 9381   3.060   4.552   7.663 -0.1054  0.0479  0.1671
   94CHL1  H15B 9382   3.139   4.393   7.692  0.2497 -0.2078 -1.6586
   94CHL1   C16 9383   3.187   4.563   7.839 -0.3329 -0.8400  0.6060
   94CHL1  H16A 9384   3.115   4.642   7.867 -0.5547 -0.8626  0.1134
   94CHL1  H16B 9385   3.174   4.493   7.925  0.3424  0.2710  1.6432
   94CHL1   C17 9386   3.332   4.622   7.817 -0.3280 -0.5894  0.1496
   94CHL1   H17 9387   3.402   4.536   7.823  2.9237  1.3374 -4.3477
   94CHL1   C13 9388   3.330   4.668   7.671  0.7197 -0.6292  0.6822
   94CHL1   C18 9389   3.249   4.797   7.677  0.3025 -0.0656  0.2371
   94CHL1  H18A 9390   3.218   4.827   7.575 -0.1461  0.2398  0.4589
   94CHL1  H18B 9391   3.153   4.794   7.733  0.3186  1.9515  0.4622
   94CHL1  H18C 9392   3.309   4.881   7.719 -0.3200 -0.3006  1.6757
   94CHL1   C12 9393   3.463   4.683   7.587 -0.3339 -0.7626  0.1851
   94CHL1  H12A 9394   3.531   4.762   7.626  2.4470 -2.3194 -1.2541
   94CHL1  H12B 9395   3.517   4.587   7.594  0.7232 -0.2686 -0.8318
   94CHL1   C11 9396   3.440   4.713   7.444 -0.1078  0.5071  0.8307
   94CHL1  H11A 9397   3.402   4.816   7.430 -1.9246 -0.4290 -1.7718
   94CHL1  H11B 9398   3.540   4.709   7.396  0.6278 -0.9768  2.3779
   94CHL1    C9 9399   3.335   4.615   7.369 -0.9048 -0.5469 -0.7609
   94CHL1    H9 9400   3.395   4.523   7.356 -0.6584 -0.6717  1.0202
   94CHL1   C10 9401   3.287   4.653   7.230  0.4792 -0.3417  0.3006
   94CHL1   C19 9402   3.220   4.798   7.231 -0.9907 -0.1773 -0.3990
   94CHL1  H19A 9403   3.297   4.873   7.259  0.3860 -1.5511 -0.3314
   94CHL1  H19B 9404   3.180   4.830   7.133  0.4444 -0.4520 -1.0973
   94CHL1  H19C 9405   3.145   4.808   7.313  0.8239 -2.3336  1.6850
   94CHL1    C1 9406   3.411   4.661   7.132 -0.9970 -0.0066  0.9776
   94CHL1   H1A 9407   3.488   4.736   7.160 -0.6113 -0.3620  0.8863
   94CHL1   H1B 9408   3.465   4.564   7.127 -0.2017  0.4866 -2.0062
   94CHL1    C2 9409   3.365   4.693   6.987  0.9556  0.2578 -0.5392
   94CHL1   H2A 9410   3.457   4.690   6.924  1.7907  3.6455  0.3452
   94CHL1   H2B 9411   3.320   4.793   6.974  0.9248  0.4399  0.8753
   94CHL1   C20 9412   3.372   4.721   7.932 -0.1186 -0.0519  0.4021
   94CHL1   H20 9413   3.301   4.806   7.926 -1.3495 -1.0750 -0.1709
   94CHL1   C21 9414   3.524   4.752   7.905 -0.0385 -0.3580  0.3210
   94CHL1  H21A 9415   3.581   4.658   7.883 -2.8869 -2.1763  0.2157
   94CHL1  H21B 9416   3.573   4.810   7.985 -0.5299  0.0891  0.2970
   94CHL1  H21C 9417   3.532   4.825   7.822  4.6334  0.0514  0.8306
   94CHL1   C22 9418   3.365   4.654   8.069 -0.7808  0.6656 -0.5904
   94CHL1  H22A 9419   3.264   4.613   8.094 -0.3239 -0.1927 -0.1226
   94CHL1  H22B 9420   3.430   4.565   8.076  0.6274  1.7319  0.3670
   94CHL1   C23 9421   3.404   4.750   8.178  0.2451  0.5639 -0.6199
   94CHL1  H23A 9422   3.510   4.782   8.184  0.7638 -1.0558 -0.6325
   94CHL1  H23B 9423   3.347   4.842   8.151 -1.7200 -0.7007 -1.0003
   94CHL1   C24 9424   3.364   4.699   8.320 -0.5329 -0.2265 -0.1010
   94CHL1  H24A 9425   3.254   4.704   8.337 -0.6815  0.3942 -1.1967
   94CHL1  H24B 9426   3.394   4.593   8.330  0.6427 -0.0214 -1.2132
   94CHL1   C25 9427   3.427   4.778   8.442  0.3258  0.1145 -0.3136
   94CHL1   H25 9428   3.426   4.886   8.415 -1.6262 -0.1114 -1.2538
   94CHL1   C26 9429   3.352   4.766   8.571  0.2048  0.3092  0.2674
   94CHL1  H26A 9430   3.395   4.826   8.654 -1.8428  1.8232  0.3114
   94CHL1  H26B 9431   3.246   4.798   8.574 -0.7651 -2.5718  0.1884
   94CHL1  H26C 9432   3.362   4.662   8.610 -2.1768 -0.6781 -1.4945
   94CHL1   C27 9433   3.576   4.731   8.470  0.0214 -0.2472  0.5638
   94CHL1  H27A 9434   3.635   4.735   8.376 -0.8993  0.7651  0.0052
   94CHL1  H27B 9435   3.619   4.787   8.555 -1.6084 -0.3451  1.4871
   94CHL1  H27C 9436   3.563   4.628   8.511  0.3413 -0.1513  0.9092
   95CHL1    C3 9437   2.252   4.034   6.781  0.6460  0.5149  0.0324
   95CHL1    H3 9438   2.335   4.107   6.790  0.2078  1.3871 -2.2491
   95CHL1    O3 9439   2.227   4.015   6.641  0.6499  0.0113  0.0880
   95CHL1   H3' 9440   2.213   3.920   6.635 -1.0198  0.1658  1.0800
   95CHL1    C4 9441   2.265   3.892   6.839 -0.2533  0.0039 -0.3291
   95CHL1   H4A 9442   2.188   3.823   6.798 -0.2467  0.3667 -0.9688
   95CHL1   H4B 9443   2.364   3.854   6.805 -0.8974 -0.4759 -1.7810
   95CHL1    C5 9444   2.268   3.899   6.988 -0.0947  0.0088  0.1248
   95CHL1    C6 9445   2.376   3.850   7.062 -0.1600  0.8105  0.5130
   95CHL1    H6 9446   2.457   3.807   7.001 -2.0400 -0.9766 -0.8809
   95CHL1    C7 9447   2.381   3.854   7.214 -0.1532 -0.6748  0.0637
   95CHL1   H7A 9448   2.418   3.760   7.259  0.5744 -0.1315  0.6279
   95CHL1   H7B 9449   2.455   3.929   7.249 -1.1281  0.3187  0.0417
   95CHL1    C8 9450   2.239   3.882   7.277 -0.6424 -0.7837 -0.0170
   95CHL1    H8 9451   2.168   3.797   7.268 -0.6558 -0.7462 -0.2836
   95CHL1   C14 9452   2.268   3.922   7.422  0.0470 -0.0187 -0.5003
   95CHL1   H14 9453   2.334   4.011   7.420 -0.8694  0.6742 -0.7955
   95CHL1   C15 9454   2.333   3.820   7.515 -0.4222  0.8996  0.9116
   95CHL1  H15A 9455   2.296   3.717   7.496 -0.7616  0.9263  1.4042
   95CHL1  H15B 9456   2.443   3.819   7.500 -0.4368  0.9084  0.8042
   95CHL1   C16 9457   2.288   3.852   7.650 -0.6704 -0.5167 -0.5946
   95CHL1  H16A 9458   2.228   3.770   7.696 -1.1448  0.7946  1.2572
   95CHL1  H16B 9459   2.366   3.856   7.729  1.4100 -2.9036 -2.3733
   95CHL1   C17 9460   2.204   3.977   7.644 -0.2680  0.8618  0.0776
   95CHL1   H17 9461   2.272   4.065   7.649  1.8838 -0.6670 -0.6589
   95CHL1   C13 9462   2.145   3.974   7.501  0.6672  0.3152 -0.6278
   95CHL1   C18 9463   2.030   3.861   7.498 -0.1901  0.1282  0.1708
   95CHL1  H18A 9464   1.948   3.899   7.563  0.0619  1.2346 -0.1274
   95CHL1  H18B 9465   1.988   3.851   7.396  0.3271 -1.1709  0.0653
   95CHL1  H18C 9466   2.072   3.760   7.520 -1.1227 -0.6600 -1.5139
   95CHL1   C12 9467   2.109   4.110   7.428 -0.4491 -0.0908 -0.1216
   95CHL1  H12A 9468   2.021   4.156   7.479 -0.2948  0.8278 -0.6644
   95CHL1  H12B 9469   2.194   4.180   7.433  0.2881 -1.0194  1.0617
   95CHL1   C11 9470   2.076   4.091   7.289  0.3717  0.4253 -0.2426
   95CHL1  H11A 9471   1.980   4.036   7.284  2.1190 -2.8230 -1.0267
   95CHL1  H11B 9472   2.063   4.192   7.244  0.5007  1.5483  2.0732
   95CHL1    C9 9473   2.181   4.004   7.208  0.3404 -0.0646 -0.3768
   95CHL1    H9 9474   2.267   4.074   7.203 -0.8479  1.3946 -1.3508
   95CHL1   C10 9475   2.153   3.980   7.054 -0.1905  0.0373 -0.8112
   95CHL1   C19 9476   2.015   3.909   7.045 -0.0369 -0.5247  0.6813
   95CHL1  H19A 9477   2.005   3.815   7.103  1.0575 -0.5994  0.7703
   95CHL1  H19B 9478   1.936   3.976   7.086  3.0389  2.1698  2.6343
   95CHL1  H19C 9479   1.981   3.887   6.941  0.9940 -2.1271  0.6472
   95CHL1    C1 9480   2.127   4.115   6.982  0.3256  0.0955  0.6037
   95CHL1   H1A 9481   2.026   4.151   7.012  0.8825 -0.0236  2.8554
   95CHL1   H1B 9482   2.192   4.200   7.015 -2.2664  1.8931  1.4461
   95CHL1    C2 9483   2.121   4.099   6.833  0.1587 -0.2987 -0.3224
   95CHL1   H2A 9484   2.107   4.199   6.786  0.0325  0.7095  1.7544
   95CHL1   H2B 9485   2.028   4.040   6.816 -1.0377  0.7754  2.0246
   95CHL1   C20 9486   2.114   3.988   7.763  0.2661 -0.1310 -0.5409
   95CHL1   H20 9487   2.041   3.904   7.767  1.4736 -1.2011 -0.2305
   95CHL1   C21 9488   2.036   4.116   7.746  0.7458 -0.2088  0.2631
   95CHL1  H21A 9489   2.090   4.208   7.713  0.9852 -0.6742 -0.6629
   95CHL1  H21B 9490   1.989   4.131   7.846  2.8112  3.2774  0.8913
   95CHL1  H21C 9491   1.958   4.109   7.667  0.1457  1.9461  0.5692
   95CHL1   C22 9492   2.187   3.991   7.900 -0.5731 -0.4901 -1.3575
   95CHL1  H22A 9493   2.234   3.896   7.935  0.3767  1.7270  4.6167
   95CHL1  H22B 9494   2.283   4.046   7.883  0.6635 -1.8349  0.7624
   95CHL1   C23 9495   2.116   4.038   8.031  0.1283 -0.7071  0.8100
   95CHL1  H23A 9496   2.144   4.144   8.047 -2.8156  0.3019 -0.0888
   95CHL1  H23B 9497   2.005   4.035   8.030  0.1095 -0.2775  1.2495
   95CHL1   C24 9498   2.168   3.967   8.151 -0.4527  0.3947 -0.1399
   95CHL1  H24A 9499   2.110   3.872   8.157  1.9549 -1.1363  0.0853
   95CHL1  H24B 9500   2.277   3.951   8.143 -0.5088  0.0269 -0.2097
   95CHL1   C25 9501   2.148   4.037   8.291 -0.2053  0.2438  0.5702
   95CHL1   H25 9502   2.192   4.139   8.282  0.8426 -0.1652  0.8291
   95CHL1   C26 9503   1.996   4.060   8.322 -0.2325  0.1913 -0.2691
   95CHL1  H26A 9504   1.940   4.117   8.246 -0.1801 -0.9516 -1.1982
   95CHL1  H26B 9505   1.945   3.961   8.326 -1.5086  0.8435  0.0912
   95CHL1  H26C 9506   1.977   4.110   8.419 -0.5746  1.2912 -0.8956
   95CHL1   C27 9507   2.212   3.967   8.403  0.0009  0.3102 -0.3229
   95CHL1  H27A 9508   2.193   4.015   8.502  0.9183  0.1401 -0.0502
   95CHL1  H27B 9509   2.168   3.866   8.413  2.5575 -0.9424 -1.0159
   95CHL1  H27C 9510   2.319   3.956   8.376 -0.5335 -1.2846 -1.9637
   96CHL1    C3 9511   4.129   3.922   6.802  0.1949  0.1704  0.1245
   96CHL1    H3 9512   4.228   3.963   6.833 -0.9607  2.1022  1.4554
   96CHL1    O3 9513   4.120   3.926   6.661 -0.1985 -0.1462 -0.1732
   96CHL1   H3' 9514   4.208   3.903   6.632  0.7216  2.9043 -0.0947
   96CHL1    C4 9515   4.126   3.778   6.855  0.1619  0.7044  0.3326
   96CHL1   H4A 9516   4.030   3.730   6.825 -0.6088  1.2221  1.8784
   96CHL1   H4B 9517   4.206   3.718   6.807  0.6340  0.5309  1.3072
   96CHL1    C5 9518   4.129   3.779   7.007 -0.4836 -0.7470  0.1287
   96CHL1    C6 9519   4.230   3.714   7.067  0.0853  0.2789  0.3017
   96CHL1    H6 9520   4.301   3.661   7.002 -0.5563  0.8272 -0.8806
   96CHL1    C7 9521   4.251   3.697   7.211 -0.3237  0.4662  0.3988
   96CHL1   H7A 9522   4.258   3.588   7.232 -1.9808 -0.0873 -1.5991
   96CHL1   H7B 9523   4.346   3.746   7.240 -0.1490  1.8149 -2.1754
   96CHL1    C8 9524   4.123   3.745   7.293  0.0852 -0.7839  0.6928
   96CHL1    H8 9525   4.050   3.661   7.286  0.0944 -0.7320 -0.0849
   96CHL1   C14 9526   4.158   3.760   7.433  0.1624 -0.0503  0.2116
   96CHL1   H14 9527   4.231   3.844   7.437  0.4952 -0.2814 -0.6793
   96CHL1   C15 9528   4.233   3.646   7.503 -0.3252  0.1966  0.1763
   96CHL1  H15A 9529   4.186   3.552   7.468 -2.4370  1.3135 -0.1685
   96CHL1  H15B 9530   4.341   3.641   7.478 -0.7933 -2.1378 -1.7750
   96CHL1   C16 9531   4.207   3.671   7.657 -0.3750 -1.0455  0.0248
   96CHL1  H16A 9532   4.160   3.579   7.696 -2.4898  0.6373  1.7180
   96CHL1  H16B 9533   4.310   3.681   7.695 -0.3270 -0.4650 -0.2422
   96CHL1   C17 9534   4.116   3.797   7.657  0.2581  0.0494  0.6896
   96CHL1   H17 9535   4.187   3.882   7.651  0.0764  0.1975  0.6295
   96CHL1   C13 9536   4.040   3.795   7.521 -0.1700  0.3031  0.2875
   96CHL1   C18 9537   3.938   3.687   7.533  0.0700 -0.3630  0.2114
   96CHL1  H18A 9538   3.893   3.662   7.435  1.8526 -3.1556  0.0021
   96CHL1  H18B 9539   3.981   3.589   7.562  0.1971 -0.4898 -0.4083
   96CHL1  H18C 9540   3.846   3.722   7.585 -0.1476  0.3207 -0.6035
   96CHL1   C12 9541   3.989   3.934   7.469 -0.2845 -0.0381  0.5639
   96CHL1  H12A 9542   3.899   3.967   7.526 -0.3900  2.5993 -0.9732
   96CHL1  H12B 9543   4.070   4.008   7.486  0.0047 -0.1451 -0.3091
   96CHL1   C11 9544   3.941   3.931   7.325  0.4207  0.6857  0.2531
   96CHL1  H11A 9545   3.858   3.857   7.321 -0.7390  1.7879  2.3504
   96CHL1  H11B 9546   3.924   4.027   7.273  3.0730  1.5481  0.7982
   96CHL1    C9 9547   4.062   3.874   7.242  0.2620 -0.9692  0.7259
   96CHL1    H9 9548   4.132   3.959   7.256 -0.9583  0.0184  0.9292
   96CHL1   C10 9549   4.029   3.862   7.088  0.2969  0.5431  0.2622
   96CHL1   C19 9550   3.889   3.800   7.068 -0.2397 -1.0302 -0.2032
   96CHL1  H19A 9551   3.811   3.863   7.116 -0.7556 -1.1037 -0.9271
   96CHL1  H19B 9552   3.863   3.798   6.960 -1.3835  1.6075 -0.0571
   96CHL1  H19C 9553   3.898   3.697   7.110 -0.3482 -2.4292 -3.3343
   96CHL1    C1 9554   4.039   4.010   7.026 -0.3635  0.1384  0.6768
   96CHL1   H1A 9555   3.948   4.062   7.063  0.0765  0.1133  1.8323
   96CHL1   H1B 9556   4.131   4.062   7.061  0.4459 -1.0470  0.3494
   96CHL1    C2 9557   4.028   4.010   6.870  0.2589 -0.2456  0.1193
   96CHL1   H2A 9558   4.036   4.114   6.833  1.2453 -0.2922  0.1688
   96CHL1   H2B 9559   3.929   3.971   6.839 -0.3986  1.6248 -0.2284
   96CHL1   C20 9560   4.030   3.821   7.775  0.5738 -0.5975  0.0065
   96CHL1   H20 9561   3.949   3.888   7.738  0.6898 -1.2472 -1.5071
   96CHL1   C21 9562   4.120   3.914   7.865  0.6065 -0.1241 -0.3528
   96CHL1  H21A 9563   4.080   3.933   7.967  1.4630  1.7637 -0.3215
   96CHL1  H21B 9564   4.128   4.011   7.812 -0.7654  0.2818  0.1342
   96CHL1  H21C 9565   4.222   3.870   7.877  1.5337  2.0709  0.2398
   96CHL1   C22 9566   3.985   3.690   7.846  1.0577 -0.5820 -0.9934
   96CHL1  H22A 9567   3.932   3.608   7.792  2.1775 -2.2267  0.2997
   96CHL1  H22B 9568   4.077   3.638   7.882 -0.3180 -1.7131  1.1289
   96CHL1   C23 9569   3.898   3.727   7.971 -0.0073 -0.0742 -0.0400
   96CHL1  H23A 9570   3.931   3.812   8.034 -1.0197 -0.9132  1.7006
   96CHL1  H23B 9571   3.794   3.743   7.934 -0.1125 -0.8558 -0.0883
   96CHL1   C24 9572   3.887   3.602   8.067  0.3527 -1.3086  0.5048
   96CHL1  H24A 9573   3.814   3.530   8.025 -0.5564 -1.4929  2.3018
   96CHL1  H24B 9574   3.990   3.560   8.067  2.1630  2.6568  0.0496
   96CHL1   C25 9575   3.845   3.648   8.217  0.1992  0.0563 -0.4652
   96CHL1   H25 9576   3.793   3.746   8.212 -0.9198 -0.4666  0.4460
   96CHL1   C26 9577   3.743   3.550   8.273  0.5674 -0.6609 -0.2134
   96CHL1  H26A 9578   3.776   3.444   8.270  1.6628 -0.3530  0.4411
   96CHL1  H26B 9579   3.724   3.586   8.376  4.1830  2.9586 -0.5376
   96CHL1  H26C 9580   3.651   3.553   8.210  0.0567  0.6376  0.5518
   96CHL1   C27 9581   3.961   3.661   8.318 -0.4466  0.8080  0.5666
   96CHL1  H27A 9582   4.020   3.567   8.314 -0.1984  0.9806 -2.8415
   96CHL1  H27B 9583   4.029   3.748   8.305 -0.2191  0.3874 -1.4438
   96CHL1  H27C 9584   3.928   3.670   8.423  0.4982 -1.7232  1.1519
   97OSM      N 9585   2.285   3.560  11.131 -0.1797 -0.0476  0.2696
   97OSM    C15 9586   2.401   3.643  11.120 -0.4812 -0.5286 -0.0833
   97OSM   H15A 9587   2.443   3.648  11.021 -1.2746  3.1322 -0.3639
   97OSM   H15B 9588   2.483   3.641  11.191  1.4447  0.7147 -2.1471
   97OSM   H15C 9589   2.360   3.742  11.134 -0.6545 -0.5287 -0.5873
   97OSM    C14 9590   2.331   3.422  11.165  1.2739  0.4781  0.7905
   97OSM   H14A 9591   2.239   3.365  11.168  0.5320  1.2904 -2.3994
   97OSM   H14B 9592   2.373   3.419  11.264 -0.5157  0.8820  1.5880
   97OSM   H14C 9593   2.403   3.389  11.091 -0.6588  0.4459 -1.1819
   97OSM    C13 9594   2.200   3.608  11.246 -0.2596  0.0395 -0.3737
   97OSM   H13A 9595   2.153   3.700  11.215  0.9610  0.0659 -2.3362
   97OSM   H13B 9596   2.260   3.634  11.332 -1.8161 -1.2701  1.1813
   97OSM   H13C 9597   2.121   3.538  11.270 -0.3969  0.1475 -0.5123
   97OSM    C12 9598   2.192   3.561  11.003  0.3353  0.4791  0.1112
   97OSM   H12A 9599   2.104   3.511  11.040 -0.4853  1.7535 -0.0620
   97OSM   H12B 9600   2.238   3.504  10.924 -1.0535  1.3622 -1.4024
   97OSM    C11 9601   2.169   3.706  10.944 -0.1091 -0.9567  0.2603
   97OSM   H11A 9602   2.121   3.684  10.847  2.6286 -2.4538 -0.8739
   97OSM   H11B 9603   2.260   3.761  10.911 -0.6261 -1.3062 -1.9020
   97OSM      P 9604   1.940   3.806  11.017  0.0728  0.2250 -0.4780
   97OSM    O13 9605   1.887   3.669  11.041 -0.0065 -0.3263 -0.0674
   97OSM    O14 9606   1.883   3.921  11.092  0.3843 -0.2748  0.1602
   97OSM    O11 9607   1.923   3.826  10.867 -0.5722 -0.8178  0.5794
   97OSM    O12 9608   2.098   3.806  11.026  0.0375  0.5311  0.3991
   97OSM    C1S 9609   1.930   3.954  10.802 -0.6105  0.2252  0.4413
   97OSM    H1S 9610   2.021   4.012  10.825  0.6316 -1.8737  1.0826
   97OSM    H1T 9611   1.840   4.018  10.815  0.5319  1.7150  1.1973
   97OSM     NF 9612   1.963   4.064  10.583 -0.6224 -0.0871 -0.1045
   97OSM    HNF 9613   1.901   4.121  10.528  2.8106  0.1945 -4.1933
   97OSM    C2S 9614   1.926   3.937  10.646  0.1698  0.0598 -0.1107
   97OSM    H2S 9615   2.006   3.862  10.624  2.0349  1.6190  1.0039
   97OSM    C3S 9616   1.788   3.879  10.600 -0.0575 -0.4874  0.2764
   97OSM    H3S 9617   1.716   3.960  10.623 -0.4085 -1.2665  2.1365
   97OSM     O3 9618   1.752   3.761  10.668 -0.4096  0.0100 -0.4866
   97OSM    HO3 9619   1.822   3.751  10.734 -2.1440  1.8613  1.7930
   97OSM    C4S 9620   1.784   3.855  10.448 -0.5548  0.3173 -0.2612
   97OSM    H4S 9621   1.820   3.943  10.392 -1.9348  0.3967 -1.0828
   97OSM    C5S 9622   1.747   3.746  10.386  0.1066 -0.9241 -1.1880
   97OSM    H5S 9623   1.713   3.661  10.447  0.1825  1.3827  2.2988
   97OSM    C6S 9624   1.742   3.733  10.237  0.5209  0.3361 -0.1998
   97OSM    H6S 9625   1.791   3.635  10.220  0.3837  0.1694  0.3388
   97OSM    H6T 9626   1.807   3.810  10.192 -0.9724  0.4218 -2.3824
   97OSM    C7S 9627   1.611   3.743  10.163  0.4701 -0.2309 -0.1271
   97OSM    H7S 9628   1.554   3.835  10.187  0.4439 -0.5212  0.9564
   97OSM    H7T 9629   1.551   3.659  10.204 -1.0187  0.3985 -0.9565
   97OSM    C8S 9630   1.608   3.732  10.010 -0.2262 -0.6710 -0.0733
   97OSM    H8S 9631   1.503   3.709   9.983 -1.0098  1.0793  1.2739
   97OSM    H8T 9632   1.659   3.638   9.979 -1.4380 -1.2367 -0.3832
   97OSM    C9S 9633   1.681   3.844   9.929 -0.6446  0.7734  0.7449
   97OSM    H9S 9634   1.787   3.856   9.960 -0.0647 -1.0849 -0.3541
   97OSM    H9T 9635   1.638   3.945   9.945  0.4889  1.2596  0.8336
   97OSM   C10S 9636   1.672   3.814   9.775  0.5414 -0.0696  1.0673
   97OSM   H10S 9637   1.566   3.812   9.741  1.0293  1.5909 -0.7709
   97OSM   H10T 9638   1.698   3.707   9.767  0.1336 -0.1380  0.5613
   97OSM   C11S 9639   1.763   3.892   9.685 -0.3248  0.4550 -0.2495
   97OSM   H11S 9640   1.871   3.891   9.711  0.8195 -1.2254 -4.2524
   97OSM   H11T 9641   1.735   4.000   9.694 -0.4621  0.3026  1.5656
   97OSM   C12S 9642   1.753   3.846   9.546 -0.2080 -0.1741  0.9870
   97OSM   H12S 9643   1.795   3.746   9.523 -2.0382 -0.7259 -0.1839
   97OSM   H12T 9644   1.801   3.922   9.480  1.2474 -0.2321  1.9463
   97OSM   C13S 9645   1.610   3.830   9.491  0.9332  0.7090  0.5986
   97OSM   H13S 9646   1.557   3.923   9.522 -0.9272  0.5488 -1.7720
   97OSM   H13T 9647   1.572   3.737   9.539  2.8407 -0.7704 -0.5942
   97OSM   C14S 9648   1.593   3.812   9.337 -0.2960 -0.3218  0.2661
   97OSM   H14S 9649   1.483   3.819   9.320 -0.6721 -4.1424  0.4219
   97OSM   H14T 9650   1.612   3.708   9.303 -0.8464  0.1905 -1.7743
   97OSM   C15S 9651   1.669   3.904   9.237  0.3647 -0.9031 -0.0333
   97OSM   H15S 9652   1.627   3.875   9.139 -1.2907 -0.3312  0.4806
   97OSM   H15T 9653   1.779   3.895   9.250  0.2536 -0.9771  0.8970
   97OSM   C16S 9654   1.625   4.053   9.256 -0.5684 -0.4206  0.3019
   97OSM   H16S 9655   1.687   4.087   9.341  1.9936 -1.6469 -0.9644
   97OSM   H16T 9656   1.518   4.066   9.283 -0.4566  2.2837 -0.2426
   97OSM   C17S 9657   1.653   4.140   9.135 -0.4953  0.1589  0.0587
   97OSM   H17S 9658   1.760   4.129   9.105 -0.9954 -1.2270 -1.3458
   97OSM   H17T 9659   1.627   4.246   9.156 -1.4602  0.0245 -0.4379
   97OSM   C18S 9660   1.572   4.110   9.011  0.0709  0.5793  0.0343
   97OSM   H18S 9661   1.463   4.105   9.026  0.2799  0.8959  1.8559
   97OSM   H18T 9662   1.620   4.016   8.976 -1.2040  0.3147 -1.0966
   97OSM   H18U 9663   1.580   4.189   8.933 -3.7920 -0.6174 -1.7788
   97OSM    C1F 9664   2.086   4.111  10.591 -0.3628 -0.6677  0.0836
   97OSM     OF 9665   2.179   4.044  10.636 -0.1122  0.7464  0.2312
   97OSM    C2F 9666   2.116   4.249  10.534  0.0397 -0.3809  0.6964
   97OSM    H2F 9667   2.137   4.318  10.618  3.1114 -1.3572  0.8382
   97OSM    H2G 9668   2.031   4.286  10.472  1.9762  2.7218 -0.3294
   97OSM    C3F 9669   2.236   4.234  10.447  0.3254  0.2231 -0.3863
   97OSM    H3F 9670   2.320   4.188  10.503 -0.1103 -1.1764 -0.8378
   97OSM    H3G 9671   2.264   4.338  10.419 -0.7417  0.1643 -1.7852
   97OSM    C4F 9672   2.207   4.156  10.316 -0.3222  0.2481  0.5472
   97OSM    H4F 9673   2.180   4.052  10.345  1.1028  0.2929  2.2230
   97OSM    H4G 9674   2.308   4.157  10.270 -1.4987  3.1249 -2.3321
   97OSM    C5F 9675   2.112   4.201  10.198  0.0938  0.7413  0.0932
   97OSM    H5F 9676   2.116   4.311  10.183  1.5234  0.4404 -2.1841
   97OSM    H5G 9677   2.009   4.185  10.238  0.4465 -0.3564  0.5833
   97OSM    C6F 9678   2.133   4.114  10.076 -0.9303  0.2190  0.1525
   97OSM    H6F 9679   2.141   4.009  10.109  1.4897  0.2996  0.0031
   97OSM    H6G 9680   2.229   4.147  10.031 -0.5682 -0.0256  0.7422
   97OSM    C7F 9681   2.027   4.127   9.963  0.1884  0.0987  0.2029
   97OSM    H7F 9682   2.008   4.231   9.928 -3.3422 -0.7682 -0.9256
   97OSM    H7G 9683   1.934   4.093  10.013  0.1400  0.4650  0.3667
   97OSM    C8F 9684   2.048   4.043   9.838  0.4124  0.6123  0.0734
   97OSM    H8F 9685   1.953   4.044   9.781  0.8973 -1.4943 -0.8728
   97OSM    H8G 9686   2.056   3.940   9.879 -1.3102  0.0468 -0.9245
   97OSM    C9F 9687   2.164   4.081   9.757  0.1147  0.2390  0.0903
   97OSM    H9F 9688   2.258   4.036   9.794  0.6452  2.8524  2.2215
   97OSM   C10F 9689   2.163   4.159   9.645  0.1715 -0.4104 -0.0838
   97OSM   H10F 9690   2.259   4.181   9.596 -1.3803 -0.8253 -3.6512
   97OSM   C11F 9691   2.041   4.215   9.584 -0.9521 -0.0091  0.8746
   97OSM   H11F 9692   2.014   4.311   9.634  0.9510 -0.3816  2.7001
   97OSM   H11G 9693   1.963   4.136   9.587  0.9876 -2.1082 -0.8056
   97OSM   C12F 9694   2.066   4.229   9.431 -0.0792  0.2813 -0.0428
   97OSM   H12F 9695   2.159   4.286   9.408  1.3781 -2.0745 -0.3622
   97OSM   H12G 9696   1.979   4.263   9.370 -1.9268  0.2854  2.4566
   97OSM   C13F 9697   2.110   4.085   9.365  0.4886  0.1748 -0.5491
   97OSM   H13F 9698   2.036   4.004   9.382  0.1254  0.4254 -0.9036
   97OSM   H13G 9699   2.202   4.040   9.407  1.3741 -0.2010 -2.7201
   97OSM   C14F 9700   2.127   4.079   9.213  0.1190  0.5555 -0.2659
   97OSM   H14F 9701   2.229   4.124   9.207 -0.1820  1.2623 -0.1228
   97OSM   H14G 9702   2.054   4.147   9.165 -0.9979  0.1479  0.8142
   97OSM   C15F 9703   2.110   3.936   9.143 -0.6316  0.0768 -0.0231
   97OSM   H15F 9704   2.004   3.904   9.147 -0.9715  1.0494 -0.6355
   97OSM   H15G 9705   2.165   3.855   9.194 -1.5077 -1.2324 -1.0857
   97OSM   C16F 9706   2.168   3.958   9.004  0.2762  0.0482 -0.8227
   97OSM   H16F 9707   2.279   3.962   9.002  0.2347  1.3960 -0.8582
   97OSM   H16G 9708   2.127   4.056   8.973 -1.7462 -0.6913 -0.6313
   97OSM   C17F 9709   2.124   3.854   8.900 -0.2386 -0.8722  0.4752
   97OSM   H17F 9710   2.014   3.860   8.900 -0.2862 -1.6412  0.1743
   97OSM   H17G 9711   2.139   3.752   8.942 -1.4575 -1.8104 -1.2342
   97OSM   C18F 9712   2.184   3.859   8.761 -0.1295  0.1661  0.3733
   97OSM   H18F 9713   2.135   3.780   8.700 -3.8553  2.5182  0.0460
   97OSM   H18G 9714   2.294   3.849   8.777 -0.1258 -0.1876  0.1415
   97OSM   H18H 9715   2.159   3.957   8.715 -0.3548  0.5347  1.2672
   98OSM      N 9716   1.674   4.569  11.161 -0.0669 -0.1558  0.5386
   98OSM    C15 9717   1.775   4.645  11.244 -0.3085  0.0267  0.4590
   98OSM   H15A 9718   1.784   4.746  11.206 -1.0455 -0.3454 -0.7863
   98OSM   H15B 9719   1.874   4.604  11.233  0.5339  2.0761 -0.0501
   98OSM   H15C 9720   1.744   4.655  11.347 -3.8162 -2.0273 -0.2090
   98OSM    C14 9721   1.667   4.428  11.203 -0.0276  0.4364  0.1793
   98OSM   H14A 9722   1.578   4.390  11.154  1.5284 -1.1555 -1.5863
   98OSM   H14B 9723   1.652   4.417  11.309  1.9885 -1.9041  0.3000
   98OSM   H14C 9724   1.760   4.379  11.178 -0.3444  0.0222 -0.2031
   98OSM    C13 9725   1.539   4.628  11.194  0.7624  0.0755 -0.5485
   98OSM   H13A 9726   1.510   4.617  11.297 -0.6118  0.5631 -0.8618
   98OSM   H13B 9727   1.471   4.576  11.129 -1.3115  0.1422  1.4320
   98OSM   H13C 9728   1.535   4.735  11.176 -0.0554  0.1308 -0.0707
   98OSM    C12 9729   1.703   4.583  11.015  0.2581  0.2816 -0.5278
   98OSM   H12A 9730   1.785   4.519  10.987 -0.4538 -1.6293  1.5268
   98OSM   H12B 9731   1.733   4.684  10.993 -0.8398  0.9447  0.8635
   98OSM    C11 9732   1.588   4.545  10.915 -0.1551 -0.1885  0.1684
   98OSM   H11A 9733   1.609   4.578  10.811 -1.0344 -1.2773 -0.3801
   98OSM   H11B 9734   1.493   4.596  10.942  0.7986  2.8456 -1.7066
   98OSM      P 9735   1.653   4.306  10.841 -0.1651 -0.0660 -0.0458
   98OSM    O13 9736   1.799   4.322  10.869  0.0132 -0.0337 -0.2098
   98OSM    O14 9737   1.611   4.169  10.869  0.1699 -0.6971 -0.5636
   98OSM    O11 9738   1.625   4.352  10.693  0.6217  0.2652  0.3491
   98OSM    O12 9739   1.570   4.407  10.927 -0.1362  0.4737  0.8157
   98OSM    C1S 9740   1.500   4.324  10.636  0.2822  1.3518  0.3479
   98OSM    H1S 9741   1.428   4.401  10.669 -2.1571  0.1583 -1.8859
   98OSM    H1T 9742   1.466   4.220  10.660  0.2958  1.1622 -0.4340
   98OSM     NF 9743   1.370   4.309  10.428  0.0293 -0.4851  0.1020
   98OSM    HNF 9744   1.342   4.215  10.409  0.6075 -0.4453 -0.9780
   98OSM    C2S 9745   1.505   4.332  10.478 -0.3588  0.3566 -0.1243
   98OSM    H2S 9746   1.539   4.433  10.445  0.1218 -0.3648 -1.9702
   98OSM    C3S 9747   1.609   4.237  10.415  0.0086  0.1522  0.0169
   98OSM    H3S 9748   1.565   4.141  10.448 -1.1601  1.0448  1.1656
   98OSM     O3 9749   1.738   4.233  10.482  0.2822  0.5269  0.3731
   98OSM    HO3 9750   1.726   4.281  10.564 -2.2310 -0.1642  0.5162
   98OSM    C4S 9751   1.623   4.247  10.266 -1.3175  0.1706 -0.3789
   98OSM    H4S 9752   1.694   4.327  10.240 -0.8201 -0.5164 -1.1971
   98OSM    C5S 9753   1.585   4.161  10.169  0.2983  0.2952 -0.2405
   98OSM    H5S 9754   1.526   4.071  10.193  0.4248  0.4625  0.7802
   98OSM    C6S 9755   1.609   4.169  10.021  0.0803 -0.8849  0.1030
   98OSM    H6S 9756   1.530   4.125   9.956  0.8634 -0.3051 -1.2866
   98OSM    H6T 9757   1.703   4.111  10.008  0.6066  0.0472 -0.3939
   98OSM    C7S 9758   1.618   4.308   9.958  0.6461  0.5529  0.4605
   98OSM    H7S 9759   1.715   4.351   9.992  1.4308 -1.1518  0.4867
   98OSM    H7T 9760   1.535   4.374   9.992 -0.1586 -0.3832  0.3396
   98OSM    C8S 9761   1.636   4.307   9.804 -0.5936  0.3542 -0.4103
   98OSM    H8S 9762   1.722   4.246   9.770  0.1521  0.5372  1.0705
   98OSM    H8T 9763   1.657   4.415   9.788  2.4680 -0.1216 -0.1996
   98OSM    C9S 9764   1.512   4.277   9.725  0.0100  0.2024  0.1666
   98OSM    H9S 9765   1.428   4.326   9.778  1.3758  1.2590  1.4360
   98OSM    H9T 9766   1.483   4.172   9.747 -0.3960  0.2728 -0.0354
   98OSM   C10S 9767   1.522   4.289   9.571  0.0844 -0.8445  1.5883
   98OSM   H10S 9768   1.428   4.247   9.530  1.2725 -0.8269 -1.3716
   98OSM   H10T 9769   1.610   4.230   9.537  1.5604  0.9165  2.1445
   98OSM   C11S 9770   1.531   4.436   9.520  0.5252  0.0909 -0.3167
   98OSM   H11S 9771   1.627   4.483   9.551  1.2713  0.0154 -2.3684
   98OSM   H11T 9772   1.443   4.482   9.571  0.1219 -0.9904  0.0139
   98OSM   C12S 9773   1.527   4.445   9.367 -0.2552 -0.1738 -0.2334
   98OSM   H12S 9774   1.620   4.405   9.322  0.4996 -0.1269  1.2156
   98OSM   H12T 9775   1.528   4.555   9.353  0.8805 -0.4855 -3.2011
   98OSM   C13S 9776   1.389   4.396   9.308 -0.7685 -0.0740  0.1069
   98OSM   H13S 9777   1.305   4.434   9.369  0.2582  1.2436  0.7422
   98OSM   H13T 9778   1.384   4.287   9.329 -0.8979 -0.5644 -2.2336
   98OSM   C14S 9779   1.365   4.440   9.157  0.1110  0.2105  0.3969
   98OSM   H14S 9780   1.280   4.386   9.112  0.3236  1.4520 -1.6250
   98OSM   H14T 9781   1.452   4.414   9.093  0.4332 -2.6352  1.8371
   98OSM   C15S 9782   1.346   4.587   9.138 -0.1770 -0.0181  0.3348
   98OSM   H15S 9783   1.415   4.642   9.206  0.4142 -2.7721  2.1293
   98OSM   H15T 9784   1.243   4.615   9.167 -0.5699 -0.3398 -0.7037
   98OSM   C16S 9785   1.375   4.624   8.993 -0.5058  0.6592  0.2041
   98OSM   H16S 9786   1.313   4.566   8.921 -1.6100  1.0937  0.7940
   98OSM   H16T 9787   1.478   4.588   8.972 -0.7451  0.9447 -1.6392
   98OSM   C17S 9788   1.359   4.778   8.978 -0.4714 -0.3828  0.0906
   98OSM   H17S 9789   1.434   4.842   9.029 -2.9004  1.7192  1.2587
   98OSM   H17T 9790   1.259   4.805   9.018 -0.5658 -1.1214  0.3795
   98OSM   C18S 9791   1.345   4.822   8.827  0.2919 -0.3174  0.5267
   98OSM   H18S 9792   1.338   4.930   8.805  2.5532 -0.1976  0.1571
   98OSM   H18T 9793   1.262   4.769   8.776 -0.4291 -1.5212  2.8104
   98OSM   H18U 9794   1.438   4.784   8.781  0.3916  0.0072  0.4585
   98OSM    C1F 9795   1.276   4.401  10.433 -0.3188 -0.5827 -0.0702
   98OSM     OF 9796   1.300   4.509  10.483 -0.5547  0.1538  0.4525
   98OSM    C2F 9797   1.137   4.364  10.387  0.6933  0.9216 -0.1193
   98OSM    H2F 9798   1.110   4.262  10.422  1.5702  1.2664  1.6630
   98OSM    H2G 9799   1.134   4.358  10.276 -0.3951  1.2733 -0.1169
   98OSM    C3F 9800   1.029   4.472  10.428 -0.3828  0.2118  0.3581
   98OSM    H3F 9801   1.076   4.570  10.406  1.1577 -0.4129  0.7559
   98OSM    H3G 9802   0.987   4.483  10.530  1.1234 -0.5445  1.0835
   98OSM    C4F 9803   0.916   4.456  10.330 -0.3909 -0.2914  0.3066
   98OSM    H4F 9804   0.958   4.490  10.233  1.1894 -1.3026  0.6037
   98OSM    H4G 9805   0.833   4.523  10.360 -0.4606 -0.1036 -0.3062
   98OSM    C5F 9806   0.830   4.327  10.318 -0.8348 -0.8889  0.6075
   98OSM    H5F 9807   0.784   4.311  10.418 -0.0983  1.4390  1.3749
   98OSM    H5G 9808   0.891   4.240  10.286  1.2488  1.1095 -1.1990
   98OSM    C6F 9809   0.719   4.335  10.205 -0.5223  0.2460 -0.9266
   98OSM    H6F 9810   0.679   4.438  10.218  0.0337  0.2368  1.2833
   98OSM    H6G 9811   0.638   4.271  10.246 -0.2424  1.4274  1.6194
   98OSM    C7F 9812   0.775   4.317  10.058  1.1948 -0.1513  0.3823
   98OSM    H7F 9813   0.811   4.215  10.034 -2.8372 -1.3819 -1.3494
   98OSM    H7G 9814   0.858   4.388  10.038  0.4016  0.3609 -1.2944
   98OSM    C8F 9815   0.670   4.351   9.944 -0.9165 -0.3650 -0.1651
   98OSM    H8F 9816   0.716   4.379   9.847  2.4134 -2.4923  0.6699
   98OSM    H8G 9817   0.605   4.436   9.973 -2.5599 -0.9412 -1.9231
   98OSM    C9F 9818   0.575   4.238   9.916 -0.1972  0.3220  0.6416
   98OSM    H9F 9819   0.499   4.215   9.992 -0.9145  0.8273  0.0891
   98OSM   C10F 9820   0.564   4.156   9.809  0.0370  0.4819  0.0251
   98OSM   H10F 9821   0.488   4.078   9.811  0.5474 -0.1072 -1.9529
   98OSM   C11F 9822   0.656   4.157   9.692 -0.4480 -0.5881 -0.1225
   98OSM   H11F 9823   0.746   4.093   9.703  1.0330  1.3440 -0.5934
   98OSM   H11G 9824   0.704   4.256   9.683 -0.7922 -0.3965  0.1450
   98OSM   C12F 9825   0.598   4.133   9.554  0.0842 -0.2709 -0.4503
   98OSM   H12F 9826   0.546   4.227   9.526 -0.6908 -0.4077  0.5166
   98OSM   H12G 9827   0.520   4.055   9.547  1.5248 -1.6524 -1.9782
   98OSM   C13F 9828   0.703   4.122   9.445 -0.0486 -0.4509  0.5293
   98OSM   H13F 9829   0.760   4.027   9.448  0.5818 -0.2311 -2.1751
   98OSM   H13G 9830   0.783   4.198   9.460 -0.7099  1.0103 -2.6683
   98OSM   C14F 9831   0.659   4.138   9.300  0.1799 -0.2706  0.3640
   98OSM   H14F 9832   0.739   4.192   9.245  0.0102  0.3418  0.7091
   98OSM   H14G 9833   0.571   4.205   9.295  1.0670  1.0061  1.2177
   98OSM   C15F 9834   0.620   4.000   9.237 -0.0796  0.6740  0.5567
   98OSM   H15F 9835   0.535   3.949   9.287  0.5368 -1.5670 -0.5100
   98OSM   H15G 9836   0.711   3.938   9.256  2.1339  3.3750 -0.4223
   98OSM   C16F 9837   0.590   3.996   9.086  0.1645 -0.5041  0.4590
   98OSM   H16F 9838   0.586   3.895   9.041 -0.0255 -0.0704 -0.5173
   98OSM   H16G 9839   0.666   4.059   9.036  1.1631 -1.5001  0.6723
   98OSM   C17F 9840   0.459   4.071   9.054  0.7816 -0.2589  0.3410
   98OSM   H17F 9841   0.459   4.177   9.088  1.7778 -0.3667  0.7024
   98OSM   H17G 9842   0.377   4.023   9.113  0.2270  0.6485  0.3343
   98OSM   C18F 9843   0.426   4.087   8.899  0.4015 -0.5496 -0.3428
   98OSM   H18F 9844   0.436   3.988   8.850  0.6746 -1.0350  0.6627
   98OSM   H18G 9845   0.502   4.152   8.850 -0.4299  1.4497  0.9021
   98OSM   H18H 9846   0.322   4.124   8.882  0.5851 -0.2909 -0.9265
   99OSM      N 9847   3.614   4.821  11.085  0.5713  0.0910 -0.4433
   99OSM    C15 9848   3.733   4.888  11.015  0.0197  0.5671 -0.2309
   99OSM   H15A 9849   3.804   4.813  10.982 -0.2007 -0.2985  1.1533
   99OSM   H15B 9850   3.776   4.963  11.080  0.2410 -0.1690  0.4955
   99OSM   H15C 9851   3.701   4.941  10.928  0.1924 -0.1086 -0.7171
   99OSM    C14 9852   3.543   4.738  10.981 -0.0459 -0.3397 -0.4168
   99OSM   H14A 9853   3.452   4.785  10.947  0.6516  0.6066 -1.0232
   99OSM   H14B 9854   3.516   4.642  11.023  1.3822 -0.1456  1.0160
   99OSM   H14C 9855   3.614   4.716  10.903  1.8396 -0.9360  1.3723
   99OSM    C13 9856   3.658   4.739  11.201  0.2733  0.5124  0.3832
   99OSM   H13A 9857   3.572   4.696  11.250 -0.2303 -2.6123 -2.7822
   99OSM   H13B 9858   3.730   4.782  11.269  2.0222 -0.6715 -0.6460
   99OSM   H13C 9859   3.701   4.651  11.156 -3.0939 -1.1197  0.0392
   99OSM    C12 9860   3.529   4.939  11.125  0.2729  0.0728  0.2186
   99OSM   H12A 9861   3.439   4.901  11.173  0.9085  0.2830  1.6422
   99OSM   H12B 9862   3.504   4.993  11.035  1.6674  1.4485  0.6092
   99OSM    C11 9863   3.594   5.035  11.224 -0.1211  0.8000 -0.4023
   99OSM   H11A 9864   3.680   4.985  11.274  0.7151  1.1319 -1.4718
   99OSM   H11B 9865   3.522   5.057  11.306  0.6502 -0.1527  0.5476
   99OSM      P 9866   3.546   5.275  11.131 -0.4914 -0.0110 -0.2238
   99OSM    O13 9867   3.434   5.277  11.226 -0.0073  0.0304 -0.5682
   99OSM    O14 9868   3.631   5.394  11.144  0.1163 -0.2087  0.0191
   99OSM    O11 9869   3.494   5.240  10.987  0.8471  0.1527 -0.5654
   99OSM    O12 9870   3.633   5.147  11.160 -0.5227 -0.2301  0.1568
   99OSM    C1S 9871   3.574   5.232  10.875 -0.3953 -0.5639  0.7206
   99OSM    H1S 9872   3.653   5.157  10.893  0.5620 -0.0606 -1.1670
   99OSM    H1T 9873   3.625   5.330  10.868 -0.7970  0.0787  4.4628
   99OSM     NF 9874   3.579   5.191  10.624 -0.4473 -0.9345  0.3104
   99OSM    HNF 9875   3.550   5.255  10.553  1.1419 -0.7428 -0.2280
   99OSM    C2S 9876   3.495   5.197  10.745 -0.2887  0.1715 -0.6669
   99OSM    H2S 9877   3.453   5.097  10.767  0.6213  0.1237  1.0390
   99OSM    C3S 9878   3.366   5.291  10.723 -0.5475 -0.1777 -0.4014
   99OSM    H3S 9879   3.397   5.392  10.689 -1.5779  0.0762 -0.6048
   99OSM     O3 9880   3.289   5.310  10.840 -0.2691 -0.2386  0.4407
   99OSM    HO3 9881   3.349   5.276  10.907  2.3005  1.3991 -0.8552
   99OSM    C4S 9882   3.289   5.224  10.602  0.4190  0.5374 -0.0032
   99OSM    H4S 9883   3.274   5.117  10.618 -1.2009  0.5870 -1.0137
   99OSM    C5S 9884   3.267   5.284  10.481 -0.4377 -0.4311 -0.7235
   99OSM    H5S 9885   3.303   5.387  10.465  1.4027 -0.7301  1.0745
   99OSM    C6S 9886   3.196   5.211  10.374 -0.4805 -0.2460 -0.0204
   99OSM    H6S 9887   3.104   5.271  10.354  0.9823  3.5946  3.4324
   99OSM    H6T 9888   3.174   5.107  10.407  1.4828 -0.6321  0.1938
   99OSM    C7S 9889   3.292   5.203  10.252  0.2988 -0.1128  0.1984
   99OSM    H7S 9890   3.390   5.161  10.284 -0.2222  0.0948  2.2379
   99OSM    H7T 9891   3.310   5.307  10.218 -0.5797 -0.5959 -1.8796
   99OSM    C8S 9892   3.236   5.123  10.136 -0.2344 -0.2533  0.3989
   99OSM    H8S 9893   3.154   5.182  10.088 -0.2352  0.8469  1.6770
   99OSM    H8T 9894   3.184   5.031  10.171 -1.7036  0.4586  0.1716
   99OSM    C9S 9895   3.341   5.097  10.028 -0.6543  0.3768  0.9042
   99OSM    H9S 9896   3.422   5.036  10.074  0.1772 -0.2136 -1.2191
   99OSM    H9T 9897   3.371   5.192   9.979 -1.0762  0.1960  0.2853
   99OSM   C10S 9898   3.286   5.010   9.914  0.1513 -0.1743  0.5953
   99OSM   H10S 9899   3.214   4.943   9.965  1.9554 -2.3138  0.4789
   99OSM   H10T 9900   3.360   4.944   9.864 -1.0553 -1.2806  0.2071
   99OSM   C11S 9901   3.228   5.106   9.809  0.0776 -0.5404 -0.1419
   99OSM   H11S 9902   3.296   5.170   9.749 -0.0749 -1.7695 -1.6947
   99OSM   H11T 9903   3.147   5.169   9.852 -0.6434 -1.9490  0.6084
   99OSM   C12S 9904   3.168   5.019   9.693 -0.0296  0.4655 -0.1039
   99OSM   H12S 9905   3.106   4.946   9.749 -2.5539  1.8481 -0.9295
   99OSM   H12T 9906   3.105   5.073   9.619 -0.8553 -1.7472 -1.0997
   99OSM   C13S 9907   3.274   4.957   9.605 -0.6940 -0.2347 -0.3002
   99OSM   H13S 9908   3.324   4.871   9.655  1.7652  0.3031 -1.6740
   99OSM   H13T 9909   3.347   5.037   9.583 -0.9358 -0.0433 -0.4172
   99OSM   C14S 9910   3.217   4.899   9.476 -0.2015  0.1997 -0.4171
   99OSM   H14S 9911   3.153   4.964   9.412 -0.5012  2.2859  1.8337
   99OSM   H14T 9912   3.145   4.822   9.510 -1.9006  2.1560  0.6238
   99OSM   C15S 9913   3.312   4.801   9.397 -0.4928  0.7011  0.0126
   99OSM   H15S 9914   3.330   4.707   9.453 -1.9550 -0.0544 -0.7380
   99OSM   H15T 9915   3.411   4.852   9.394 -1.5187  2.8234  0.4266
   99OSM   C16S 9916   3.277   4.773   9.252  0.2250  0.4630  0.3897
   99OSM   H16S 9917   3.179   4.722   9.242  0.8991 -0.7665 -0.2245
   99OSM   H16T 9918   3.347   4.700   9.205 -1.0625 -1.2443  1.0320
   99OSM   C17S 9919   3.271   4.894   9.155 -0.1171  0.4978  0.1619
   99OSM   H17S 9920   3.357   4.964   9.167 -1.0671  1.6875  0.2592
   99OSM   H17T 9921   3.180   4.954   9.177 -1.2774 -1.0790 -0.1768
   99OSM   C18S 9922   3.265   4.846   9.014 -0.0269 -0.1969 -0.2101
   99OSM   H18S 9923   3.275   4.930   8.942  0.9265 -1.2205 -1.3127
   99OSM   H18T 9924   3.162   4.807   9.002 -0.4943  0.8876  0.1171
   99OSM   H18U 9925   3.336   4.760   9.006 -0.9262 -1.0276  0.5357
   99OSM    C1F 9926   3.688   5.111  10.599 -0.2554 -0.2765 -0.2829
   99OSM     OF 9927   3.740   5.052  10.692  0.4979  0.3858  0.4334
   99OSM    C2F 9928   3.733   5.117  10.459  0.8724  0.4772 -0.1643
   99OSM    H2F 9929   3.751   5.222  10.428 -2.8967  0.9221 -1.3994
   99OSM    H2G 9930   3.643   5.080  10.405 -0.1456  0.9473  1.1654
   99OSM    C3F 9931   3.847   5.020  10.420 -0.3337  0.3310  0.0989
   99OSM    H3F 9932   3.939   5.042  10.477 -1.2785 -0.4936  2.0385
   99OSM    H3G 9933   3.822   4.914  10.441  2.0841 -1.1633 -3.5530
   99OSM    C4F 9934   3.887   5.030  10.273  0.1910 -0.5660  0.1420
   99OSM    H4F 9935   3.903   5.137  10.250 -2.2222 -0.2730 -0.4910
   99OSM    H4G 9936   3.799   5.006  10.210  0.5241 -0.1850 -0.4655
   99OSM    C5F 9937   4.013   4.953  10.216  0.2567 -0.1586 -0.1300
   99OSM    H5F 9938   3.965   4.855  10.191 -0.2027 -0.0751  0.3840
   99OSM    H5G 9939   4.098   4.949  10.287 -0.4235 -2.2146  0.6644
   99OSM    C6F 9940   4.054   5.018  10.078  0.6373  0.1704 -0.5168
   99OSM    H6F 9941   4.084   5.125  10.079 -0.3654  0.4522 -0.3718
   99OSM    H6G 9942   3.957   5.009  10.025  0.8186 -0.8930 -0.7037
   99OSM    C7F 9943   4.151   4.922   9.998 -0.4859  0.0502 -0.3210
   99OSM    H7F 9944   4.103   4.823   9.984 -0.7697  0.3101 -1.2034
   99OSM    H7G 9945   4.243   4.899  10.056  1.5888  1.8996 -2.6360
   99OSM    C8F 9946   4.191   4.979   9.863  0.0776 -0.6094  0.4770
   99OSM    H8F 9947   4.234   5.081   9.864 -1.2712  0.0614 -1.9334
   99OSM    H8G 9948   4.104   5.006   9.799  0.9112 -1.4390 -1.0787
   99OSM    C9F 9949   4.284   4.894   9.787  0.2742  0.1502 -0.1464
   99OSM    H9F 9950   4.332   4.812   9.843  1.4950  1.2914  0.5556
   99OSM   C10F 9951   4.314   4.908   9.658  0.3465  0.1327  0.3477
   99OSM   H10F 9952   4.386   4.838   9.614  1.8908  2.4243 -1.0161
   99OSM   C11F 9953   4.250   5.007   9.567 -0.5251  0.4621  0.3132
   99OSM   H11F 9954   4.327   5.072   9.520  0.7179  0.1930  1.8956
   99OSM   H11G 9955   4.187   5.078   9.626 -0.7830 -0.2822  0.9548
   99OSM   C12F 9956   4.159   4.937   9.464  0.2772 -0.4589  0.3894
   99OSM   H12F 9957   4.212   4.858   9.406 -0.1075 -1.5167  1.4394
   99OSM   H12G 9958   4.133   5.013   9.387 -3.7897 -1.8291  0.1992
   99OSM   C13F 9959   4.024   4.875   9.512 -0.4947 -0.8196  0.6508
   99OSM   H13F 9960   4.031   4.808   9.600 -1.6654 -1.8033  0.0238
   99OSM   H13G 9961   3.995   4.804   9.432 -0.1015  1.4191 -1.6062
   99OSM   C14F 9962   3.920   4.984   9.528 -0.1081  1.2927 -0.3013
   99OSM   H14F 9963   3.875   5.014   9.431  0.9226 -0.2190 -1.2811
   99OSM   H14G 9964   3.971   5.077   9.563 -2.1150  1.6819  1.8413
   99OSM   C15F 9965   3.807   4.949   9.620 -0.1470  0.3267 -0.6067
   99OSM   H15F 9966   3.859   4.918   9.713  0.6553  0.5609 -0.9717
   99OSM   H15G 9967   3.732   4.875   9.584  0.3990 -0.7116  0.3410
   99OSM   C16F 9968   3.727   5.078   9.663 -0.8501  0.3155  0.6552
   99OSM   H16F 9969   3.683   5.118   9.570  0.8644  2.8895  0.8380
   99OSM   H16G 9970   3.807   5.148   9.697 -1.1692  0.8442  0.3285
   99OSM   C17F 9971   3.627   5.057   9.776 -1.2052 -0.1433  0.1436
   99OSM   H17F 9972   3.563   4.973   9.741 -2.2724  0.6993  0.0460
   99OSM   H17G 9973   3.565   5.149   9.777 -4.7266 -2.3098  0.7118
   99OSM   C18F 9974   3.684   5.020   9.918 -0.5821 -0.9268  1.0148
   99OSM   H18F 9975   3.782   5.071   9.934 -0.8831  0.9280 -2.1709
   99OSM   H18G 9976   3.696   4.910   9.924  0.4062 -1.0446 -1.6720
   99OSM   H18H 9977   3.612   5.049   9.997 -1.3781  0.4306 -0.1600
  100OSM      N 9978   5.770   5.805  10.657  0.3875 -0.4523  0.4244
  100OSM    C15 9979   5.685   5.828  10.535 -0.5327 -1.0089 -0.4849
  100OSM   H15A 9980   5.585   5.839  10.573 -0.3449  0.5567 -0.3726
  100OSM   H15B 9981   5.695   5.748  10.463 -0.2164 -2.1293  0.7783
  100OSM   H15C 9982   5.708   5.925  10.493 -2.9460 -0.1937 -0.0584
  100OSM    C14 9983   5.707   5.692  10.731  0.1086 -0.2008  0.1656
  100OSM   H14A 9984   5.706   5.603  10.670  1.3183  0.4092 -0.7988
  100OSM   H14B 9985   5.605   5.724  10.748 -0.5218 -1.2014 -1.4834
  100OSM   H14C 9986   5.756   5.679  10.826 -1.8044 -1.1630  1.0764
  100OSM    C13 9987   5.907   5.753  10.620  0.2267  0.0972  0.1103
  100OSM   H13A 9988   5.956   5.827  10.558 -0.3427 -0.2080 -0.7356
  100OSM   H13B 9989   5.903   5.669  10.551  3.6297 -0.6349  0.6386
  100OSM   H13C 9990   5.971   5.716  10.698  1.5319  0.6187 -0.6947
  100OSM    C12 9991   5.774   5.930  10.735  0.0555  0.3804  0.3422
  100OSM   H12A 9992   5.810   6.004  10.665 -3.0387  0.0637 -1.7868
  100OSM   H12B 9993   5.853   5.913  10.807  1.2257 -2.9112 -1.5350
  100OSM    C11 9994   5.650   5.973  10.816 -0.3301  1.1280 -0.1448
  100OSM   H11A 9995   5.671   6.070  10.866 -2.0203  0.7979  1.2656
  100OSM   H11B 9996   5.622   5.892  10.886 -1.4736 -0.3320 -2.1669
  100OSM      P 9997   5.387   5.967  10.770 -0.0339 -0.1413  0.2784
  100OSM    O13 9998   5.366   5.822  10.797 -0.5211  0.1540  0.5331
  100OSM    O14 9999   5.350   6.068  10.869  0.1907 -0.4467 -0.2590
  100OSM    O1110000   5.307   6.000  10.638  0.5414  0.0321 -0.6002
  100OSM    O1210001   5.534   5.993  10.726  0.1757 -0.5224 -0.2137
  100OSM    C1S10002   5.351   6.079  10.531 -0.3158  0.0624  0.3946
  100OSM    H1S10003   5.437   6.145  10.555  1.2295 -1.2312 -1.2991
  100OSM    H1T10004   5.268   6.141  10.492  2.3987  2.5349 -1.9281
  100OSM     NF10005   5.452   6.073  10.311  0.1326 -0.3991  0.0083
  100OSM    HNF10006   5.390   6.108  10.241 -1.2835 -1.6369  0.5925
  100OSM    C2S10007   5.390   5.990  10.418 -0.7841  0.3989 -0.2966
  100OSM    H2S10008   5.464   5.913  10.449 -0.9578  0.6039  0.6340
  100OSM    C3S10009   5.261   5.909  10.370 -0.0673 -0.3060  0.6924
  100OSM    H3S10010   5.176   5.979  10.355  1.2963  1.7822  2.2245
  100OSM     O310011   5.201   5.823  10.462  0.1307  0.0004  0.2889
  100OSM    HO310012   5.228   5.855  10.548  0.7334 -1.4632  0.6714
  100OSM    C4S10013   5.284   5.833  10.243  0.5563 -0.8938  0.3413
  100OSM    H4S10014   5.241   5.900  10.167  2.5710  0.9390  0.6836
  100OSM    C5S10015   5.344   5.717  10.221  0.4134 -0.3224 -0.0098
  100OSM    H5S10016   5.376   5.652  10.303 -1.4197 -1.4141 -0.0944
  100OSM    C6S10017   5.363   5.644  10.091  0.0137 -0.2384 -0.5828
  100OSM    H6S10018   5.298   5.554  10.091  1.4497 -1.3313  0.6381
  100OSM    H6T10019   5.468   5.612  10.074 -0.4211 -0.8137 -2.5480
  100OSM    C7S10020   5.316   5.719   9.966 -0.2623  0.2513  0.0850
  100OSM    H7S10021   5.370   5.816   9.966  2.5741 -1.1946 -1.6471
  100OSM    H7T10022   5.208   5.747   9.969 -0.3551 -0.1472  1.8732
  100OSM    C8S10023   5.334   5.652   9.824  0.1893 -1.1014 -0.4691
  100OSM    H8S10024   5.293   5.549   9.824 -0.4300 -0.8621 -0.0545
  100OSM    H8T10025   5.443   5.643   9.804  0.4467  1.9488 -0.8153
  100OSM    C9S10026   5.278   5.735   9.707  0.5212  0.1953 -0.5609
  100OSM    H9S10027   5.319   5.838   9.705 -0.1635  0.4835  0.2253
  100OSM    H9T10028   5.170   5.760   9.713  1.1344  2.6025  2.9198
  100OSM   C10S10029   5.295   5.671   9.566 -1.1636 -0.1226 -0.3435
  100OSM   H10S10030   5.239   5.575   9.566 -1.2865 -0.0644  0.6957
  100OSM   H10T10031   5.401   5.641   9.553 -1.1710 -0.6768  0.7551
  100OSM   C11S10032   5.255   5.764   9.449 -0.1229  0.3364  0.3561
  100OSM   H11S10033   5.323   5.851   9.441  0.8342 -0.4455 -0.4021
  100OSM   H11T10034   5.153   5.803   9.467 -0.2286 -0.1737  0.9029
  100OSM   C12S10035   5.249   5.684   9.319  0.2341 -0.1584  0.6350
  100OSM   H12S10036   5.184   5.594   9.323 -0.1683  0.1256  0.4954
  100OSM   H12T10037   5.351   5.648   9.291 -0.0349 -0.1353 -0.4284
  100OSM   C13S10038   5.190   5.759   9.200  0.3108  0.3771 -0.1732
  100OSM   H13S10039   5.094   5.804   9.232  0.7413  0.6352  0.7919
  100OSM   H13T10040   5.179   5.683   9.120 -1.6334 -2.1076  2.2528
  100OSM   C14S10041   5.289   5.870   9.141  0.6285  0.1750  0.3974
  100OSM   H14S10042   5.394   5.837   9.160  1.2113  1.0596 -1.0824
  100OSM   H14T10043   5.292   5.969   9.192  2.9607  0.0924  0.5310
  100OSM   C15S10044   5.265   5.887   8.996  0.8413 -0.1483  0.7489
  100OSM   H15S10045   5.155   5.883   8.987  0.8547  2.0512 -1.4686
  100OSM   H15T10046   5.295   5.792   8.946 -1.6366 -0.3142 -0.5718
  100OSM   C16S10047   5.318   6.016   8.940  0.7036 -0.8168 -0.4518
  100OSM   H16S10048   5.427   6.021   8.957  0.5529 -2.9900  1.6331
  100OSM   H16T10049   5.268   6.100   8.994  0.3914 -2.0490  1.2298
  100OSM   C17S10050   5.289   6.024   8.789  0.4973 -0.2281 -0.0821
  100OSM   H17S10051   5.305   5.925   8.740 -1.4048 -1.6469  1.9930
  100OSM   H17T10052   5.359   6.093   8.737 -0.9684  2.2099  1.0213
  100OSM   C18S10053   5.145   6.051   8.741 -0.5441 -0.8073  0.5129
  100OSM   H18S10054   5.136   6.058   8.631  1.3417  0.1049  0.3738
  100OSM   H18T10055   5.112   6.152   8.775  2.0926  0.3127  0.0664
  100OSM   H18U10056   5.075   5.977   8.784 -0.5414 -1.2354 -0.2138
  100OSM    C1F10057   5.575   6.130  10.310 -0.1108  0.2479 -0.3067
  100OSM     OF10058   5.642   6.124  10.413 -0.0504  0.3223  0.1604
  100OSM    C2F10059   5.609   6.207  10.188  0.3081  0.6173 -0.8491
  100OSM    H2F10060   5.718   6.226  10.183  0.2143  0.8713 -2.4729
  100OSM    H2G10061   5.556   6.305  10.188 -0.7869  0.0640  0.4298
  100OSM    C3F10062   5.577   6.135  10.055 -0.3244  0.4145  0.4360
  100OSM    H3F10063   5.473   6.097  10.046  0.5841 -1.9583 -0.8732
  100OSM    H3G10064   5.646   6.049  10.043 -0.3511  0.5458 -0.7528
  100OSM    C4F10065   5.606   6.229   9.928  0.2241 -0.2309  0.8684
  100OSM    H4F10066   5.705   6.272   9.955  1.3570 -1.4679 -1.0716
  100OSM    H4G10067   5.533   6.312   9.914  1.2315  0.2845 -2.1075
  100OSM    C5F10068   5.623   6.152   9.800 -1.1029 -0.1531  0.7692
  100OSM    H5F10069   5.519   6.115   9.786 -2.4940  3.7255 -0.3785
  100OSM    H5G10070   5.692   6.066   9.812 -0.7609 -0.6425 -3.4133
  100OSM    C6F10071   5.668   6.236   9.685 -0.1912 -0.0190  0.3558
  100OSM    H6F10072   5.760   6.284   9.726  0.0169 -1.9652  2.3420
  100OSM    H6G10073   5.599   6.315   9.649  1.0020  1.5897  1.4472
  100OSM    C7F10074   5.712   6.151   9.570  0.5998  0.3751  0.4535
  100OSM    H7F10075   5.631   6.088   9.528  0.5771  0.8262 -0.1987
  100OSM    H7G10076   5.790   6.081   9.607  1.2781  1.4251  1.0483
  100OSM    C8F10077   5.779   6.227   9.459 -0.1732  0.0691  1.1499
  100OSM    H8F10078   5.809   6.147   9.387 -2.2301 -1.3839  1.8117
  100OSM    H8G10079   5.872   6.261   9.508  0.9999  0.4910 -1.1960
  100OSM    C9F10080   5.695   6.344   9.401 -0.0315 -0.0507 -0.5429
  100OSM    H9F10081   5.673   6.424   9.473 -1.4983  0.0506 -1.0571
  100OSM   C10F10082   5.658   6.361   9.278 -0.1347 -0.0339  0.2039
  100OSM   H10F10083   5.592   6.443   9.247 -0.7326  0.0157  1.5118
  100OSM   C11F10084   5.690   6.272   9.161  0.2010 -0.0973 -0.5589
  100OSM   H11F10085   5.634   6.304   9.071 -0.8872 -1.6584 -0.4596
  100OSM   H11G10086   5.664   6.167   9.184 -2.4306  0.9154  1.6481
  100OSM   C12F10087   5.837   6.287   9.122  0.4132  0.0798 -0.2963
  100OSM   H12F10088   5.902   6.241   9.200 -0.8637 -0.9147  0.2085
  100OSM   H12G10089   5.872   6.390   9.101 -0.1317  0.4518  0.5692
  100OSM   C13F10090   5.858   6.211   8.986 -0.2027  0.9523 -0.7562
  100OSM   H13F10091   5.793   6.123   9.006 -0.1736  1.1535  0.2924
  100OSM   H13G10092   5.963   6.177   8.971 -0.0731 -0.3805  2.2967
  100OSM   C14F10093   5.820   6.288   8.855 -0.0883  0.2566 -0.4065
  100OSM   H14F10094   5.878   6.381   8.840 -0.5303  0.4814 -0.7419
  100OSM   H14G10095   5.712   6.315   8.858  0.1026  1.2348 -1.5631
  100OSM   C15F10096   5.844   6.216   8.719 -0.1236 -0.2486 -0.1882
  100OSM   H15F10097   5.796   6.284   8.645 -1.9749 -0.6189  0.6111
  100OSM   H15G10098   5.784   6.123   8.706  0.7916 -0.4708 -4.0681
  100OSM   C16F10099   5.991   6.188   8.683  0.2098  0.5454  0.0588
  100OSM   H16F10100   6.040   6.103   8.736  1.0711  0.1604 -1.3093
  100OSM   H16G10101   6.048   6.275   8.722 -1.5611  0.6800  2.5779
  100OSM   C17F10102   6.017   6.188   8.532 -0.1214  0.7758  0.4630
  100OSM   H17F10103   6.127   6.194   8.516 -0.0999 -2.2869 -1.3144
  100OSM   H17G10104   5.978   6.287   8.499  0.4654  0.8036 -0.1703
  100OSM   C18F10105   5.950   6.072   8.459 -0.4059  0.0856 -0.0273
  100OSM   H18F10106   5.974   5.973   8.505 -3.4496 -1.8475 -2.1281
  100OSM   H18G10107   5.988   6.072   8.355  0.7274  0.1836  0.3831
  100OSM   H18H10108   5.839   6.073   8.471 -0.2132  1.3351  2.2123
  101OSM      N10109   2.351   5.104  11.303 -0.1151  0.0402  0.1133
  101OSM    C1510110   2.423   5.142  11.181 -0.5338 -0.1030 -0.3875
  101OSM   H15A10111   2.531   5.139  11.184 -0.3121  2.3683 -2.2715
  101OSM   H15B10112   2.410   5.244  11.148  0.4244  0.7104  1.6005
  101OSM   H15C10113   2.395   5.075  11.101 -1.1027  0.2852 -0.5190
  101OSM    C1410114   2.395   4.972  11.358  0.1682 -0.1361 -0.3064
  101OSM   H14A10115   2.336   4.931  11.439 -0.4474  1.8168  0.2929
  101OSM   H14B10116   2.500   4.970  11.384  0.2415 -1.3070 -0.6200
  101OSM   H14C10117   2.391   4.905  11.273  3.1421  0.0088 -0.6754
  101OSM    C1310118   2.382   5.205  11.412 -0.6435 -0.4752 -0.3028
  101OSM   H13A10119   2.463   5.186  11.481 -1.3686  1.1199  1.0881
  101OSM   H13B10120   2.292   5.209  11.473 -1.2991  0.3196 -1.2908
  101OSM   H13C10121   2.399   5.302  11.368  2.5148 -1.1734 -0.8352
  101OSM    C1210122   2.196   5.113  11.271 -0.5348  0.1351 -0.0522
  101OSM   H12A10123   2.170   5.214  11.244  1.3336  0.7008  0.1274
  101OSM   H12B10124   2.148   5.091  11.366 -0.2538  0.2065  0.1075
  101OSM    C1110125   2.138   5.021  11.161 -0.1364  0.3622 -0.5369
  101OSM   H11A10126   2.196   5.052  11.072  1.3014 -1.4102 -0.2978
  101OSM   H11B10127   2.031   5.037  11.137 -0.9515  0.7264  2.7846
  101OSM      P10128   2.232   4.787  11.089 -0.1007 -0.2088 -0.0688
  101OSM    O1310129   2.350   4.863  11.037  0.0487  0.1579  0.2404
  101OSM    O1410130   2.267   4.657  11.157 -0.2306  0.5510 -0.5404
  101OSM    O1110131   2.127   4.759  10.977  0.3578  0.2235  0.4469
  101OSM    O1210132   2.152   4.881  11.193  0.3371  0.4175 -0.3082
  101OSM    C1S10133   2.046   4.851  10.906  0.0992 -0.1987 -0.2450
  101OSM    H1S10134   2.076   4.955  10.931  1.1903 -0.3490 -0.8416
  101OSM    H1T10135   1.940   4.834  10.935 -0.1886 -3.8443 -2.7330
  101OSM     NF10136   1.991   4.952  10.694  0.0378  1.1770 -0.3505
  101OSM    HNF10137   1.905   4.926  10.651  0.0957 -0.7884  0.5953
  101OSM    C2S10138   2.056   4.838  10.752 -0.0828 -0.0502  0.5756
  101OSM    H2S10139   2.164   4.831  10.729 -0.1138  1.5680 -0.2247
  101OSM    C3S10140   1.993   4.702  10.717  0.0003  0.2608 -0.0614
  101OSM    H3S10141   1.891   4.700  10.761  0.7058  0.4762  1.6779
  101OSM     O310142   2.060   4.591  10.774 -0.3677 -0.3491 -0.2790
  101OSM    HO310143   2.127   4.635  10.827  0.3511 -2.1421  0.3446
  101OSM    C4S10144   1.997   4.676  10.576  0.2821 -0.2207  0.4815
  101OSM    H4S10145   2.094   4.700  10.529  0.8796 -0.6603  1.4553
  101OSM    C5S10146   1.903   4.612  10.498 -0.2936  0.1635 -0.2104
  101OSM    H5S10147   1.810   4.581  10.547  1.1245  0.1912  2.7411
  101OSM    C6S10148   1.923   4.611  10.348 -0.0580  0.9616 -0.7501
  101OSM    H6S10149   1.936   4.508  10.310  2.1633  0.6955  0.5553
  101OSM    H6T10150   2.011   4.664  10.307  1.0819  0.3815  0.8581
  101OSM    C7S10151   1.784   4.650  10.281  0.1332  0.7004 -0.1006
  101OSM    H7S10152   1.767   4.757  10.309  2.1248  0.5085  2.2232
  101OSM    H7T10153   1.706   4.588  10.330  2.6011 -1.4598  1.3348
  101OSM    C8S10154   1.792   4.629  10.124  0.1973  0.1163  0.0590
  101OSM    H8S10155   1.687   4.642  10.092  0.2661  1.7457  0.4076
  101OSM    H8T10156   1.837   4.532  10.094 -0.1779  0.0547 -0.3087
  101OSM    C9S10157   1.879   4.733  10.050 -0.0152 -0.5204  0.2254
  101OSM    H9S10158   1.986   4.712  10.072  0.2245  0.8592  0.4764
  101OSM    H9T10159   1.854   4.838  10.074  0.0182 -0.5617  0.4439
  101OSM   C10S10160   1.863   4.730   9.901 -0.1138  0.2241  0.4144
  101OSM   H10S10161   1.893   4.629   9.867 -0.8429  0.6091 -1.5140
  101OSM   H10T10162   1.933   4.804   9.858  1.7023 -0.3551  2.2639
  101OSM   C11S10163   1.720   4.771   9.859  0.4419 -0.4879 -1.1664
  101OSM   H11S10164   1.692   4.852   9.930 -1.0991 -0.8731 -1.2979
  101OSM   H11T10165   1.649   4.691   9.888 -0.7345  0.0503 -2.4393
  101OSM   C12S10166   1.709   4.828   9.717  0.3165 -0.4436  0.0437
  101OSM   H12S10167   1.745   4.760   9.636 -1.0817 -1.8445  0.5358
  101OSM   H12T10168   1.771   4.920   9.723  0.6561 -0.6841  0.2418
  101OSM   C13S10169   1.560   4.874   9.692 -0.0686  0.5913  0.1237
  101OSM   H13S10170   1.514   4.904   9.788  1.0211  0.9361  0.5540
  101OSM   H13T10171   1.493   4.793   9.657  0.9605  1.4466 -4.4921
  101OSM   C14S10172   1.545   4.996   9.604 -0.1116 -0.3135  0.1053
  101OSM   H14S10173   1.624   5.073   9.622  0.3831 -0.6717 -0.4919
  101OSM   H14T10174   1.443   5.035   9.622 -0.5366 -0.5407 -1.5959
  101OSM   C15S10175   1.545   4.961   9.451 -0.1743  0.5480 -0.4751
  101OSM   H15S10176   1.460   4.891   9.433 -0.3744  1.2830 -2.6470
  101OSM   H15T10177   1.639   4.914   9.414 -0.3741  0.9721 -1.5810
  101OSM   C16S10178   1.533   5.082   9.347  0.0927 -0.1825  0.0477
  101OSM   H16S10179   1.624   5.145   9.340 -1.4160  2.0839 -0.2513
  101OSM   H16T10180   1.449   5.153   9.363 -0.0958  0.6202 -3.6789
  101OSM   C17S10181   1.511   5.043   9.195 -0.6499  0.4060 -0.3371
  101OSM   H17S10182   1.416   4.986   9.196 -0.5950  0.3191  0.9473
  101OSM   H17T10183   1.596   4.986   9.153 -1.0469 -0.3237 -0.1613
  101OSM   C18S10184   1.490   5.172   9.108  0.2663  0.3879 -0.2343
  101OSM   H18S10185   1.419   5.245   9.152 -1.0016 -1.2538  0.5628
  101OSM   H18T10186   1.449   5.143   9.009  0.4565  1.1429 -0.5434
  101OSM   H18U10187   1.594   5.206   9.091  0.3828  1.0127  1.4956
  101OSM    C1F10188   2.032   5.076  10.711 -0.2366  0.3110 -0.1690
  101OSM     OF10189   2.145   5.102  10.752  0.2222  0.3588 -0.3688
  101OSM    C2F10190   1.941   5.183  10.668  0.5270  0.1549 -0.6858
  101OSM    H2F10191   1.926   5.263  10.744 -0.3335 -0.7245  0.1076
  101OSM    H2G10192   1.846   5.126  10.656  1.5666 -1.4147 -1.8035
  101OSM    C3F10193   1.977   5.242  10.527  0.1522  0.1156 -0.3934
  101OSM    H3F10194   2.086   5.258  10.522  0.2973 -1.0031 -1.3345
  101OSM    H3G10195   1.911   5.331  10.521  2.0766  1.6376  0.3120
  101OSM    C4F10196   1.945   5.157  10.409 -0.5078 -0.2635 -0.2260
  101OSM    H4F10197   1.840   5.125  10.424 -0.8119  0.3098 -1.0692
  101OSM    H4G10198   2.018   5.073  10.411 -1.0038 -0.6970  0.2374
  101OSM    C5F10199   1.943   5.231  10.280  0.1788 -0.2487  0.6236
  101OSM    H5F10200   2.032   5.295  10.261 -1.0459  1.5515  0.6485
  101OSM    H5G10201   1.852   5.295  10.277  0.3963  0.0648  0.6659
  101OSM    C6F10202   1.914   5.129  10.159  0.4505 -0.3584 -0.1329
  101OSM    H6F10203   2.012   5.076  10.165  1.5530  1.6876  2.5347
  101OSM    H6G10204   1.827   5.067  10.188  0.8585 -0.8579  0.0471
  101OSM    C7F10205   1.906   5.201  10.024  0.0277  0.8600  0.1003
  101OSM    H7F10206   1.995   5.268  10.017 -2.2578  4.0895 -0.1126
  101OSM    H7G10207   1.819   5.270  10.030 -0.5397  0.5288 -2.7200
  101OSM    C8F10208   1.907   5.098   9.910 -0.1132 -0.0889  0.3768
  101OSM    H8F10209   1.824   5.033   9.946 -0.6355 -0.9473 -2.1868
  101OSM    H8G10210   2.003   5.043   9.905  0.8146  1.3151  1.8528
  101OSM    C9F10211   1.855   5.165   9.790 -0.3076 -0.4311 -0.0319
  101OSM    H9F10212   1.753   5.206   9.796 -0.6516 -1.4702  2.5861
  101OSM   C10F10213   1.919   5.170   9.675  0.7853 -0.7730 -0.7247
  101OSM   H10F10214   1.876   5.219   9.587  2.1732 -1.9921 -2.1613
  101OSM   C11F10215   2.059   5.113   9.657 -0.6182 -0.3468  0.1372
  101OSM   H11F10216   2.129   5.110   9.744 -1.0424 -0.0085  0.4896
  101OSM   H11G10217   2.110   5.187   9.591  0.2792 -1.5524 -0.5628
  101OSM   C12F10218   2.087   4.975   9.587  0.0676 -0.4222  1.0821
  101OSM   H12F10219   2.080   4.887   9.655 -1.2463 -0.1283  1.3482
  101OSM   H12G10220   2.194   4.970   9.555 -0.6329 -2.3315 -1.1797
  101OSM   C13F10221   1.987   4.952   9.472 -0.5362 -0.0297 -0.2652
  101OSM   H13F10222   1.973   5.046   9.414 -2.1809 -1.9599 -3.2756
  101OSM   H13G10223   1.896   4.936   9.533  0.6957  1.2930  2.0473
  101OSM   C14F10224   2.015   4.827   9.393  0.3361 -0.7478  0.7791
  101OSM   H14F10225   1.996   4.733   9.448  0.0785 -1.5144 -0.5788
  101OSM   H14G10226   2.118   4.822   9.352 -0.2667 -0.6112 -0.7875
  101OSM   C15F10227   1.922   4.822   9.269  0.2444 -0.0739  0.3578
  101OSM   H15F10228   1.954   4.902   9.199 -1.3761  2.3414  2.2242
  101OSM   H15G10229   1.821   4.862   9.290  1.2341  3.5977 -1.1236
  101OSM   C16F10230   1.924   4.675   9.211 -0.6727  0.2161  0.4592
  101OSM   H16F10231   1.936   4.603   9.295  0.4362  0.0211  0.1446
  101OSM   H16G10232   2.024   4.675   9.164 -0.7316 -0.1273  0.3319
  101OSM   C17F10233   1.811   4.624   9.118  0.5488  0.6291 -0.5471
  101OSM   H17F10234   1.796   4.696   9.035 -0.1877  0.2285 -0.7620
  101OSM   H17G10235   1.722   4.626   9.185 -0.1695  0.9009 -1.4911
  101OSM   C18F10236   1.811   4.484   9.058  0.1705  0.4261 -0.0468
  101OSM   H18F10237   1.733   4.473   8.979 -1.0957 -3.8425  1.5402
  101OSM   H18G10238   1.790   4.401   9.128 -1.4923  0.2525 -0.7151
  101OSM   H18H10239   1.906   4.471   9.001  0.9801  2.2617  0.7904
  102OSM      N10240   4.664   1.136  10.582  0.9142  0.0795  0.0060
  102OSM    C1510241   4.783   1.074  10.642  0.1484  1.1843 -0.2362
  102OSM   H15A10242   4.850   1.054  10.560 -0.1737  1.0574 -0.4726
  102OSM   H15B10243   4.751   0.980  10.685  2.2712 -0.0290 -1.1515
  102OSM   H15C10244   4.832   1.123  10.724  0.1945 -1.6045  1.5275
  102OSM    C1410245   4.706   1.264  10.520  0.7995 -0.0202  0.6411
  102OSM   H14A10246   4.732   1.329  10.602  3.0564 -1.3066  1.0372
  102OSM   H14B10247   4.616   1.307  10.478  0.1200 -1.2016  0.8540
  102OSM   H14C10248   4.794   1.251  10.459  1.0966 -3.3514  1.5991
  102OSM    C1310249   4.598   1.060  10.470 -0.0999  0.6765 -0.1513
  102OSM   H13A10250   4.509   1.113  10.438 -1.2797 -0.2739  1.4341
  102OSM   H13B10251   4.555   0.968  10.506 -4.1704  2.2406 -0.4850
  102OSM   H13C10252   4.659   1.034  10.384 -2.6009 -3.9235 -0.8715
  102OSM    C1210253   4.563   1.162  10.694 -0.0020  0.1468 -0.0664
  102OSM   H12A10254   4.620   1.220  10.766  0.4032 -0.5244  0.1555
  102OSM   H12B10255   4.547   1.072  10.750  0.3827 -0.8141 -1.4597
  102OSM    C1110256   4.423   1.238  10.677 -0.4149  0.1843  0.1723
  102OSM   H11A10257   4.439   1.331  10.618  2.9356  1.1172  2.2782
  102OSM   H11B10258   4.378   1.266  10.774 -1.8917  1.7916 -0.9194
  102OSM      P10259   4.271   1.030  10.677 -0.0572  0.2200  0.2875
  102OSM    O1310260   4.377   0.945  10.734 -0.1205 -0.1155 -0.3729
  102OSM    O1410261   4.176   1.095  10.767 -0.1416 -0.6704 -0.0822
  102OSM    O1110262   4.197   0.949  10.565 -0.1622 -0.5037  0.1345
  102OSM    O1210263   4.340   1.145  10.591 -0.1110 -0.0565 -0.9902
  102OSM    C1S10264   4.075   0.989  10.508 -0.3437  0.5209  0.2270
  102OSM    H1S10265   4.054   1.098  10.514 -0.5685  0.4581  0.6396
  102OSM    H1T10266   3.990   0.939  10.559 -1.4561  0.7081 -1.3929
  102OSM     NF10267   3.935   1.028  10.303  0.3234  0.0581 -0.5161
  102OSM    HNF10268   3.855   0.977  10.274  1.3064 -0.3945 -2.6400
  102OSM    C2S10269   4.045   0.954  10.358 -0.6061  0.5854  1.1396
  102OSM    H2S10270   4.136   0.976  10.299 -1.9348  2.2379 -0.4195
  102OSM    C3S10271   4.028   0.799  10.354  0.2571 -0.2486 -0.2000
  102OSM    H3S10272   3.943   0.765  10.418 -0.0837  0.7768 -0.0888
  102OSM     O310273   4.138   0.724  10.402  0.5480 -0.0709 -0.1522
  102OSM    HO310274   4.183   0.786  10.461  0.0033  0.1297  0.0562
  102OSM    C4S10275   4.019   0.750  10.204 -0.5591  0.1811 -0.4543
  102OSM    H4S10276   4.088   0.796  10.132 -1.0253 -0.3070 -1.2321
  102OSM    C5S10277   3.914   0.679  10.155  0.4598 -0.1188 -0.0987
  102OSM    H5S10278   3.827   0.652  10.217  1.5191 -0.1732  1.4110
  102OSM    C6S10279   3.892   0.644  10.008  0.1489  0.5445 -0.0787
  102OSM    H6S10280   3.790   0.658   9.966 -0.3212 -1.3443  0.3443
  102OSM    H6T10281   3.906   0.534   9.997  2.4077  0.6908  0.8120
  102OSM    C7S10282   3.990   0.694   9.903 -0.2584 -0.0954  0.5449
  102OSM    H7S10283   4.095   0.701   9.940 -0.5815  2.5685  1.1615
  102OSM    H7T10284   3.965   0.800   9.880 -0.8938 -0.1793  0.8322
  102OSM    C8S10285   3.988   0.617   9.767  0.4175 -0.4942 -0.1383
  102OSM    H8S10286   3.880   0.601   9.747  0.2213  1.2640 -0.6054
  102OSM    H8T10287   4.050   0.525   9.774  1.7810  0.3498 -0.7468
  102OSM    C9S10288   4.035   0.703   9.648 -0.8873 -0.5000  0.3894
  102OSM    H9S10289   4.144   0.722   9.647 -0.8856 -0.3300 -1.5876
  102OSM    H9T10290   3.980   0.798   9.667 -0.4092 -0.3579  1.0767
  102OSM   C10S10291   3.994   0.640   9.512  0.1810  0.4510 -0.2335
  102OSM   H10S10292   3.884   0.629   9.512  0.2440 -0.2500  0.2415
  102OSM   H10T10293   4.043   0.541   9.500  1.1743  0.7033  1.3671
  102OSM   C11S10294   4.046   0.724   9.382  0.4979  1.0573 -0.8735
  102OSM   H11S10295   4.155   0.701   9.376  0.3853  0.2827 -0.1720
  102OSM   H11T10296   4.028   0.832   9.403  3.3901  1.3021  1.0335
  102OSM   C12S10297   3.970   0.679   9.256 -0.0557  0.8113  0.3162
  102OSM   H12S10298   3.865   0.712   9.272 -0.2339 -0.3890  1.8309
  102OSM   H12T10299   3.971   0.568   9.250 -1.7625  0.7485  0.6450
  102OSM   C13S10300   4.023   0.739   9.124  0.3023  0.5245 -0.2177
  102OSM   H13S10301   4.117   0.685   9.097  0.4702  1.7710 -2.2923
  102OSM   H13T10302   4.049   0.847   9.126  1.7063  0.2133  1.7453
  102OSM   C14S10303   3.929   0.701   9.006  0.4838 -0.6526  0.0611
  102OSM   H14S10304   3.826   0.737   9.028  0.8460  0.5954 -0.2243
  102OSM   H14T10305   3.922   0.591   8.989  1.2778 -0.6458 -0.3682
  102OSM   C15S10306   3.972   0.769   8.874  0.4844  0.5528 -0.0521
  102OSM   H15S10307   4.081   0.752   8.861  0.1254 -1.5982 -0.6818
  102OSM   H15T10308   3.953   0.879   8.876  1.9837  0.8912 -1.7846
  102OSM   C16S10309   3.890   0.713   8.752  0.4872  0.1103 -0.8172
  102OSM   H16S10310   3.786   0.750   8.749  1.1132  1.9279 -1.2969
  102OSM   H16T10311   3.891   0.602   8.751 -1.8041  0.0166  0.7950
  102OSM   C17S10312   3.930   0.776   8.622  0.2899 -0.2477 -0.3682
  102OSM   H17S10313   3.937   0.887   8.630 -1.3290 -0.2194  1.0222
  102OSM   H17T10314   3.854   0.751   8.545  1.3239 -3.0167 -0.5919
  102OSM   C18S10315   4.064   0.726   8.576 -0.1064 -0.5127 -0.5904
  102OSM   H18S10316   4.133   0.767   8.654 -1.1329  1.8272 -0.8281
  102OSM   H18T10317   4.093   0.755   8.473 -0.8468  0.4107 -0.5441
  102OSM   H18U10318   4.055   0.616   8.592 -2.5900 -0.1879  0.7126
  102OSM    C1F10319   3.950   1.151  10.258 -0.1854  0.5582  0.8889
  102OSM     OF10320   4.044   1.218  10.295 -0.2998  0.7841  0.3260
  102OSM    C2F10321   3.847   1.193  10.162  0.1608  0.3037  0.2964
  102OSM    H2F10322   3.787   1.277  10.205 -1.9512 -1.5376  1.1158
  102OSM    H2G10323   3.776   1.109  10.151  3.0896 -2.0517 -1.9468
  102OSM    C3F10324   3.911   1.218  10.034 -0.3771  0.1988  0.0165
  102OSM    H3F10325   3.986   1.299  10.040 -1.1941  1.1475 -1.7124
  102OSM    H3G10326   3.832   1.259   9.967  0.3269  0.2268 -0.8153
  102OSM    C4F10327   3.964   1.084   9.969 -0.0181 -0.1594 -0.1965
  102OSM    H4F10328   3.884   1.007   9.967 -1.8340  1.4160  3.1395
  102OSM    H4G10329   4.050   1.044  10.027  1.8658  0.6884 -2.2557
  102OSM    C5F10330   4.022   1.098   9.827 -0.3194 -0.5051 -0.4501
  102OSM    H5F10331   4.041   0.996   9.788  3.9146 -0.6974  1.5588
  102OSM    H5G10332   4.122   1.147   9.827 -0.7442  0.3992 -1.4405
  102OSM    C6F10333   3.936   1.187   9.738  0.8180  0.1480 -0.2562
  102OSM    H6F10334   3.954   1.294   9.764 -1.1481  0.6737 -0.8546
  102OSM    H6G10335   3.828   1.166   9.752  1.3505 -3.0131 -0.2069
  102OSM    C7F10336   3.981   1.167   9.592 -0.2620  0.3676  0.2893
  102OSM    H7F10337   3.954   1.063   9.565  2.6334 -0.4809  0.3043
  102OSM    H7G10338   4.092   1.160   9.596 -0.3680 -1.2744  1.1932
  102OSM    C8F10339   3.917   1.276   9.501 -0.7142  0.6924 -0.0988
  102OSM    H8F10340   3.955   1.378   9.521 -2.6655  1.7120 -1.3173
  102OSM    H8G10341   3.808   1.281   9.519 -0.4170  0.9352  1.7938
  102OSM    C9F10342   3.947   1.236   9.357  0.1663 -0.0863 -0.4751
  102OSM    H9F10343   3.884   1.153   9.324 -0.0925 -0.0642 -0.0454
  102OSM   C10F10344   4.045   1.278   9.280  0.3405 -0.2271  0.3449
  102OSM   H10F10345   4.043   1.240   9.176  0.7210 -1.7686  0.8664
  102OSM   C11F10346   4.156   1.376   9.312 -0.3125 -0.5822  0.2536
  102OSM   H11F10347   4.255   1.326   9.302  0.0685  0.0578  0.7987
  102OSM   H11G10348   4.155   1.407   9.418  2.1522  2.6171 -0.4790
  102OSM   C12F10349   4.169   1.499   9.227  0.7787  0.2822  0.1398
  102OSM   H12F10350   4.260   1.554   9.258  0.4008  1.3119 -0.5394
  102OSM   H12G10351   4.087   1.574   9.237 -0.1213 -0.7314  0.5620
  102OSM   C13F10352   4.195   1.459   9.081  0.2845  0.4518  0.0350
  102OSM   H13F10353   4.108   1.402   9.040  0.1754  0.9392 -0.4258
  102OSM   H13G10354   4.275   1.382   9.079 -0.5200 -0.4802  1.4418
  102OSM   C14F10355   4.228   1.582   8.995  0.4306 -0.5277 -0.0360
  102OSM   H14F10356   4.312   1.628   9.051  1.9111  0.2993 -2.7353
  102OSM   H14G10357   4.144   1.654   9.001 -0.2245 -1.3336  0.6101
  102OSM   C15F10358   4.271   1.552   8.851  0.0517  0.4739  0.7565
  102OSM   H15F10359   4.191   1.507   8.788  1.6367 -0.3642 -0.7100
  102OSM   H15G10360   4.355   1.480   8.846 -0.4218  0.0204 -2.6604
  102OSM   C16F10361   4.317   1.679   8.790 -0.2564  0.0261 -0.2974
  102OSM   H16F10362   4.373   1.660   8.695 -1.1717 -0.3741 -0.7703
  102OSM   H16G10363   4.390   1.712   8.866 -0.3366  0.1043 -0.2549
  102OSM   C17F10364   4.223   1.800   8.766  0.4155  0.2667  0.2402
  102OSM   H17F10365   4.141   1.785   8.840  0.1999 -1.7669 -0.3615
  102OSM   H17G10366   4.178   1.794   8.665  1.8202 -1.0670 -0.3370
  102OSM   C18F10367   4.283   1.936   8.781  0.1681 -0.2548  0.5363
  102OSM   H18F10368   4.363   1.943   8.704 -1.5499 -1.2148 -1.4319
  102OSM   H18G10369   4.315   1.950   8.886  2.6624 -1.7934  0.0651
  102OSM   H18H10370   4.204   2.014   8.771  0.2953 -0.0259  1.2599
  103OSM      N10371   2.894   4.542  11.230 -0.0526 -0.2534  0.5237
  103OSM    C1510372   3.009   4.442  11.239 -0.0577  0.2391  0.7365
  103OSM   H15A10373   2.970   4.344  11.216 -1.8236  0.7027  1.5555
  103OSM   H15B10374   3.069   4.425  11.328  1.8463 -3.9087 -1.0928
  103OSM   H15C10375   3.081   4.464  11.162  0.4971  0.3636  1.2748
  103OSM    C1410376   2.786   4.521  11.321  0.2728  0.1753 -0.0069
  103OSM   H14A10377   2.750   4.419  11.323  0.1123  0.1948 -1.3443
  103OSM   H14B10378   2.701   4.580  11.290 -0.0420 -1.0124 -1.5379
  103OSM   H14C10379   2.814   4.549  11.422  0.5258  1.2748 -0.3729
  103OSM    C1310380   2.955   4.678  11.253 -0.0027 -0.1138 -1.0327
  103OSM   H13A10381   3.031   4.672  11.329  1.2926  3.0342 -1.9389
  103OSM   H13B10382   2.881   4.755  11.270 -0.0090 -0.5062  0.9425
  103OSM   H13C10383   3.013   4.709  11.167  3.2268  1.6355  1.5572
  103OSM    C1210384   2.838   4.547  11.088 -0.1561  0.9644 -0.1879
  103OSM   H12A10385   2.789   4.643  11.081  0.4721  1.2335 -1.0616
  103OSM   H12B10386   2.762   4.470  11.089 -1.5391  2.2685  0.9635
  103OSM    C1110387   2.926   4.541  10.966 -0.1914 -0.1819  0.0056
  103OSM   H11A10388   2.992   4.630  10.963  1.2231 -1.1736  0.2664
  103OSM   H11B10389   2.874   4.545  10.868  1.1292  1.9960 -0.6771
  103OSM      P10390   2.906   4.279  10.930 -0.1761  0.0398  0.6417
  103OSM    O1310391   3.009   4.171  10.938 -0.8799 -0.1797 -0.2077
  103OSM    O1410392   2.799   4.279  11.027  0.2695  0.3556  0.4114
  103OSM    O1110393   2.843   4.287  10.778  0.3426  0.9802  0.1587
  103OSM    O1210394   2.993   4.412  10.963  0.3454 -0.0815 -0.1086
  103OSM    C1S10395   2.927   4.332  10.672  0.4175 -0.6088 -0.4072
  103OSM    H1S10396   3.023   4.277  10.677  0.6168 -0.1787  0.7415
  103OSM    H1T10397   2.939   4.442  10.680  1.6114 -0.8157  1.3861
  103OSM     NF10398   2.972   4.358  10.431  0.8244  0.0265 -0.3631
  103OSM    HNF10399   2.944   4.448  10.397 -3.0009  0.1349  2.5467
  103OSM    C2S10400   2.876   4.308  10.523 -0.0658 -0.2207 -0.7117
  103OSM    H2S10401   2.862   4.198  10.514 -3.1435 -0.1521  1.4798
  103OSM    C3S10402   2.734   4.372  10.503 -0.1656  0.7864  0.5953
  103OSM    H3S10403   2.723   4.481  10.520 -2.8157  0.5001  1.0908
  103OSM     O310404   2.641   4.306  10.593 -0.0421  0.1689 -0.1644
  103OSM    HO310405   2.707   4.270  10.653  0.0785  2.8067  1.4230
  103OSM    C4S10406   2.691   4.346  10.356 -0.3315 -0.1031  0.0513
  103OSM    H4S10407   2.750   4.392  10.276 -0.9452  0.4002 -0.1244
  103OSM    C5S10408   2.592   4.262  10.323  0.1988 -0.1985  0.7505
  103OSM    H5S10409   2.531   4.221  10.405  0.1772  0.5962  1.1472
  103OSM    C6S10410   2.548   4.231  10.178  0.0692  0.5001  0.3789
  103OSM    H6S10411   2.447   4.273  10.156  1.0474  0.7649 -4.8053
  103OSM    H6T10412   2.555   4.122  10.158 -2.0152 -0.2778  3.2572
  103OSM    C7S10413   2.639   4.296  10.065 -0.3555 -0.2127 -0.4636
  103OSM    H7S10414   2.743   4.274  10.095 -0.6282  1.4332  1.9603
  103OSM    H7T10415   2.628   4.406  10.075  1.0462  0.0785 -1.7586
  103OSM    C8S10416   2.599   4.267   9.920 -0.1868  0.4297 -0.4848
  103OSM    H8S10417   2.493   4.290   9.894 -0.6505 -0.5727  0.3954
  103OSM    H8T10418   2.601   4.156   9.916  0.4251  0.2641  2.2426
  103OSM    C9S10419   2.698   4.319   9.817 -0.2027 -0.1076  0.8399
  103OSM    H9S10420   2.802   4.284   9.836  0.0937 -1.3336 -2.4370
  103OSM    H9T10421   2.700   4.430   9.803  1.3358  0.0383  1.9822
  103OSM   C10S10422   2.652   4.267   9.681 -0.4026  0.5413  0.6086
  103OSM   H10S10423   2.552   4.312   9.662 -0.3477  0.4938  0.2082
  103OSM   H10T10424   2.651   4.156   9.693  2.0239  0.4095 -0.0080
  103OSM   C11S10425   2.757   4.293   9.577  0.0007 -0.6379  0.4752
  103OSM   H11S10426   2.857   4.285   9.625 -0.6715 -1.9091  1.7569
  103OSM   H11T10427   2.761   4.396   9.538 -1.8782 -0.6642  0.1300
  103OSM   C12S10428   2.754   4.197   9.460  0.0870  0.4475  0.0074
  103OSM   H12S10429   2.735   4.093   9.496  2.1700  1.0077  3.1398
  103OSM   H12T10430   2.854   4.199   9.412  0.4996  0.2598  0.8352
  103OSM   C13S10431   2.656   4.251   9.350  0.7025 -0.1762 -0.4948
  103OSM   H13S10432   2.683   4.355   9.322 -0.5774 -0.0627 -1.3658
  103OSM   H13T10433   2.551   4.243   9.387  1.2466  1.6430  1.6804
  103OSM   C14S10434   2.671   4.159   9.220 -0.2604 -0.8651  0.3142
  103OSM   H14S10435   2.623   4.062   9.247 -1.5595  0.1783  1.9483
  103OSM   H14T10436   2.779   4.145   9.197  0.6380 -0.0932  3.5513
  103OSM   C15S10437   2.601   4.229   9.105  0.7104  0.0690  0.7589
  103OSM   H15S10438   2.640   4.330   9.081  1.0684 -0.4326 -0.8896
  103OSM   H15T10439   2.491   4.234   9.119  0.5378 -1.5437  0.1778
  103OSM   C16S10440   2.629   4.143   8.976 -0.2027  0.1360  0.5780
  103OSM   H16S10441   2.612   4.037   9.004  1.0096  0.3232  2.1864
  103OSM   H16T10442   2.738   4.145   8.957 -0.2755  0.4223  0.1572
  103OSM   C17S10443   2.561   4.190   8.848  0.2117 -0.6137  0.1032
  103OSM   H17S10444   2.618   4.160   8.758  1.8120  0.9664  0.5267
  103OSM   H17T10445   2.559   4.301   8.846 -0.8712 -0.6397 -1.0650
  103OSM   C18S10446   2.422   4.129   8.826 -1.0918 -0.4544 -0.7131
  103OSM   H18S10447   2.363   4.166   8.913 -1.4165 -3.0034  0.2440
  103OSM   H18T10448   2.426   4.019   8.820 -0.3831 -0.3956 -1.3713
  103OSM   H18U10449   2.372   4.169   8.735 -0.1380  0.4325 -0.8623
  103OSM    C1F10450   3.093   4.313  10.408  0.4895  0.1805 -0.2765
  103OSM     OF10451   3.133   4.204  10.455 -0.4255 -0.9535  0.0387
  103OSM    C2F10452   3.182   4.404  10.329  0.1582  0.2273  0.3093
  103OSM    H2F10453   3.219   4.480  10.401 -0.3031 -1.3477  2.3157
  103OSM    H2G10454   3.122   4.444  10.244 -1.9242  0.3044  1.7463
  103OSM    C3F10455   3.298   4.325  10.268  1.2581  0.6917 -0.2183
  103OSM    H3F10456   3.258   4.247  10.200 -2.0608  4.1926 -2.7160
  103OSM    H3G10457   3.363   4.275  10.343  2.6547  0.8551 -1.2555
  103OSM    C4F10458   3.401   4.403  10.182 -0.4901 -0.5631  0.1340
  103OSM    H4F10459   3.484   4.338  10.146 -0.1910 -0.1919  0.1569
  103OSM    H4G10460   3.449   4.480  10.246  0.5297 -0.0022 -1.2443
  103OSM    C5F10461   3.338   4.485  10.067  0.8101 -0.4776  0.3509
  103OSM    H5F10462   3.420   4.544  10.021  0.7602 -0.4434  0.3069
  103OSM    H5G10463   3.276   4.563  10.116  0.2461 -0.6595 -0.0717
  103OSM    C6F10464   3.254   4.426   9.956 -0.0424  0.7102  0.3645
  103OSM    H6F10465   3.164   4.374   9.994  0.4869 -0.6822 -0.2100
  103OSM    H6G10466   3.317   4.346   9.911 -0.2901 -0.1975  1.5667
  103OSM    C7F10467   3.212   4.531   9.848 -0.0974  0.4041  0.2584
  103OSM    H7F10468   3.304   4.570   9.801  0.1052 -2.7197 -2.3575
  103OSM    H7G10469   3.165   4.622   9.890  0.4118  2.0529 -2.4845
  103OSM    C8F10470   3.116   4.473   9.736 -0.0576  0.0411  0.1455
  103OSM    H8F10471   3.112   4.556   9.662  0.0779 -0.7263 -0.7396
  103OSM    H8G10472   3.020   4.456   9.789  0.5506 -2.2613  0.6131
  103OSM    C9F10473   3.166   4.351   9.673 -0.8107  0.6144 -0.0203
  103OSM    H9F10474   3.176   4.264   9.739 -1.1678 -0.1974 -1.0230
  103OSM   C10F10475   3.198   4.329   9.543  0.4723  0.3300  0.5006
  103OSM   H10F10476   3.239   4.234   9.505 -0.7012 -0.0475  0.1328
  103OSM   C11F10477   3.174   4.436   9.435 -0.9289  0.6815 -0.5619
  103OSM   H11F10478   3.273   4.461   9.391  0.0975 -2.7552 -0.5568
  103OSM   H11G10479   3.109   4.520   9.467 -1.8333 -0.4381  0.6721
  103OSM   C12F10480   3.105   4.374   9.312 -0.0823 -0.2402 -0.1575
  103OSM   H12F10481   3.060   4.460   9.258 -1.0855 -0.7689 -0.1866
  103OSM   H12G10482   3.012   4.315   9.319 -1.1958  0.8639 -3.4175
  103OSM   C13F10483   3.202   4.300   9.216  0.2480  0.1977 -0.7338
  103OSM   H13F10484   3.260   4.221   9.268 -0.8550 -1.0805 -1.3591
  103OSM   H13G10485   3.264   4.374   9.162  1.5630 -1.9203 -2.3122
  103OSM   C14F10486   3.118   4.229   9.109 -0.3951 -0.5632  0.6023
  103OSM   H14F10487   3.068   4.310   9.051  2.3213  0.7308 -0.1034
  103OSM   H14G10488   3.035   4.171   9.154 -1.6031  1.4875  1.1789
  103OSM   C15F10489   3.191   4.120   9.031 -0.3365 -0.5647  0.4178
  103OSM   H15F10490   3.195   4.021   9.082  0.4840 -1.1313 -0.6879
  103OSM   H15G10491   3.292   4.160   9.009 -1.2727  0.0627 -3.4340
  103OSM   C16F10492   3.127   4.104   8.888 -0.1162  0.6505  0.5696
  103OSM   H16F10493   3.101   4.204   8.846 -1.9050 -0.5152 -1.2450
  103OSM   H16G10494   3.028   4.055   8.886 -0.8660  2.1017  0.5030
  103OSM   C17F10495   3.215   4.019   8.796  0.2912 -0.6205  0.6006
  103OSM   H17F10496   3.316   4.065   8.791  0.2414 -0.4359  1.1877
  103OSM   H17G10497   3.169   4.009   8.695 -0.0355 -7.1805  1.0293
  103OSM   C18F10498   3.232   3.875   8.847  0.2051  0.4976  0.1328
  103OSM   H18F10499   3.310   3.878   8.926  0.4973  1.5231 -0.1707
  103OSM   H18G10500   3.255   3.807   8.762  0.6294  1.1797 -0.3121
  103OSM   H18H10501   3.145   3.838   8.905  1.2605  1.8367  2.7680
  104OSM      N10502   5.011   5.746  10.876 -0.7800  0.4546 -0.7458
  104OSM    C1510503   5.027   5.862  10.781 -0.3570 -0.0340  0.4916
  104OSM   H15A10504   5.083   5.943  10.826  0.1881 -0.1996  0.1296
  104OSM   H15B10505   4.927   5.894  10.754  0.1124  0.4393 -0.8005
  104OSM   H15C10506   5.079   5.819  10.696 -1.3538  0.9930 -0.6729
  104OSM    C1410507   5.133   5.665  10.873 -0.1631 -0.7706  0.7522
  104OSM   H14A10508   5.222   5.720  10.902  0.2864 -0.8335 -0.4588
  104OSM   H14B10509   5.153   5.635  10.772 -0.1937  1.1010  0.1511
  104OSM   H14C10510   5.138   5.580  10.940  0.3227  0.4911  2.4104
  104OSM    C1310511   4.992   5.802  11.019  0.3736  0.1101 -0.1031
  104OSM   H13A10512   4.917   5.879  11.010  0.8785  0.6928  0.5380
  104OSM   H13B10513   5.078   5.857  11.054  2.1803 -2.3329 -0.4287
  104OSM   H13C10514   4.964   5.734  11.098  0.6575 -0.3017 -0.3530
  104OSM    C1210515   4.895   5.658  10.830 -0.1143  0.5119 -0.4386
  104OSM   H12A10516   4.801   5.710  10.835 -0.3561  0.1439 -1.1012
  104OSM   H12B10517   4.886   5.569  10.891  0.6008  0.9351  0.3076
  104OSM    C1110518   4.914   5.596  10.687 -0.2482 -0.5441  0.6359
  104OSM   H11A10519   4.953   5.676  10.622 -1.4234 -0.3792  0.1255
  104OSM   H11B10520   4.814   5.572  10.646  0.8487  0.0460 -2.6746
  104OSM      P10521   4.966   5.341  10.738  0.0753 -0.1280 -0.6337
  104OSM    O1310522   5.071   5.251  10.689 -0.5133 -0.3070  0.2025
  104OSM    O1410523   4.925   5.348  10.881  0.4936  0.0202 -0.3816
  104OSM    O1110524   4.826   5.325  10.650 -0.0106 -0.6602 -0.3844
  104OSM    O1210525   5.007   5.483  10.690  0.0713  0.3727 -0.2844
  104OSM    C1S10526   4.831   5.338  10.512  0.2316  0.0558 -0.0457
  104OSM    H1S10527   4.926   5.375  10.467 -0.5814  0.9109 -1.1374
  104OSM    H1T10528   4.762   5.421  10.484  1.6101  1.3763  0.3165
  104OSM     NF10529   4.800   5.229  10.291 -0.2741 -0.8760  0.3823
  104OSM    HNF10530   4.723   5.279  10.252  0.5797 -0.3108 -0.6255
  104OSM    C2S10531   4.779   5.211  10.439  0.2313 -0.0470 -0.3094
  104OSM    H2S10532   4.846   5.132  10.479  1.2952  0.8286 -0.3305
  104OSM    C3S10533   4.629   5.183  10.479 -0.0989  0.1799  0.4243
  104OSM    H3S10534   4.570   5.268  10.440 -0.7954  0.1016  1.2637
  104OSM     O310535   4.591   5.168  10.611  0.4356  0.0351 -0.1123
  104OSM    HO310536   4.670   5.197  10.658 -0.2231  0.2767  0.8823
  104OSM    C4S10537   4.589   5.058  10.399 -0.4105 -0.9575  0.2778
  104OSM    H4S10538   4.631   4.961  10.431 -0.2912 -0.8089  0.5797
  104OSM    C5S10539   4.508   5.060  10.294 -0.1427  0.0027  0.2391
  104OSM    H5S10540   4.473   5.157  10.256  2.2223  0.7805 -0.1342
  104OSM    C6S10541   4.465   4.940  10.212 -0.5697  0.5056 -0.1250
  104OSM    H6S10542   4.354   4.931  10.208 -0.7333  1.9431  0.7460
  104OSM    H6T10543   4.499   4.846  10.260  0.2790 -0.4876 -2.4991
  104OSM    C7S10544   4.513   4.949  10.069  0.2903 -0.0565  0.4528
  104OSM    H7S10545   4.461   5.030  10.014  0.9238 -0.0037 -0.0746
  104OSM    H7T10546   4.491   4.858  10.009  2.9031 -0.0825 -0.5878
  104OSM    C8S10547   4.663   4.969  10.063  0.3071  0.1097 -0.3504
  104OSM    H8S10548   4.703   4.884  10.123 -0.5181  1.0570  1.6412
  104OSM    H8T10549   4.690   5.063  10.115 -1.1058  0.3995 -0.0832
  104OSM    C9S10550   4.736   4.965   9.926 -0.1890 -0.4699 -0.1825
  104OSM    H9S10551   4.751   4.858   9.900 -2.2920 -0.7017 -0.5988
  104OSM    H9T10552   4.835   5.014   9.936 -0.4300 -0.1638  0.9211
  104OSM   C10S10553   4.651   5.029   9.809 -0.0683  0.6612 -0.3398
  104OSM   H10S10554   4.649   5.139   9.827 -0.9151  0.2522  2.6307
  104OSM   H10T10555   4.545   4.999   9.816  0.3347 -1.1512 -1.3684
  104OSM   C11S10556   4.718   5.003   9.672 -0.1086 -0.3970  0.3696
  104OSM   H11S10557   4.734   4.895   9.653 -1.9488 -0.2198 -3.0001
  104OSM   H11T10558   4.814   5.059   9.672 -1.0570  1.3226 -0.0786
  104OSM   C12S10559   4.633   5.053   9.554 -0.0238 -0.0104 -0.6969
  104OSM   H12S10560   4.611   5.161   9.559 -0.1913 -0.1091  1.5120
  104OSM   H12T10561   4.534   5.002   9.550 -0.8313  1.5917 -2.3816
  104OSM   C13S10562   4.680   5.021   9.410  0.9797  0.3887 -0.1228
  104OSM   H13S10563   4.659   4.919   9.373  0.2688 -0.0828  1.4935
  104OSM   H13T10564   4.789   5.039   9.400  1.1298  0.2098  1.0415
  104OSM   C14S10565   4.596   5.105   9.317 -0.3700 -0.3324  0.1068
  104OSM   H14S10566   4.597   5.212   9.345 -0.4386  0.2780 -2.0643
  104OSM   H14T10567   4.494   5.061   9.329  0.4216 -3.1637 -2.3823
  104OSM   C15S10568   4.629   5.102   9.169 -0.4920  0.8747  0.4714
  104OSM   H15S10569   4.629   4.998   9.132 -2.4993  0.6708  0.9439
  104OSM   H15T10570   4.732   5.145   9.162  0.4842 -1.1904  1.4205
  104OSM   C16S10571   4.532   5.183   9.085 -0.9592 -0.4180 -0.6255
  104OSM   H16S10572   4.584   5.192   8.987  0.7069  0.8370  0.3049
  104OSM   H16T10573   4.518   5.287   9.123  0.2585  0.1340 -1.5853
  104OSM   C17S10574   4.390   5.123   9.051 -0.1380  0.0419 -0.6373
  104OSM   H17S10575   4.319   5.128   9.137 -1.7468 -0.7670 -1.8639
  104OSM   H17T10576   4.412   5.020   9.017  2.2347  0.5774 -0.8862
  104OSM   C18S10577   4.327   5.191   8.927 -0.4906 -0.0130 -0.4633
  104OSM   H18S10578   4.389   5.170   8.837  0.3315 -0.2924  0.1530
  104OSM   H18T10579   4.296   5.294   8.952 -0.2173 -0.6466  2.8491
  104OSM   H18U10580   4.227   5.143   8.917 -1.1881  1.5169 -1.0481
  104OSM    C1F10581   4.916   5.221  10.229 -0.1776 -0.0909 -0.7171
  104OSM     OF10582   5.013   5.160  10.270  0.9001 -0.3848  0.1389
  104OSM    C2F10583   4.933   5.290  10.097 -0.6539 -0.1625 -0.3055
  104OSM    H2F10584   4.948   5.400  10.110 -3.2425  0.6951 -3.3433
  104OSM    H2G10585   4.841   5.277  10.036 -1.0594  1.8439 -0.2128
  104OSM    C3F10586   5.045   5.238  10.006 -0.1203  0.4205  0.3071
  104OSM    H3F10587   5.036   5.134   9.969  1.2183  0.0650  0.8930
  104OSM    H3G10588   5.135   5.237  10.072 -0.1798 -0.9815  0.3865
  104OSM    C4F10589   5.065   5.341   9.886 -0.2057 -0.1225  0.3959
  104OSM    H4F10590   5.173   5.340   9.860 -0.5660 -0.3947 -1.1903
  104OSM    H4G10591   5.018   5.439   9.909 -0.1813  0.3478 -1.3846
  104OSM    C5F10592   4.982   5.291   9.764  1.2388  0.5989 -0.2265
  104OSM    H5F10593   4.874   5.293   9.791  0.7573  0.1724 -1.9951
  104OSM    H5G10594   5.000   5.183   9.745  0.2681  0.4874 -0.5941
  104OSM    C6F10595   5.004   5.368   9.638  0.0395 -0.2755 -0.5619
  104OSM    H6F10596   5.103   5.349   9.591  0.0530 -2.1982  0.1508
  104OSM    H6G10597   4.991   5.472   9.674  0.5680 -0.4565  0.1617
  104OSM    C7F10598   4.898   5.351   9.533  0.5854 -1.0024 -0.1862
  104OSM    H7F10599   4.809   5.409   9.567  3.0193  3.0807 -0.0198
  104OSM    H7G10600   4.860   5.247   9.522 -2.2992  0.0596 -1.4603
  104OSM    C8F10601   4.938   5.407   9.391  0.3497  0.1174 -0.0064
  104OSM    H8F10602   4.973   5.510   9.414  1.3148 -0.8227  3.1924
  104OSM    H8G10603   4.851   5.394   9.324  0.6773 -1.5509 -0.1490
  104OSM    C9F10604   5.045   5.323   9.324 -0.2843  0.4044  0.3745
  104OSM    H9F10605   5.093   5.252   9.393  0.7826 -0.3019 -1.0362
  104OSM   C10F10606   5.091   5.337   9.198  0.1229 -0.1459 -0.1612
  104OSM   H10F10607   5.159   5.265   9.149 -0.8038 -0.0907 -1.5839
  104OSM   C11F10608   5.035   5.437   9.097 -0.2185  0.6563  0.2265
  104OSM   H11F10609   5.115   5.496   9.048 -0.5597  1.8465  1.0307
  104OSM   H11G10610   4.977   5.509   9.159 -0.6346 -1.4517  2.4488
  104OSM   C12F10611   4.934   5.360   9.004 -0.2599  0.3652 -0.1018
  104OSM   H12F10612   4.853   5.323   9.071 -0.1984  0.7056  0.1627
  104OSM   H12G10613   5.003   5.283   8.964  1.6965  0.3444  3.0611
  104OSM   C13F10614   4.878   5.437   8.884 -0.3551 -0.5024 -0.1029
  104OSM   H13F10615   4.808   5.519   8.912  1.1894  0.5410  0.8932
  104OSM   H13G10616   4.819   5.364   8.825 -1.5837 -0.3196  0.8620
  104OSM   C14F10617   4.989   5.510   8.797  0.1476  0.0029 -0.5555
  104OSM   H14F10618   5.074   5.438   8.790 -0.0795 -0.3935  0.5316
  104OSM   H14G10619   5.036   5.588   8.860  0.1800  0.3929 -1.0536
  104OSM   C15F10620   4.933   5.563   8.664 -0.7863 -0.0496 -0.3777
  104OSM   H15F10621   4.878   5.478   8.619  0.4501 -0.8224 -0.4501
  104OSM   H15G10622   5.015   5.603   8.600 -0.0886  0.7102  0.9513
  104OSM   C16F10623   4.835   5.680   8.690  0.2332 -0.4946  0.7463
  104OSM   H16F10624   4.875   5.746   8.770 -0.0582  1.2295 -0.4602
  104OSM   H16G10625   4.743   5.636   8.733 -0.7258  1.1972  0.5186
  104OSM   C17F10626   4.803   5.758   8.559  0.0186  0.4335 -0.4459
  104OSM   H17F10627   4.777   5.680   8.485 -0.7716 -0.0470  0.3156
  104OSM   H17G10628   4.902   5.796   8.525  1.7215 -1.7292  1.6719
  104OSM   C18F10629   4.698   5.872   8.562  0.5541 -0.1878 -0.2063
  104OSM   H18F10630   4.680   5.927   8.467  1.7876 -2.4032 -1.8240
  104OSM   H18G10631   4.726   5.949   8.637 -0.8784  0.2862 -0.1289
  104OSM   H18H10632   4.599   5.830   8.588  0.3543 -0.3519 -1.1991
  105OSM      N10633   1.761   6.310  11.021 -0.3364 -0.2619 -0.6019
  105OSM    C1510634   1.866   6.413  10.989  0.1321  0.6415 -0.5233
  105OSM   H15A10635   1.939   6.363  10.927 -0.5370 -0.7526 -0.2177
  105OSM   H15B10636   1.896   6.482  11.067 -0.7376  0.9723 -0.4769
  105OSM   H15C10637   1.822   6.480  10.916  0.2557 -0.6874 -1.8531
  105OSM    C1410638   1.823   6.208  11.105  0.1192  0.0117 -0.4845
  105OSM   H14A10639   1.849   6.255  11.198 -1.4394  1.3067 -0.6647
  105OSM   H14B10640   1.908   6.168  11.050  0.2982 -0.6109  0.2160
  105OSM   H14C10641   1.759   6.126  11.134  0.6310  0.0095  0.6923
  105OSM    C1310642   1.654   6.381  11.097  0.2121 -0.3605 -0.0507
  105OSM   H13A10643   1.596   6.320  11.166 -2.5695 -1.0292 -2.7326
  105OSM   H13B10644   1.579   6.421  11.030 -1.2999 -0.4644  1.5038
  105OSM   H13C10645   1.699   6.460  11.155 -0.7659 -0.4713  0.8917
  105OSM    C1210646   1.704   6.243  10.894 -0.8320  0.0365  0.0308
  105OSM   H12A10647   1.637   6.167  10.931  0.6033 -1.1870  0.1940
  105OSM   H12B10648   1.787   6.191  10.848 -1.4611 -0.2665 -0.7801
  105OSM    C1110649   1.637   6.339  10.795  0.2832  0.5864 -0.2444
  105OSM   H11A10650   1.629   6.275  10.705 -1.1295 -0.1456  0.3620
  105OSM   H11B10651   1.704   6.424  10.772  1.1450 -0.9502 -4.2514
  105OSM      P10652   1.394   6.281  10.842 -0.5850 -0.3565 -0.0520
  105OSM    O1310653   1.437   6.143  10.875  0.4813  0.1293 -0.6400
  105OSM    O1410654   1.290   6.345  10.923 -0.3308 -0.2852 -0.2890
  105OSM    O1110655   1.341   6.273  10.694  0.5346  0.5119 -0.1703
  105OSM    O1210656   1.512   6.380  10.850 -0.2401 -0.4571 -0.4262
  105OSM    C1S10657   1.340   6.386  10.609 -0.3357  0.5375 -0.1399
  105OSM    H1S10658   1.431   6.448  10.621 -1.1963  1.7987  0.0008
  105OSM    H1T10659   1.245   6.442  10.621 -0.4177  0.0288  1.8755
  105OSM     NF10660   1.364   6.460  10.369  0.4417 -0.0947  0.3225
  105OSM    HNF10661   1.291   6.508  10.321 -1.0789 -3.1808 -0.7532
  105OSM    C2S10662   1.336   6.347  10.457 -0.4487 -0.4215  0.0608
  105OSM    H2S10663   1.417   6.275  10.431 -1.6752 -1.7138 -0.2844
  105OSM    C3S10664   1.200   6.273  10.435 -0.3014  0.4129  0.2985
  105OSM    H3S10665   1.110   6.329  10.469  0.4304  0.7948  1.7122
  105OSM     O310666   1.194   6.146  10.506 -0.3687 -0.2962  0.4736
  105OSM    HO310667   1.266   6.160  10.568  0.0134 -0.2570  0.0341
  105OSM    C4S10668   1.187   6.246  10.292 -0.4358  0.3885  0.2596
  105OSM    H4S10669   1.269   6.190  10.246  0.0924  1.1971  0.1881
  105OSM    C5S10670   1.092   6.299  10.218 -0.7626  0.0042 -0.4121
  105OSM    H5S10671   1.026   6.376  10.261  1.4346  2.1595 -0.6454
  105OSM    C6S10672   1.097   6.270  10.067  0.0514 -0.2148 -0.5206
  105OSM    H6S10673   1.001   6.225  10.034 -0.0790 -0.9281  0.7349
  105OSM    H6T10674   1.183   6.206  10.038  2.1188  2.7064 -1.2046
  105OSM    C7S10675   1.104   6.404   9.987  0.0638  0.2678 -0.0328
  105OSM    H7S10676   1.206   6.446  10.001  0.7223 -1.4358  0.5809
  105OSM    H7T10677   1.037   6.478  10.034 -0.3344  0.0273 -0.2183
  105OSM    C8S10678   1.078   6.395   9.838 -0.3094 -0.0913  0.5614
  105OSM    H8S10679   1.068   6.500   9.803 -0.9323  0.0690  1.1993
  105OSM    H8T10680   0.984   6.339   9.818  0.0575 -0.7061  0.5077
  105OSM    C9S10681   1.179   6.315   9.750  0.8385  0.4962 -1.0878
  105OSM    H9S10682   1.191   6.213   9.793 -0.6337  1.0555  0.7789
  105OSM    H9T10683   1.274   6.368   9.774  1.5010 -0.8555 -0.6203
  105OSM   C10S10684   1.150   6.314   9.601  0.0980  0.1839  0.0519
  105OSM   H10S10685   1.049   6.359   9.588  0.1375  0.0854 -0.5956
  105OSM   H10T10686   1.151   6.205   9.582  2.0102  0.1819  0.0076
  105OSM   C11S10687   1.245   6.404   9.511  1.0997  0.7125  0.7688
  105OSM   H11S10688   1.352   6.375   9.525  1.0961  1.1317  1.7797
  105OSM   H11T10689   1.239   6.512   9.537 -1.6691  0.6132  0.8163
  105OSM   C12S10690   1.205   6.380   9.363 -0.3971 -0.2327 -0.2513
  105OSM   H12S10691   1.263   6.451   9.299  1.2913 -1.2067  0.1334
  105OSM   H12T10692   1.098   6.408   9.355 -0.5223 -1.0769 -1.9228
  105OSM   C13S10693   1.220   6.235   9.316  1.0948  0.1254  0.3138
  105OSM   H13S10694   1.143   6.172   9.368  0.4046  0.0650 -0.7535
  105OSM   H13T10695   1.317   6.190   9.347  0.7249 -0.1820  1.0728
  105OSM   C14S10696   1.184   6.217   9.165 -0.2434  1.0015  0.6826
  105OSM   H14S10697   1.256   6.279   9.106 -1.1277 -0.6111 -2.3214
  105OSM   H14T10698   1.086   6.260   9.134  0.6895  0.9757 -2.7803
  105OSM   C15S10699   1.201   6.071   9.119  0.3390  0.2614  0.8770
  105OSM   H15S10700   1.152   6.011   9.198  0.0300 -1.7866 -0.7949
  105OSM   H15T10701   1.304   6.030   9.122  0.8615  1.3057 -1.1133
  105OSM   C16S10702   1.138   6.041   8.980  0.3344 -0.5132  0.4526
  105OSM   H16S10703   1.184   6.090   8.891 -1.6956  0.2622 -0.2368
  105OSM   H16T10704   1.033   6.076   8.979  0.3390 -0.3989 -2.1171
  105OSM   C17S10705   1.134   5.894   8.948  0.0838 -0.1228  0.2802
  105OSM   H17S10706   1.117   5.833   9.039  1.7939 -3.1387 -1.2857
  105OSM   H17T10707   1.231   5.853   8.914 -0.8656 -2.5425  0.2475
  105OSM   C18S10708   1.026   5.868   8.843  0.1768 -0.6796 -0.1574
  105OSM   H18S10709   0.934   5.923   8.875 -0.8829 -3.0311  1.0618
  105OSM   H18T10710   0.994   5.763   8.831  0.3305 -0.6091 -1.2833
  105OSM   H18U10711   1.054   5.910   8.744 -2.3868  2.1501  0.1295
  105OSM    C1F10712   1.480   6.511  10.360  1.0848  0.2069 -0.0311
  105OSM     OF10713   1.575   6.474  10.429 -0.3220  0.4805  0.1096
  105OSM    C2F10714   1.497   6.622  10.253  0.0138 -0.2756  0.0284
  105OSM    H2F10715   1.608   6.632  10.246 -0.0088 -1.0824 -2.2697
  105OSM    H2G10716   1.456   6.718  10.292 -0.3749 -0.9225  1.2467
  105OSM    C3F10717   1.429   6.586  10.121  0.2001  0.0760 -0.6080
  105OSM    H3F10718   1.322   6.572  10.146 -0.2022  1.1360 -1.6377
  105OSM    H3G10719   1.462   6.485  10.091 -1.6778 -1.2557  1.5138
  105OSM    C4F10720   1.449   6.704  10.018 -0.0524 -0.1999 -0.8305
  105OSM    H4F10721   1.555   6.691   9.987  0.7333 -0.8087  1.8257
  105OSM    H4G10722   1.442   6.800  10.074 -0.6707 -0.9428  0.4206
  105OSM    C5F10723   1.355   6.705   9.906  0.4411 -0.5191  0.1101
  105OSM    H5F10724   1.254   6.682   9.945  0.2237 -1.0044 -0.6954
  105OSM    H5G10725   1.368   6.614   9.844 -1.7841 -0.8216  0.0130
  105OSM    C6F10726   1.341   6.842   9.822  0.5699  0.4171 -0.5892
  105OSM    H6F10727   1.268   6.818   9.742 -1.0512  0.1456  0.9049
  105OSM    H6G10728   1.442   6.873   9.789  1.0275  0.6033  0.8906
  105OSM    C7F10729   1.286   6.961   9.903 -0.4040  0.2449 -0.2805
  105OSM    H7F10730   1.335   6.974  10.002 -2.9110 -0.6767  1.1553
  105OSM    H7G10731   1.179   6.935   9.921  0.1311 -0.7247  1.8093
  105OSM    C8F10732   1.292   7.087   9.806 -0.4751  0.9224 -0.5265
  105OSM    H8F10733   1.396   7.111   9.775 -0.5204  0.9168 -0.6837
  105OSM    H8G10734   1.267   7.172   9.873 -0.3486  0.3836  0.2257
  105OSM    C9F10735   1.208   7.087   9.686  0.3794 -0.2100  0.2049
  105OSM    H9F10736   1.101   7.072   9.710  1.1449 -1.2796  3.5111
  105OSM   C10F10737   1.247   7.104   9.559 -0.6557 -0.5944 -0.1291
  105OSM   H10F10738   1.171   7.115   9.480 -1.6012 -2.5446  0.4648
  105OSM   C11F10739   1.382   7.126   9.505  0.4957  0.1232  0.0516
  105OSM   H11F10740   1.461   7.102   9.579  1.1224  0.4330 -0.5130
  105OSM   H11G10741   1.393   7.231   9.470  0.9174 -0.2396 -0.9505
  105OSM   C12F10742   1.422   7.032   9.391  0.3418  0.6795  0.0077
  105OSM   H12F10743   1.451   6.933   9.433  1.3899  0.9540 -0.0223
  105OSM   H12G10744   1.518   7.062   9.343  0.2551 -1.5185 -1.7292
  105OSM   C13F10745   1.326   7.049   9.273 -0.3126  0.5322  0.3604
  105OSM   H13F10746   1.298   7.155   9.259 -1.2701  0.3747  1.0105
  105OSM   H13G10747   1.231   6.994   9.291  0.0423 -2.2631 -4.4284
  105OSM   C14F10748   1.389   6.993   9.142 -0.2594  0.4470  0.3902
  105OSM   H14F10749   1.493   7.030   9.126  0.0234 -0.2319  0.6234
  105OSM   H14G10750   1.319   7.020   9.059 -1.9564 -0.7454  1.3754
  105OSM   C15F10751   1.383   6.841   9.134  0.7792 -0.3278 -0.5239
  105OSM   H15F10752   1.277   6.808   9.139  0.3609  1.1774  1.7067
  105OSM   H15G10753   1.423   6.803   9.231  1.8571  0.8358 -0.4981
  105OSM   C16F10754   1.453   6.774   9.023  0.3554 -0.8480 -0.1411
  105OSM   H16F10755   1.464   6.665   9.042  1.7638 -1.1065 -2.1641
  105OSM   H16G10756   1.557   6.810   9.009  1.0866 -2.4269  0.9323
  105OSM   C17F10757   1.378   6.798   8.886  0.4144  0.1402 -0.8678
  105OSM   H17F10758   1.366   6.908   8.883 -0.3521  0.0961  0.1921
  105OSM   H17G10759   1.275   6.759   8.900  1.1604 -0.7188  3.4513
  105OSM   C18F10760   1.442   6.736   8.760 -0.1364  0.1619  0.5493
  105OSM   H18F10761   1.478   6.632   8.768  0.7813  0.2616 -1.6874
  105OSM   H18G10762   1.537   6.788   8.738  0.8119 -0.9400  1.8544
  105OSM   H18H10763   1.380   6.736   8.668  0.7872 -1.3178 -0.1007
  106OSM      N10764   6.467   5.359  11.222 -0.0566  0.2291  0.0859
  106OSM    C1510765   6.531   5.454  11.320 -0.3681  0.6291  0.7474
  106OSM   H15A10766   6.482   5.456  11.416  1.3118 -0.2909  1.6708
  106OSM   H15B10767   6.552   5.549  11.272 -0.2515  0.9194  1.3551
  106OSM   H15C10768   6.631   5.419  11.340 -0.1913  0.5261 -0.2545
  106OSM    C1410769   6.475   5.217  11.275  0.0795  0.2639  0.4109
  106OSM   H14A10770   6.409   5.148  11.224 -0.1979  0.3819  0.6037
  106OSM   H14B10771   6.435   5.218  11.375 -2.5732 -1.0135 -0.5228
  106OSM   H14C10772   6.577   5.181  11.279  0.9656  2.6769  1.1284
  106OSM    C1310773   6.326   5.391  11.227 -0.7867  0.9560  0.1733
  106OSM   H13A10774   6.276   5.327  11.156  2.3668 -1.5580 -0.0149
  106OSM   H13B10775   6.314   5.494  11.196 -1.1449  0.6849 -0.6092
  106OSM   H13C10776   6.288   5.375  11.327  0.8515 -1.8705  0.4546
  106OSM    C1210777   6.520   5.371  11.081 -0.7457 -0.2449  0.1257
  106OSM   H12A10778   6.474   5.294  11.020 -1.4804  0.6122 -0.4176
  106OSM   H12B10779   6.628   5.361  11.088 -0.3696  1.6665 -1.7364
  106OSM    C1110780   6.485   5.497  11.005  0.0550  0.2996  0.4086
  106OSM   H11A10781   6.554   5.513  10.920 -0.7303 -1.2999 -0.5947
  106OSM   H11B10782   6.472   5.585  11.070 -1.8807 -1.0254  1.9475
  106OSM      P10783   6.270   5.569  10.864  0.3538 -0.0643 -0.0255
  106OSM    O1310784   6.158   5.493  10.803  0.2884  0.2405 -0.6275
  106OSM    O1410785   6.233   5.684  10.948  0.0744  0.3875 -0.3192
  106OSM    O1110786   6.365   5.625  10.758  0.5719  0.0872  0.3394
  106OSM    O1210787   6.358   5.466  10.941 -0.3397 -0.3748 -0.2453
  106OSM    C1S10788   6.420   5.535  10.660  0.8669 -0.2611 -0.2475
  106OSM    H1S10789   6.345   5.460  10.627  0.3729  0.7193 -1.4243
  106OSM    H1T10790   6.504   5.471  10.696  0.4000 -0.0770  1.1973
  106OSM     NF10791   6.472   5.545  10.414 -0.0543  0.1572  0.2612
  106OSM    HNF10792   6.564   5.515  10.388 -0.3121  0.6732 -1.3312
  106OSM    C2S10793   6.451   5.626  10.535 -0.2529  0.0345  1.0459
  106OSM    H2S10794   6.359   5.686  10.518  0.0481 -0.2614 -2.5049
  106OSM    C3S10795   6.559   5.734  10.560 -0.4875  0.0060 -0.7198
  106OSM    H3S10796   6.649   5.692  10.611 -1.4246 -2.4111 -0.8848
  106OSM     O310797   6.514   5.829  10.658  0.2451  0.9318 -0.8167
  106OSM    HO310798   6.448   5.776  10.704 -0.4542  3.4493  1.2735
  106OSM    C4S10799   6.599   5.818  10.436  0.3244  0.4403  0.1874
  106OSM    H4S10800   6.508   5.834  10.376 -0.3151  2.9151  1.6584
  106OSM    C5S10801   6.722   5.849  10.393 -0.8188  0.0697  1.1122
  106OSM    H5S10802   6.808   5.822  10.456  0.5624 -0.0802 -0.7674
  106OSM    C6S10803   6.777   5.923  10.271  0.2144 -0.1830 -0.4187
  106OSM    H6S10804   6.876   5.966  10.297 -0.7886  0.3994  2.9167
  106OSM    H6T10805   6.707   6.008  10.256  1.0340  1.6380  4.2693
  106OSM    C7S10806   6.783   5.835  10.142  0.2195 -0.4588  0.1965
  106OSM    H7S10807   6.676   5.821  10.113  0.3053  1.4494 -1.2202
  106OSM    H7T10808   6.816   5.730  10.159 -2.0488 -1.0352  1.5837
  106OSM    C8S10809   6.849   5.904  10.018 -0.0288  0.4158 -0.0283
  106OSM    H8S10810   6.952   5.865  10.000  0.4599  2.1819 -1.3918
  106OSM    H8T10811   6.857   6.015  10.025  1.5685  0.2873  0.6820
  106OSM    C9S10812   6.761   5.882   9.889 -0.3215 -0.0244 -0.8343
  106OSM    H9S10813   6.656   5.912   9.910 -1.3633 -3.4097 -0.6429
  106OSM    H9T10814   6.764   5.772   9.873 -0.8213 -0.2308  0.3356
  106OSM   C10S10815   6.833   5.944   9.765  0.1671  0.2442 -0.3976
  106OSM   H10S10816   6.922   5.887   9.730 -0.1542  0.2501 -1.2454
  106OSM   H10T10817   6.860   6.046   9.799 -0.9373 -0.0929  1.7007
  106OSM   C11S10818   6.742   5.961   9.648  0.1247 -0.0908 -0.1676
  106OSM   H11S10819   6.633   5.970   9.670 -0.1268  0.8271 -1.6521
  106OSM   H11T10820   6.744   5.870   9.584  1.2243 -0.3972  0.2893
  106OSM   C12S10821   6.778   6.080   9.558 -0.2603  0.0966 -0.2232
  106OSM   H12S10822   6.887   6.091   9.537 -0.6857  1.6735 -1.8261
  106OSM   H12T10823   6.754   6.181   9.598 -0.1325  0.4272 -0.9614
  106OSM   C13S10824   6.699   6.079   9.425 -0.0525  0.5317 -0.1540
  106OSM   H13S10825   6.592   6.097   9.451 -0.8329 -2.4438 -0.9575
  106OSM   H13T10826   6.713   5.986   9.366 -0.1860  2.0770 -2.7916
  106OSM   C14S10827   6.747   6.186   9.328 -0.1353  0.3083 -0.0451
  106OSM   H14S10828   6.849   6.161   9.292  0.0937  2.0388 -0.6643
  106OSM   H14T10829   6.756   6.282   9.383 -2.0079  0.9897 -0.8518
  106OSM   C15S10830   6.657   6.205   9.210 -0.4460  0.4947 -0.1799
  106OSM   H15S10831   6.558   6.222   9.257 -0.7461 -1.4305 -0.0512
  106OSM   H15T10832   6.654   6.105   9.161 -1.1183 -0.7832  2.2922
  106OSM   C16S10833   6.695   6.329   9.122 -0.1662  0.3955  0.7399
  106OSM   H16S10834   6.801   6.322   9.088 -0.6791  2.3426 -1.6385
  106OSM   H16T10835   6.699   6.424   9.180 -1.6430  0.6685  0.4483
  106OSM   C17S10836   6.607   6.349   9.000  0.6772  0.8869  0.9734
  106OSM   H17S10837   6.643   6.444   8.957 -0.0431  1.6149  1.9453
  106OSM   H17T10838   6.504   6.373   9.035 -0.2566  0.0134 -0.9674
  106OSM   C18S10839   6.611   6.230   8.911  0.2650 -0.5423  0.3996
  106OSM   H18S10840   6.712   6.205   8.871 -0.3746  0.4786 -2.0564
  106OSM   H18T10841   6.561   6.270   8.820 -0.6995  1.1903  1.6339
  106OSM   H18U10842   6.561   6.144   8.959  1.9680 -1.9488 -0.2003
  106OSM    C1F10843   6.377   5.480  10.337  0.8801  0.4683 -0.0934
  106OSM     OF10844   6.259   5.470  10.369  0.2986 -0.5052 -0.3190
  106OSM    C2F10845   6.425   5.407  10.218 -0.2664  0.0720  0.0842
  106OSM    H2F10846   6.418   5.298  10.234  2.5711 -0.1623  0.3463
  106OSM    H2G10847   6.534   5.416  10.196 -0.0070 -1.8302  0.4207
  106OSM    C3F10848   6.331   5.448  10.102 -0.1635 -0.0541 -0.2157
  106OSM    H3F10849   6.227   5.457  10.140  0.7336  2.9697  1.9510
  106OSM    H3G10850   6.324   5.367  10.027  0.6570 -1.3473  1.0559
  106OSM    C4F10851   6.384   5.581  10.046  0.8726 -0.2257  0.7371
  106OSM    H4F10852   6.415   5.658  10.120  1.1963  1.6042 -1.2070
  106OSM    H4G10853   6.303   5.622   9.982  1.0065 -1.5801 -0.3603
  106OSM    C5F10854   6.502   5.565   9.957 -0.2140 -0.4795 -0.3706
  106OSM    H5F10855   6.567   5.478   9.984  0.0433 -0.0149  0.5263
  106OSM    H5G10856   6.566   5.656   9.958  2.0433 -1.9077 -2.1845
  106OSM    C6F10857   6.444   5.555   9.811 -0.4558 -0.6504 -0.2892
  106OSM    H6F10858   6.369   5.637   9.802 -1.0601 -0.9568  1.4891
  106OSM    H6G10859   6.389   5.458   9.811 -2.0483  0.1857  1.2267
  106OSM    C7F10860   6.549   5.560   9.704 -0.0885 -0.0468 -0.6205
  106OSM    H7F10861   6.629   5.484   9.717  0.6692  1.0232  1.3759
  106OSM    H7G10862   6.597   5.661   9.704 -0.4356  0.1225 -1.2660
  106OSM    C8F10863   6.490   5.525   9.567 -0.0168  0.4436  0.3703
  106OSM    H8F10864   6.440   5.426   9.571  1.8114 -0.8082 -3.2761
  106OSM    H8G10865   6.577   5.518   9.498 -2.0406 -0.9210 -2.2181
  106OSM    C9F10866   6.395   5.628   9.502 -0.4086  0.1993 -0.0821
  106OSM    H9F10867   6.345   5.688   9.580  0.5814 -0.8314  1.4210
  106OSM   C10F10868   6.380   5.661   9.380 -0.5028  0.1558 -0.0760
  106OSM   H10F10869   6.322   5.753   9.364  1.0776  1.4067  1.0193
  106OSM   C11F10870   6.447   5.613   9.254  0.4968  0.1199 -0.9852
  106OSM   H11F10871   6.378   5.591   9.169 -0.0645 -1.6037 -0.1355
  106OSM   H11G10872   6.493   5.515   9.278 -0.6879 -0.5536 -1.3374
  106OSM   C12F10873   6.562   5.705   9.200  0.0191 -0.7331  0.4569
  106OSM   H12F10874   6.614   5.760   9.281  5.5720  0.4843 -3.3111
  106OSM   H12G10875   6.524   5.797   9.151 -0.9935 -1.5143 -0.2789
  106OSM   C13F10876   6.678   5.641   9.120  0.7338  0.9419 -0.5837
  106OSM   H13F10877   6.721   5.553   9.173 -1.3563  0.0620 -0.2391
  106OSM   H13G10878   6.758   5.718   9.114  3.1926 -1.2007  2.1221
  106OSM   C14F10879   6.618   5.573   8.991 -0.1515  0.0774 -0.9407
  106OSM   H14F10880   6.556   5.646   8.934  0.3260  0.5638 -0.8462
  106OSM   H14G10881   6.560   5.491   9.039 -0.5673  0.5512 -0.6284
  106OSM   C15F10882   6.729   5.520   8.905 -0.0422 -0.2530  0.1420
  106OSM   H15F10883   6.781   5.448   8.972  1.1276 -1.2908 -1.7861
  106OSM   H15G10884   6.800   5.595   8.866 -1.8597  0.8635 -1.1552
  106OSM   C16F10885   6.670   5.441   8.789  0.3615 -0.1876 -0.6271
  106OSM   H16F10886   6.612   5.508   8.721  1.5199  0.6014 -0.8639
  106OSM   H16G10887   6.597   5.365   8.823  0.0865  0.0158 -0.7611
  106OSM   C17F10888   6.776   5.380   8.696  0.1730 -0.2575 -0.2137
  106OSM   H17F10889   6.717   5.327   8.619 -0.2982  1.4918 -1.1058
  106OSM   H17G10890   6.841   5.300   8.736  0.5977 -0.4160 -1.2017
  106OSM   C18F10891   6.879   5.485   8.647  0.0753 -0.3590 -0.4551
  106OSM   H18F10892   6.925   5.455   8.550 -1.0801  0.0376 -1.1490
  106OSM   H18G10893   6.961   5.498   8.721 -0.2729  1.4167 -0.3264
  106OSM   H18H10894   6.827   5.581   8.625 -1.8608 -0.7985  1.8997
  107OSM      N10895   2.408   4.270  10.910 -0.7902 -0.6186  0.4946
  107OSM    C1510896   2.288   4.298  10.982  0.7398  0.3072 -0.6523
  107OSM   H15A10897   2.295   4.370  11.062 -2.5365 -0.6242  0.6662
  107OSM   H15B10898   2.254   4.207  11.029 -3.1660  0.0465 -3.4201
  107OSM   H15C10899   2.199   4.334  10.932 -2.0422 -0.6244  3.2114
  107OSM    C1410900   2.430   4.391  10.830 -0.7692  0.3164  0.1087
  107OSM   H14A10901   2.411   4.486  10.879  0.4852  0.7673 -0.2406
  107OSM   H14B10902   2.365   4.394  10.743  0.0504  1.8848 -0.4912
  107OSM   H14C10903   2.531   4.389  10.793 -0.3928  0.1086  1.1361
  107OSM    C1310904   2.516   4.255  11.012  0.3420 -0.1896  0.2670
  107OSM   H13A10905   2.522   4.332  11.087 -0.5592 -2.9348  3.3922
  107OSM   H13B10906   2.613   4.237  10.968 -0.9660 -1.5818 -2.3171
  107OSM   H13C10907   2.507   4.168  11.075 -1.3118  0.5122  1.0543
  107OSM    C1210908   2.398   4.148  10.830  0.6926  0.4934  0.0197
  107OSM   H12A10909   2.492   4.127  10.780 -0.0997  0.1753 -1.3738
  107OSM   H12B10910   2.329   4.163  10.748 -0.0202  2.0922  0.8823
  107OSM    C1110911   2.340   4.024  10.892  0.4921  0.3113  0.1709
  107OSM   H11A10912   2.320   3.943  10.818 -0.9073  1.7174 -1.0413
  107OSM   H11B10913   2.235   4.034  10.926 -0.0361 -0.3719 -1.1666
  107OSM      P10914   2.561   3.883  10.936  0.3858  0.1013  0.0111
  107OSM    O1310915   2.649   3.875  11.054 -0.4364  0.0143 -0.1206
  107OSM    O1410916   2.526   3.760  10.867  0.3090  0.3134 -0.3791
  107OSM    O1110917   2.621   3.978  10.828 -0.0019  0.0565  0.5381
  107OSM    O1210918   2.437   3.963  10.984  0.7152 -0.1739 -0.2937
  107OSM    C1S10919   2.749   3.946  10.765 -0.4486 -0.4176 -0.5084
  107OSM    H1S10920   2.827   3.911  10.835 -0.4894 -0.5935 -0.5496
  107OSM    H1T10921   2.792   4.037  10.719 -0.4217 -0.2547 -0.1576
  107OSM     NF10922   2.868   3.813  10.610 -0.0244  0.1296 -0.4077
  107OSM    HNF10923   2.894   3.862  10.528 -0.3317  0.4624 -0.3125
  107OSM    C2S10924   2.737   3.840  10.650 -0.2098  0.9278 -0.2603
  107OSM    H2S10925   2.682   3.758  10.701 -0.2398  0.8602 -0.4031
  107OSM    C3S10926   2.649   3.894  10.535  0.8849  0.1411 -0.0586
  107OSM    H3S10927   2.685   3.997  10.514  1.2012 -0.1397 -0.9389
  107OSM     O310928   2.505   3.912  10.563  0.1583 -0.6340  0.2831
  107OSM    HO310929   2.514   3.965  10.643  3.1600 -0.9055  0.2754
  107OSM    C4S10930   2.658   3.810  10.416 -0.7564  0.9136  0.8163
  107OSM    H4S10931   2.710   3.859  10.332  3.1100  1.3152  3.1871
  107OSM    C5S10932   2.609   3.682  10.411  0.5075  0.3293  0.0354
  107OSM    H5S10933   2.582   3.633  10.506  1.4475 -3.4295 -1.4409
  107OSM    C6S10934   2.617   3.584  10.293  0.5357 -0.0287  0.6873
  107OSM    H6S10935   2.515   3.573  10.251  1.2268 -1.8595 -0.6553
  107OSM    H6T10936   2.648   3.485  10.333 -0.3745 -0.1226  1.1734
  107OSM    C7S10937   2.705   3.629  10.173 -0.6379  0.4753 -0.1946
  107OSM    H7S10938   2.815   3.629  10.190 -0.4396  3.2374 -0.9591
  107OSM    H7T10939   2.674   3.734  10.152 -3.8845 -0.1238  0.9799
  107OSM    C8S10940   2.679   3.534  10.050  0.2483  0.0997  0.0649
  107OSM    H8S10941   2.577   3.554  10.010  0.8214 -0.2667 -1.6407
  107OSM    H8T10942   2.657   3.434  10.094 -2.3527  0.2468 -0.7288
  107OSM    C9S10943   2.773   3.534   9.932  0.0316 -0.2958 -0.1964
  107OSM    H9S10944   2.878   3.513   9.961 -0.6654 -2.6526  0.8667
  107OSM    H9T10945   2.771   3.641   9.902  1.9471  0.4637  2.0575
  107OSM   C10S10946   2.728   3.444   9.823 -0.5625  0.9664  0.2636
  107OSM   H10S10947   2.625   3.472   9.790 -1.5296  0.9971  3.0423
  107OSM   H10T10948   2.735   3.340   9.864 -1.8168  2.1847  3.9573
  107OSM   C11S10949   2.818   3.457   9.698  0.0045  0.0650  0.2971
  107OSM   H11S10950   2.925   3.445   9.728 -0.1502 -0.3759  0.6728
  107OSM   H11T10951   2.809   3.556   9.648  1.9761  0.2742  0.2640
  107OSM   C12S10952   2.785   3.349   9.599  0.0642 -0.1909  0.1857
  107OSM   H12S10953   2.678   3.357   9.572 -0.3226 -0.4214  1.5833
  107OSM   H12T10954   2.806   3.247   9.639 -0.4751 -1.0598 -1.6349
  107OSM   C13S10955   2.873   3.371   9.478 -0.2078 -0.0016  0.0502
  107OSM   H13S10956   2.972   3.383   9.527 -0.5153  0.1117  0.6551
  107OSM   H13T10957   2.844   3.468   9.433  1.8302  0.9682  0.7211
  107OSM   C14S10958   2.864   3.252   9.376 -0.1082 -0.2289 -0.5202
  107OSM   H14S10959   2.870   3.158   9.435  0.4173 -0.2447 -0.5986
  107OSM   H14T10960   2.951   3.260   9.308 -0.9643 -0.7906 -1.7034
  107OSM   C15S10961   2.734   3.245   9.290  0.5654 -0.8465  0.2756
  107OSM   H15S10962   2.705   3.352   9.278  1.0639 -0.8336 -0.9989
  107OSM   H15T10963   2.651   3.195   9.343  1.1785 -0.4969  1.5951
  107OSM   C16S10964   2.746   3.177   9.156 -0.9307 -0.1802 -0.2034
  107OSM   H16S10965   2.821   3.231   9.095 -2.2313  0.2104 -1.5352
  107OSM   H16T10966   2.655   3.202   9.097  0.1855  1.4107 -1.3553
  107OSM   C17S10967   2.776   3.033   9.165 -0.0664  0.9069 -0.3910
  107OSM   H17S10968   2.705   2.969   9.222  0.8346  0.7629  0.6195
  107OSM   H17T10969   2.867   3.025   9.229  0.6628 -1.3074 -1.5838
  107OSM   C18S10970   2.794   2.961   9.035 -0.0647  0.0238  0.4365
  107OSM   H18S10971   2.713   2.992   8.965  0.1884  0.0630  0.1578
  107OSM   H18T10972   2.788   2.850   9.035 -0.3895 -0.0597 -2.7863
  107OSM   H18U10973   2.893   2.990   8.993  0.5051  0.1283  1.8133
  107OSM    C1F10974   2.952   3.738  10.681 -0.8805 -1.1618  0.1065
  107OSM     OF10975   2.914   3.684  10.782  0.1597  0.4181  0.4671
  107OSM    C2F10976   3.090   3.717  10.628 -0.7598  0.3847 -0.0983
  107OSM    H2F10977   3.160   3.739  10.711 -1.0561  1.6182 -0.1547
  107OSM    H2G10978   3.113   3.795  10.552  0.8743 -0.4548 -0.5029
  107OSM    C3F10979   3.114   3.578  10.562  0.1243 -0.2054 -0.4177
  107OSM    H3F10980   3.104   3.502  10.643 -0.3151  0.1473 -0.1352
  107OSM    H3G10981   3.208   3.573  10.504  0.9361 -0.2785  0.8721
  107OSM    C4F10982   3.013   3.531  10.457  0.2646  0.1617  0.1402
  107OSM    H4F10983   3.019   3.594  10.366 -0.2444 -1.0043 -0.7173
  107OSM    H4G10984   2.907   3.529  10.490 -0.0780  1.1227 -0.8585
  107OSM    C5F10985   3.046   3.394  10.402  0.6255  0.2215 -0.4620
  107OSM    H5F10986   3.034   3.324  10.487  0.8934 -0.0983 -0.6883
  107OSM    H5G10987   3.152   3.402  10.368  0.6768  0.2184 -0.3031
  107OSM    C6F10988   2.951   3.341  10.291  0.2583 -0.3694 -0.1147
  107OSM    H6F10989   2.846   3.379  10.297  0.4714  0.2220 -0.0979
  107OSM    H6G10990   2.951   3.231  10.304  0.8069 -0.2350  1.1203
  107OSM    C7F10991   3.000   3.366  10.151  0.1634 -1.4721  1.0721
  107OSM    H7F10992   3.027   3.471  10.130 -2.5560 -0.9704 -0.3071
  107OSM    H7G10993   2.914   3.324  10.094  0.3756 -0.2788 -0.1673
  107OSM    C8F10994   3.122   3.267  10.121 -0.3304  0.5764 -0.7101
  107OSM    H8F10995   3.101   3.162  10.152 -1.1303  0.4015 -1.7803
  107OSM    H8G10996   3.212   3.305  10.176 -0.6638  1.2845 -0.6488
  107OSM    C9F10997   3.142   3.263   9.974 -0.9251  0.4530  0.4325
  107OSM    H9F10998   3.223   3.328   9.938  0.5244 -1.1253  0.7415
  107OSM   C10F10999   3.074   3.184   9.884 -0.4047  0.3551  0.2700
  107OSM   H10F11000   3.105   3.186   9.778  1.1428  0.4646  0.6971
  107OSM   C11F11001   2.960   3.094   9.911 -0.5144  0.5877  0.4371
  107OSM   H11F11002   2.872   3.147   9.868 -0.9925  0.6453  1.4471
  107OSM   H11G11003   2.949   3.077  10.020 -0.2854  1.8049  0.6683
  107OSM   C12F11004   3.006   2.966   9.842 -0.5603  0.5589 -0.3926
  107OSM   H12F11005   2.956   2.878   9.889 -1.1251 -0.7055 -3.2006
  107OSM   H12G11006   3.113   2.949   9.868  0.1065  2.3161 -1.7987
  107OSM   C13F11007   2.985   2.960   9.690 -0.2274  0.0409 -0.6768
  107OSM   H13F11008   3.075   2.993   9.634  1.0431 -1.1287  0.5781
  107OSM   H13G11009   2.906   3.028   9.654  0.4274  1.5727  0.6271
  107OSM   C14F11010   2.954   2.818   9.642 -0.2364  0.1461  0.3486
  107OSM   H14F11011   2.846   2.798   9.664 -0.0754 -3.3982 -1.3385
  107OSM   H14G11012   3.003   2.731   9.690 -0.2384  0.6242  1.2403
  107OSM   C15F11013   2.960   2.808   9.484  0.3258  0.4826 -0.5907
  107OSM   H15F11014   3.065   2.816   9.448 -0.0608 -2.7355 -2.8337
  107OSM   H15G11015   2.892   2.886   9.443 -0.1815  0.4585  0.1728
  107OSM   C16F11016   2.906   2.674   9.436 -0.0395  0.3377  0.3203
  107OSM   H16F11017   2.800   2.671   9.466 -1.5222  0.6801 -4.1732
  107OSM   H16G11018   2.965   2.592   9.483 -0.2170  0.2192  0.3349
  107OSM   C17F11019   2.924   2.663   9.279  0.1479 -0.1930  0.5411
  107OSM   H17F11020   3.035   2.666   9.274  0.2060 -2.1153 -0.1347
  107OSM   H17G11021   2.885   2.749   9.221 -1.0845  0.9974  2.9911
  107OSM   C18F11022   2.875   2.531   9.221  0.4851 -0.1850  0.1743
  107OSM   H18F11023   2.895   2.534   9.112  0.4213  0.2830  0.1700
  107OSM   H18G11024   2.765   2.531   9.233  0.3644  2.9107 -0.0832
  107OSM   H18H11025   2.920   2.444   9.274 -0.0340 -0.3429  0.3556
  108OSM      N11026   6.711   4.528  11.185 -0.6392  0.2340 -0.7937
  108OSM    C1511027   6.856   4.533  11.148  0.2091  0.0559 -0.3199
  108OSM   H15A11028   6.901   4.625  11.181  0.4479  0.0625 -0.6611
  108OSM   H15B11029   6.866   4.531  11.041  1.5149  0.8754 -0.2329
  108OSM   H15C11030   6.914   4.450  11.185  1.7843  1.7166  1.1615
  108OSM    C1411031   6.643   4.399  11.146  0.0399 -0.1235 -0.2108
  108OSM   H14A11032   6.651   4.379  11.040  1.9304 -2.3453  0.2597
  108OSM   H14B11033   6.541   4.408  11.179  0.5064  0.6430  1.0960
  108OSM   H14C11034   6.691   4.319  11.201  1.4262  2.1585  2.1135
  108OSM    C1311035   6.692   4.539  11.332  0.4167  0.4712  0.2432
  108OSM   H13A11036   6.592   4.551  11.373  0.2759 -0.8448  0.3310
  108OSM   H13B11037   6.734   4.634  11.364  0.3601  0.4155  0.4840
  108OSM   H13C11038   6.725   4.451  11.385 -2.1044 -1.1827 -0.7301
  108OSM    C1211039   6.636   4.641  11.113 -0.0582 -0.7257  0.8926
  108OSM   H12A11040   6.691   4.729  11.144  1.0110 -0.6378 -1.0369
  108OSM   H12B11041   6.539   4.665  11.153  0.5232  1.5425  1.1094
  108OSM    C1111042   6.637   4.649  10.957  0.4177 -0.3727  0.9625
  108OSM   H11A11043   6.569   4.724  10.910  0.3815 -1.2547 -0.4291
  108OSM   H11B11044   6.590   4.550  10.936  0.9465  0.1650 -3.9347
  108OSM      P11045   6.824   4.800  10.857 -0.2881 -0.0999 -0.0853
  108OSM    O1311046   6.775   4.908  10.946 -0.6241  0.3281 -0.3612
  108OSM    O1411047   6.967   4.798  10.844 -0.0200  0.2413  0.3811
  108OSM    O1111048   6.765   4.822  10.710  0.1178  0.2087 -0.4037
  108OSM    O1211049   6.774   4.658  10.898 -0.2268 -0.6999  0.0907
  108OSM    C1S11050   6.630   4.836  10.685 -0.1855 -0.1461  1.2096
  108OSM    H1S11051   6.600   4.933  10.731  2.0780  0.4301  1.5622
  108OSM    H1T11052   6.563   4.756  10.722 -0.9689  0.4524  1.1137
  108OSM     NF11053   6.462   4.923  10.509 -0.1108 -0.1735 -0.1407
  108OSM    HNF11054   6.383   4.862  10.510  1.0603 -1.8283 -1.7544
  108OSM    C2S11055   6.596   4.856  10.531 -0.0478 -0.5128  0.7694
  108OSM    H2S11056   6.674   4.924  10.488 -1.2783 -0.3732 -1.4082
  108OSM    C3S11057   6.612   4.713  10.463 -0.4070  0.3555 -0.5780
  108OSM    H3S11058   6.544   4.642  10.515  0.4626  0.0191  0.1262
  108OSM     O311059   6.745   4.659  10.483  0.2355 -0.1800  0.3503
  108OSM    HO311060   6.778   4.707  10.559 -1.8961  0.6544  0.8154
  108OSM    C4S11061   6.586   4.714  10.319 -0.6809 -0.2693  0.9048
  108OSM    H4S11062   6.674   4.731  10.255 -0.8625  1.7583  1.1498
  108OSM    C5S11063   6.480   4.675  10.256  0.2524 -0.1421  0.2411
  108OSM    H5S11064   6.402   4.618  10.308  0.2393 -2.1052 -1.7507
  108OSM    C6S11065   6.476   4.679  10.101  0.2002  0.1058 -0.0926
  108OSM    H6S11066   6.425   4.770  10.065 -0.6708  0.5951  2.2436
  108OSM    H6T11067   6.415   4.595  10.063  0.5296  0.2411 -0.9435
  108OSM    C7S11068   6.599   4.664  10.020 -0.5799 -0.3553 -0.5412
  108OSM    H7S11069   6.655   4.573  10.049 -0.4708 -0.9580 -2.4682
  108OSM    H7T11070   6.656   4.756  10.045 -0.2601 -0.0518 -2.2308
  108OSM    C8S11071   6.585   4.649   9.865  0.6339  0.3017 -0.2793
  108OSM    H8S11072   6.539   4.548   9.857  1.9202 -0.3556  0.2452
  108OSM    H8T11073   6.689   4.632   9.829  0.0671 -0.5769 -1.5618
  108OSM    C9S11074   6.487   4.746   9.795 -0.1059  0.5847 -0.6587
  108OSM    H9S11075   6.511   4.853   9.813 -3.3337  1.4612 -0.9594
  108OSM    H9T11076   6.388   4.743   9.845  1.3202 -1.0260  2.3349
  108OSM   C10S11077   6.472   4.717   9.646 -0.1778  0.4645 -0.5688
  108OSM   H10S11078   6.441   4.613   9.625  1.6834 -0.3360  0.4773
  108OSM   H10T11079   6.559   4.736   9.581 -0.0142 -3.3190 -1.6449
  108OSM   C11S11080   6.375   4.821   9.579 -0.0422  0.2229 -0.2462
  108OSM   H11S11081   6.439   4.911   9.567 -0.3571  0.5304  0.3358
  108OSM   H11T11082   6.289   4.844   9.645 -1.4383 -1.1413 -1.5291
  108OSM   C12S11083   6.318   4.776   9.443 -0.5860 -0.0174  0.1137
  108OSM   H12S11084   6.227   4.832   9.413 -0.6604 -1.1221 -1.8993
  108OSM   H12T11085   6.294   4.668   9.431  1.2661 -0.3132 -1.4899
  108OSM   C13S11086   6.411   4.807   9.324 -0.2538  0.1085  0.2278
  108OSM   H13S11087   6.512   4.763   9.327  0.0003 -0.2475 -4.8020
  108OSM   H13T11088   6.442   4.913   9.320  2.2590 -0.6100 -0.8726
  108OSM   C14S11089   6.352   4.787   9.178 -0.4496  0.3983  0.1926
  108OSM   H14S11090   6.407   4.844   9.100 -2.7174  0.5111 -1.4113
  108OSM   H14T11091   6.257   4.843   9.173 -0.0333  1.0074 -1.3784
  108OSM   C15S11092   6.331   4.639   9.135 -0.3640 -0.2893 -0.0671
  108OSM   H15S11093   6.278   4.581   9.214  0.1297 -1.4696 -0.5830
  108OSM   H15T11094   6.429   4.587   9.136 -0.1964  0.0298  0.3273
  108OSM   C16S11095   6.247   4.617   9.010  0.4605 -0.3493  1.3041
  108OSM   H16S11096   6.150   4.669   9.021  1.4581  1.6516  1.2956
  108OSM   H16T11097   6.220   4.512   8.990  0.3618 -0.0281 -0.4120
  108OSM   C17S11098   6.321   4.657   8.882 -0.1179 -0.1489 -0.9600
  108OSM   H17S11099   6.420   4.607   8.878  2.0022  3.5061  0.3221
  108OSM   H17T11100   6.353   4.764   8.889  1.8970 -0.6648 -1.6527
  108OSM   C18S11101   6.242   4.652   8.751 -0.2457  0.3880 -0.2492
  108OSM   H18S11102   6.300   4.712   8.678  1.6672  1.5522  2.0647
  108OSM   H18T11103   6.145   4.700   8.777 -0.8462 -0.3570 -1.0808
  108OSM   H18U11104   6.237   4.545   8.722  1.0743  0.7229 -1.8769
  108OSM    C1F11105   6.442   5.057  10.535 -0.1160  0.1854  0.1119
  108OSM     OF11106   6.532   5.124  10.568 -0.6776 -0.2424 -0.5082
  108OSM    C2F11107   6.311   5.121  10.530 -0.0372  0.6654 -0.3086
  108OSM    H2F11108   6.326   5.231  10.517  1.8839  0.4903  0.1845
  108OSM    H2G11109   6.264   5.107  10.630 -1.3670  0.5242 -0.9317
  108OSM    C3F11110   6.209   5.067  10.430  0.3033 -0.2095  0.2335
  108OSM    H3F11111   6.105   5.093  10.456 -1.4778 -3.9201 -2.1799
  108OSM    H3G11112   6.207   4.956  10.427 -1.1869 -0.2796  2.0935
  108OSM    C4F11113   6.239   5.115  10.290 -0.1899  0.7576 -0.0624
  108OSM    H4F11114   6.341   5.083  10.261 -0.0272 -1.5920  2.6427
  108OSM    H4G11115   6.219   5.225  10.295 -0.8944  0.8147 -2.6867
  108OSM    C5F11116   6.134   5.060  10.188 -0.5481  0.4285 -0.2553
  108OSM    H5F11117   6.033   5.082  10.228 -0.7749  1.7959 -1.4942
  108OSM    H5G11118   6.142   4.949  10.184  0.0832  0.4414  0.4751
  108OSM    C6F11119   6.140   5.120  10.043  0.0214 -0.3774  0.0653
  108OSM    H6F11120   6.119   5.229  10.044 -1.7901 -0.6660  2.3209
  108OSM    H6G11121   6.044   5.079  10.002  0.6382 -0.4191 -1.4224
  108OSM    C7F11122   6.247   5.086   9.955  0.7327 -0.1694  0.6096
  108OSM    H7F11123   6.253   4.976   9.938 -1.8078 -0.4441  1.0400
  108OSM    H7G11124   6.341   5.115  10.006  0.1258 -0.2580  1.8127
  108OSM    C8F11125   6.233   5.167   9.826  0.1963  0.4112 -0.3352
  108OSM    H8F11126   6.335   5.162   9.782  1.7158  2.1805  2.6671
  108OSM    H8G11127   6.221   5.276   9.842  0.3748  0.1805  1.5711
  108OSM    C9F11128   6.130   5.123   9.725 -0.9077  0.3301 -0.6225
  108OSM    H9F11129   6.034   5.105   9.775 -0.3493 -0.2049  0.2898
  108OSM   C10F11130   6.130   5.117   9.592  1.2309  0.3929  0.0405
  108OSM   H10F11131   6.035   5.079   9.550 -0.2166 -0.2725  3.5983
  108OSM   C11F11132   6.248   5.161   9.509  0.0274  0.5389 -0.2129
  108OSM   H11F11133   6.325   5.095   9.553 -2.3711 -0.3687  3.0406
  108OSM   H11G11134   6.265   5.270   9.525 -0.9603  1.1382 -2.7537
  108OSM   C12F11135   6.212   5.138   9.353  0.0119  0.4527  0.4354
  108OSM   H12F11136   6.121   5.197   9.330  0.0071  0.5747  0.7592
  108OSM   H12G11137   6.192   5.030   9.334  0.4530  0.5370 -0.5671
  108OSM   C13F11138   6.317   5.207   9.263  0.0112 -0.5458 -0.7550
  108OSM   H13F11139   6.399   5.135   9.242 -1.7605 -2.4307 -1.6066
  108OSM   H13G11140   6.363   5.298   9.306 -1.3980  0.2513 -0.9099
  108OSM   C14F11141   6.256   5.256   9.130 -0.1058 -0.0930  0.2780
  108OSM   H14F11142   6.321   5.331   9.081 -0.7803  0.7147  0.5846
  108OSM   H14G11143   6.168   5.319   9.158 -1.2016 -1.3993 -0.1237
  108OSM   C15F11144   6.233   5.148   9.022  0.1520  0.2397  0.2517
  108OSM   H15F11145   6.176   5.064   9.067 -0.3302  0.4883  0.1150
  108OSM   H15G11146   6.334   5.105   9.007 -0.2120 -1.3805  1.9579
  108OSM   C16F11147   6.165   5.201   8.891 -0.2495  0.2256  0.0050
  108OSM   H16F11148   6.241   5.170   8.816 -0.5215 -3.5443  1.0947
  108OSM   H16G11149   6.156   5.312   8.891  1.9490  0.5150  2.6034
  108OSM   C17F11150   6.039   5.121   8.849 -0.4783  0.4123 -0.2448
  108OSM   H17F11151   6.000   5.134   8.746 -0.1759 -0.7101 -0.5190
  108OSM   H17G11152   5.972   5.147   8.933  1.2120 -0.9559  1.6036
  108OSM   C18F11153   6.069   4.963   8.853 -0.3326  0.0045  0.8969
  108OSM   H18F11154   5.992   4.908   8.795 -0.7316  0.8887  0.5766
  108OSM   H18G11155   6.083   4.918   8.954  0.4303 -0.1534  0.7272
  108OSM   H18H11156   6.166   4.944   8.802 -0.3938  0.2809  0.6748
  109OSM      N11157   5.299   3.241  11.185  0.5245  0.0173 -0.1584
  109OSM    C1511158   5.314   3.374  11.255 -0.9061  0.3853  0.1593
  109OSM   H15A11159   5.304   3.453  11.182  0.4857  1.9457  1.5684
  109OSM   H15B11160   5.411   3.373  11.303 -1.5584 -2.5428  1.6881
  109OSM   H15C11161   5.235   3.383  11.329 -1.2243  0.6982 -0.2174
  109OSM    C1411162   5.300   3.126  11.277  0.1717  0.0031  0.4147
  109OSM   H14A11163   5.301   3.030  11.228  1.0119  0.7082 -1.0223
  109OSM   H14B11164   5.210   3.109  11.335 -0.8673  0.0630 -1.1233
  109OSM   H14C11165   5.387   3.116  11.340  0.8851 -0.9101 -0.6894
  109OSM    C1311166   5.158   3.242  11.125 -0.6070  0.0493  0.2233
  109OSM   H13A11167   5.082   3.245  11.201  0.2489 -1.4917  1.2074
  109OSM   H13B11168   5.135   3.158  11.061  3.1317 -1.1944  0.2620
  109OSM   H13C11169   5.153   3.325  11.056  1.6060 -0.1930 -0.3095
  109OSM    C1211170   5.401   3.235  11.074  0.5626  0.1589  0.0099
  109OSM   H12A11171   5.495   3.245  11.125  0.7130 -0.9897 -0.0257
  109OSM   H12B11172   5.401   3.320  11.007 -0.2426 -0.7355 -1.1877
  109OSM    C1111173   5.407   3.108  10.985  0.1534  0.2217  0.2805
  109OSM   H11A11174   5.466   3.128  10.893 -1.6639 -2.5286 -1.6450
  109OSM   H11B11175   5.304   3.089  10.949  0.5118  0.9224 -1.1870
  109OSM      P11176   5.613   2.954  11.062  0.3979  0.0630 -0.6157
  109OSM    O1311177   5.697   3.045  11.140 -0.3616 -0.1807  0.0268
  109OSM    O1411178   5.622   2.812  11.092  0.8903  0.1872  0.6536
  109OSM    O1111179   5.653   2.964  10.915  0.2890 -0.3706  0.0560
  109OSM    O1211180   5.462   3.004  11.077  0.0461  0.2882  0.0805
  109OSM    C1S11181   5.592   2.880  10.811 -0.1778 -0.2475 -0.4693
  109OSM    H1S11182   5.482   2.887  10.799 -0.3585  0.5608  1.3442
  109OSM    H1T11183   5.599   2.773  10.840 -2.2544 -0.8336 -1.9240
  109OSM     NF11184   5.588   2.847  10.564  0.4567  0.1901 -0.0554
  109OSM    HNF11185   5.617   2.759  10.527 -1.9733 -0.4758 -0.5869
  109OSM    C2S11186   5.663   2.900  10.676 -0.0282 -0.4263 -0.1932
  109OSM    H2S11187   5.689   3.007  10.663  0.2701 -0.5573 -0.7378
  109OSM    C3S11188   5.806   2.835  10.687  0.6577  0.6754 -0.5618
  109OSM    H3S11189   5.791   2.732  10.726  1.0006  0.5009 -0.8877
  109OSM     O311190   5.886   2.888  10.792 -0.5334 -0.3446 -0.3100
  109OSM    HO311191   5.829   2.950  10.838  1.1664  1.0953 -0.0362
  109OSM    C4S11192   5.874   2.832  10.548  0.1334  0.0377 -0.1585
  109OSM    H4S11193   5.885   2.727  10.517  1.3215 -0.9196  3.0578
  109OSM    C5S11194   5.923   2.942  10.484 -0.0565  0.3147  0.1685
  109OSM    H5S11195   5.913   3.044  10.524  2.7072  0.8201 -0.2497
  109OSM    C6S11196   5.993   2.938  10.356  0.4831 -0.0223 -1.0501
  109OSM    H6S11197   6.046   2.841  10.343  0.6586  0.0298 -0.7215
  109OSM    H6T11198   6.083   3.003  10.356  0.1042  0.5662  1.2144
  109OSM    C7S11199   5.901   2.980  10.234 -0.8734 -0.4446 -0.7495
  109OSM    H7S11200   5.834   3.068  10.249 -0.5883 -0.5364  1.4965
  109OSM    H7T11201   5.840   2.896  10.196 -1.4623  0.2177 -1.2868
  109OSM    C8S11202   5.995   3.024  10.118 -0.7195  0.4935 -0.1087
  109OSM    H8S11203   6.091   2.971  10.134 -2.1503 -2.6021 -0.8851
  109OSM    H8T11204   5.999   3.133  10.100 -0.0836  0.4681 -0.1441
  109OSM    C9S11205   5.947   2.986   9.978 -0.0189  0.8271  0.2133
  109OSM    H9S11206   5.913   2.880   9.985  0.9163  0.4885 -0.2410
  109OSM    H9T11207   6.033   2.982   9.908 -1.6739 -1.7092 -1.8664
  109OSM   C10S11208   5.825   3.059   9.913 -0.1681  0.0552  0.2257
  109OSM   H10S11209   5.859   3.163   9.891  2.3650 -0.3605  1.7382
  109OSM   H10T11210   5.744   3.062   9.989 -1.2031 -2.4051 -0.6948
  109OSM   C11S11211   5.788   2.995   9.778  0.6259  0.0085 -0.9855
  109OSM   H11S11212   5.689   3.034   9.748 -0.6438 -1.4053  1.1472
  109OSM   H11T11213   5.774   2.885   9.779 -2.0136  0.2761  0.2335
  109OSM   C12S11214   5.892   3.026   9.666  0.5790  0.4978 -0.2785
  109OSM   H12S11215   5.988   2.972   9.681 -0.1637 -1.3156 -1.7592
  109OSM   H12T11216   5.913   3.135   9.665 -0.5239  0.7176 -0.4852
  109OSM   C13S11217   5.834   2.993   9.530 -0.1117  0.3687  0.4583
  109OSM   H13S11218   5.734   3.038   9.511 -0.3728  0.5472  2.0914
  109OSM   H13T11219   5.831   2.884   9.511 -0.4485  0.4011  0.3248
  109OSM   C14S11220   5.915   3.043   9.409 -0.0959  0.8277 -0.1836
  109OSM   H14S11221   6.023   3.022   9.426  0.2855  0.8048 -2.3233
  109OSM   H14T11222   5.901   3.153   9.408 -1.7107  0.6919  1.7922
  109OSM   C15S11223   5.858   2.989   9.281 -0.9515 -0.6493 -0.7561
  109OSM   H15S11224   5.828   3.078   9.221  1.2933  1.2576  0.7729
  109OSM   H15T11225   5.770   2.924   9.293 -0.6997 -0.5981  1.8940
  109OSM   C16S11226   5.961   2.913   9.191 -0.4457  0.0870 -0.4814
  109OSM   H16S11227   5.972   2.813   9.238 -3.3442  0.3544  1.0043
  109OSM   H16T11228   6.063   2.957   9.187 -0.1451 -0.1665  2.2807
  109OSM   C17S11229   5.897   2.883   9.056 -0.2058 -0.2967 -0.5019
  109OSM   H17S11230   5.859   2.979   9.014  0.5797 -0.3886 -1.4639
  109OSM   H17T11231   5.806   2.819   9.066  0.6509 -1.4214  0.4297
  109OSM   C18S11232   5.980   2.803   8.953 -0.0398 -0.5785  0.2250
  109OSM   H18S11233   6.016   2.712   9.005 -2.5632 -0.3933  2.5550
  109OSM   H18T11234   6.063   2.871   8.924 -1.6043  0.3938 -2.3266
  109OSM   H18U11235   5.931   2.783   8.856  1.0918  1.4074 -0.8361
  109OSM    C1F11236   5.469   2.903  10.524 -0.3609 -0.0314  0.3986
  109OSM     OF11237   5.436   3.004  10.588  0.0521  0.0363  0.0960
  109OSM    C2F11238   5.390   2.841  10.425 -0.2915  0.1703  0.9278
  109OSM    H2F11239   5.308   2.778  10.467  0.0789 -0.7820  0.2603
  109OSM    H2G11240   5.452   2.780  10.357 -1.6584 -2.5565  1.9426
  109OSM    C3F11241   5.307   2.955  10.353  0.1672 -0.5677  0.0144
  109OSM    H3F11242   5.378   3.022  10.300 -0.2019  1.4684  1.9591
  109OSM    H3G11243   5.257   3.030  10.418 -1.4531 -1.7131  0.1500
  109OSM    C4F11244   5.205   2.895  10.258 -1.2069  0.1147  0.0605
  109OSM    H4F11245   5.133   2.851  10.331 -0.2567 -0.2851  0.7672
  109OSM    H4G11246   5.263   2.829  10.190 -0.5655  2.0268 -1.3396
  109OSM    C5F11247   5.129   2.991  10.163  0.5192 -0.4647  0.7347
  109OSM    H5F11248   5.195   3.061  10.107  0.1648 -1.5014 -1.0846
  109OSM    H5G11249   5.059   3.053  10.223  0.3425 -1.0595  1.1475
  109OSM    C6F11250   5.050   2.913  10.056  0.4204 -0.0648  0.3224
  109OSM    H6F11251   4.985   2.843  10.113 -1.7310  0.5233 -1.2721
  109OSM    H6G11252   5.128   2.870   9.991  1.0389 -1.0192  1.6381
  109OSM    C7F11253   4.953   2.996   9.969  0.2547  0.2059 -0.0063
  109OSM    H7F11254   5.007   3.078   9.919  1.4395 -0.1262  0.7026
  109OSM    H7G11255   4.888   3.053  10.038  2.6612  2.1014  0.8126
  109OSM    C8F11256   4.884   2.907   9.862  0.7882 -0.2614  0.4724
  109OSM    H8F11257   4.830   2.823   9.911  0.1531  0.7281  1.5425
  109OSM    H8G11258   4.963   2.855   9.804 -1.9434 -0.5542 -3.3731
  109OSM    C9F11259   4.805   2.995   9.761 -0.6192 -0.3685 -0.4348
  109OSM    H9F11260   4.700   3.014   9.784 -0.3539  0.8529 -0.1314
  109OSM   C10F11261   4.857   3.033   9.651 -0.3092  0.4121 -0.5419
  109OSM   H10F11262   4.798   3.092   9.579  2.1669  0.3141 -2.8265
  109OSM   C11F11263   4.997   3.009   9.603 -0.3724  1.0951  0.4174
  109OSM   H11F11264   5.061   2.946   9.669  0.9545 -0.2983 -2.0531
  109OSM   H11G11265   5.054   3.103   9.589 -1.6026  1.8081  0.0412
  109OSM   C12F11266   4.988   2.934   9.469 -0.5799  1.5507  0.4326
  109OSM   H12F11267   4.926   2.842   9.482 -0.4061  1.4702  0.7124
  109OSM   H12G11268   5.088   2.895   9.440 -0.7735  0.9113  0.6036
  109OSM   C13F11269   4.933   3.018   9.354 -0.7302 -0.2629 -0.2927
  109OSM   H13F11270   5.009   3.096   9.332  0.0418 -0.6479  0.8953
  109OSM   H13G11271   4.855   3.091   9.385  0.5127  0.4536  1.3116
  109OSM   C14F11272   4.900   2.930   9.236 -0.2486 -0.5314  0.1344
  109OSM   H14F11273   4.827   2.852   9.265  2.1772 -2.7030  0.8087
  109OSM   H14G11274   4.981   2.861   9.202 -0.6954 -1.2219  0.4419
  109OSM   C15F11275   4.855   3.002   9.107  0.1137  0.0994  0.1844
  109OSM   H15F11276   4.846   2.936   9.018 -2.0957  0.9374 -0.2821
  109OSM   H15G11277   4.927   3.084   9.084 -0.4158  0.5098 -0.0395
  109OSM   C16F11278   4.723   3.082   9.124 -0.4907  0.8303  0.6952
  109OSM   H16F11279   4.732   3.141   9.218 -3.4102  1.6515  0.5461
  109OSM   H16G11280   4.635   3.015   9.125  0.2928 -0.4046 -2.1184
  109OSM   C17F11281   4.706   3.197   9.015 -0.6237  0.1096  0.5105
  109OSM   H17F11282   4.803   3.251   9.008  0.4101 -1.8627 -1.6185
  109OSM   H17G11283   4.623   3.264   9.045 -0.0873  1.4445 -0.8663
  109OSM   C18F11284   4.671   3.142   8.876  0.3996 -0.1146 -0.0925
  109OSM   H18F11285   4.741   3.062   8.846  0.2023 -0.0230 -0.8231
  109OSM   H18G11286   4.664   3.222   8.798  0.5771  0.0925  0.1032
  109OSM   H18H11287   4.574   3.090   8.890  0.2508  0.2107  0.0976
  110OSM      N11288   5.510   2.275  11.307 -0.5506 -0.1809  0.2347
  110OSM    C1511289   5.430   2.263  11.184 -0.0034  0.3464 -0.9655
  110OSM   H15A11290   5.481   2.204  11.109  2.4363  0.5563  0.4199
  110OSM   H15B11291   5.403   2.358  11.142 -0.8212  0.4982 -0.1240
  110OSM   H15C11292   5.335   2.215  11.202 -0.3756  1.7165  1.0226
  110OSM    C1411293   5.431   2.352  11.411  0.3631  0.0433  0.7982
  110OSM   H14A11294   5.396   2.444  11.367 -1.8996 -0.4356  1.4333
  110OSM   H14B11295   5.482   2.375  11.503  0.4754  0.2971  0.6725
  110OSM   H14C11296   5.338   2.304  11.438 -0.7922  2.5667  1.5693
  110OSM    C1311297   5.537   2.135  11.352  0.0425  0.2874 -0.0181
  110OSM   H13A11298   5.607   2.085  11.286 -0.7734  1.7142 -2.0886
  110OSM   H13B11299   5.442   2.088  11.370 -1.5770  3.0727 -0.7920
  110OSM   H13C11300   5.591   2.141  11.445 -0.8463 -0.6890  0.5795
  110OSM    C1211301   5.652   2.337  11.286 -0.1265 -0.3624 -0.5272
  110OSM   H12A11302   5.718   2.327  11.371  1.0408  2.1984 -1.0495
  110OSM   H12B11303   5.644   2.444  11.278  0.3063 -0.3250 -0.4982
  110OSM    C1111304   5.729   2.286  11.164 -0.6105 -0.4939  1.4052
  110OSM   H11A11305   5.830   2.333  11.158 -1.4546  1.3744  1.1029
  110OSM   H11B11306   5.670   2.304  11.071  0.4316 -0.8360  0.6555
  110OSM      P11307   5.849   2.064  11.082 -0.1890 -0.3543  0.5037
  110OSM    O1311308   5.978   2.056  11.148  0.6817 -0.4425  0.3533
  110OSM    O1411309   5.780   1.939  11.036 -0.5668  0.1039  0.3595
  110OSM    O1111310   5.861   2.155  10.954 -0.5023 -0.3812  0.3994
  110OSM    O1211311   5.748   2.144  11.170  0.5002  0.4537  0.1920
  110OSM    C1S11312   5.942   2.099  10.845 -0.3768  0.2859  0.0438
  110OSM    H1S11313   6.020   2.024  10.871 -0.9760  0.3233  2.1677
  110OSM    H1T11314   6.006   2.180  10.805  1.6820 -1.6307 -0.7149
  110OSM     NF11315   5.971   2.001  10.638 -0.3728 -0.0506  0.4043
  110OSM    HNF11316   5.998   2.053  10.557 -0.7596  0.3945  0.5561
  110OSM    C2S11317   5.866   2.057  10.717 -0.2292 -0.1450  0.7915
  110OSM    H2S11318   5.790   1.980  10.741 -0.2089 -0.5058 -0.2582
  110OSM    C3S11319   5.811   2.184  10.648 -0.0535  0.0803  0.0906
  110OSM    H3S11320   5.897   2.245  10.616  1.0136 -2.0447 -1.3287
  110OSM     O311321   5.723   2.264  10.730  0.2068  0.4935 -0.0424
  110OSM    HO311322   5.744   2.250  10.823 -2.3706  0.4404  0.6209
  110OSM    C4S11323   5.741   2.150  10.517 -0.3318  0.1973 -0.0661
  110OSM    H4S11324   5.810   2.151  10.431 -3.4559 -1.2168 -2.8028
  110OSM    C5S11325   5.608   2.119  10.495  0.1080  0.5421 -0.3326
  110OSM    H5S11326   5.544   2.120  10.584 -0.4461  1.2259 -0.7271
  110OSM    C6S11327   5.539   2.082  10.364 -0.4262  0.2877 -0.5281
  110OSM    H6S11328   5.540   1.975  10.332  2.5174  0.0038  0.3127
  110OSM    H6T11329   5.600   2.126  10.283 -0.2726  2.3788  0.6468
  110OSM    C7S11330   5.393   2.136  10.353 -0.0955 -0.1091 -0.1900
  110OSM    H7S11331   5.387   2.246  10.366  0.6751  0.2323 -2.3490
  110OSM    H7T11332   5.331   2.087  10.431  1.0592  0.1317  0.9201
  110OSM    C8S11333   5.326   2.105  10.217 -0.2978 -0.5341 -0.6382
  110OSM    H8S11334   5.222   2.143  10.210 -0.2103 -0.3486 -0.9326
  110OSM    H8T11335   5.334   1.995  10.206 -0.0409 -0.7767  1.4522
  110OSM    C9S11336   5.403   2.161  10.093 -0.0720 -0.7320 -0.4557
  110OSM    H9S11337   5.502   2.113  10.080  0.0318 -1.0041  1.1811
  110OSM    H9T11338   5.430   2.268  10.103  1.6743 -1.1636 -0.2333
  110OSM   C10S11339   5.321   2.150   9.962  0.4711 -0.0482  0.3976
  110OSM   H10S11340   5.236   2.221   9.957 -0.0797 -0.7276 -0.4035
  110OSM   H10T11341   5.282   2.049   9.935 -2.5104  1.8782 -3.6253
  110OSM   C11S11342   5.404   2.188   9.836 -0.9254 -0.1274 -0.0250
  110OSM   H11S11343   5.455   2.100   9.794 -0.6138  0.5662 -1.1319
  110OSM   H11T11344   5.482   2.255   9.880 -0.8785 -0.4076  0.3201
  110OSM   C12S11345   5.325   2.266   9.730 -0.1396 -0.1913  0.0074
  110OSM   H12S11346   5.278   2.353   9.781  2.3874  0.4206  1.4655
  110OSM   H12T11347   5.238   2.205   9.698  0.9554 -1.2152 -1.1642
  110OSM   C13S11348   5.411   2.333   9.620 -0.6993  0.8942  0.3345
  110OSM   H13S11349   5.353   2.376   9.535 -0.7592 -1.3128 -0.8146
  110OSM   H13T11350   5.468   2.253   9.570 -1.3634  1.7245 -1.8732
  110OSM   C14S11351   5.509   2.436   9.674 -0.2620 -0.4083  0.2673
  110OSM   H14S11352   5.579   2.402   9.754 -0.7568  0.1484  0.9439
  110OSM   H14T11353   5.460   2.526   9.715 -0.9863 -0.1034 -1.2094
  110OSM   C15S11354   5.625   2.470   9.579  0.0361  0.0281  0.2105
  110OSM   H15S11355   5.664   2.374   9.539 -0.8796 -0.2335 -0.0887
  110OSM   H15T11356   5.705   2.522   9.637 -1.7456  1.5245  1.4729
  110OSM   C16S11357   5.591   2.551   9.449  0.2111  0.1077 -0.6142
  110OSM   H16S11358   5.519   2.485   9.396 -1.0297  1.7452 -1.0733
  110OSM   H16T11359   5.681   2.562   9.385  0.5819 -1.3476 -0.3733
  110OSM   C17S11360   5.521   2.682   9.472  0.8859 -0.2153 -0.3921
  110OSM   H17S11361   5.599   2.752   9.507 -0.6157  1.3289 -0.0153
  110OSM   H17T11362   5.437   2.662   9.543  0.5056  0.9585 -0.4917
  110OSM   C18S11363   5.460   2.739   9.338 -0.6723  0.6528  0.0291
  110OSM   H18S11364   5.399   2.660   9.288 -0.7243 -0.4355  1.7274
  110OSM   H18T11365   5.537   2.759   9.261 -0.3840  0.2233  0.2053
  110OSM   H18U11366   5.392   2.825   9.355 -2.1719  0.2413 -3.1513
  110OSM    C1F11367   6.006   1.872  10.656 -0.0148  0.1881 -0.4265
  110OSM     OF11368   5.961   1.810  10.751  0.3221  0.2451  0.0943
  110OSM    C2F11369   6.079   1.806  10.547 -0.3389  0.2026 -0.1701
  110OSM    H2F11370   6.167   1.872  10.526 -1.1813  0.9898 -1.3311
  110OSM    H2G11371   6.017   1.804  10.455  0.4070  0.0266 -0.6796
  110OSM    C3F11372   6.133   1.664  10.586 -0.1010  0.2668  0.1518
  110OSM    H3F11373   6.040   1.602  10.595  0.7121 -1.3378 -1.6868
  110OSM    H3G11374   6.189   1.660  10.682  1.7870 -0.0604 -0.9289
  110OSM    C4F11375   6.223   1.609  10.470  0.2395  0.1340  0.9636
  110OSM    H4F11376   6.233   1.500  10.489 -1.3814 -0.0103  1.1028
  110OSM    H4G11377   6.323   1.657  10.482  0.5460 -0.3379  0.3547
  110OSM    C5F11378   6.146   1.617  10.333  0.4127 -0.6813  0.0499
  110OSM    H5F11379   6.148   1.721  10.295  1.1533 -0.7362 -0.0771
  110OSM    H5G11380   6.037   1.600  10.349  0.4298 -0.0954  0.8472
  110OSM    C6F11381   6.211   1.525  10.227  0.7191 -0.4854  0.4163
  110OSM    H6F11382   6.207   1.427  10.280 -1.3401  0.8139  2.8930
  110OSM    H6G11383   6.320   1.541  10.218  0.7869 -1.8820 -2.7402
  110OSM    C7F11384   6.140   1.536  10.091  0.1005 -0.8710 -0.3847
  110OSM    H7F11385   6.152   1.640  10.053 -1.1792 -0.7697 -0.5545
  110OSM    H7G11386   6.029   1.531  10.092 -0.0258  0.5505 -2.0361
  110OSM    C8F11387   6.194   1.445   9.982 -0.2127  0.3138 -0.2493
  110OSM    H8F11388   6.121   1.462   9.900 -0.7801  0.8338  0.3506
  110OSM    H8G11389   6.192   1.337  10.008  1.1879  0.0206 -1.2004
  110OSM    C9F11390   6.341   1.486   9.954  0.3120  0.3876  0.0339
  110OSM    H9F11391   6.409   1.463  10.037  0.6766 -1.0117 -0.6146
  110OSM   C10F11392   6.373   1.551   9.839  0.5420 -0.1935 -0.4238
  110OSM   H10F11393   6.479   1.576   9.820  0.8848 -0.2364  1.2301
  110OSM   C11F11394   6.282   1.581   9.722  0.1684  0.2407  0.0182
  110OSM   H11F11395   6.287   1.692   9.716 -1.5557  0.3415  0.1396
  110OSM   H11G11396   6.176   1.563   9.750 -0.1998  0.5521 -1.1090
  110OSM   C12F11397   6.332   1.505   9.597 -0.3180 -0.0449  1.2602
  110OSM   H12F11398   6.440   1.528   9.590 -0.8855  2.7508 -0.0492
  110OSM   H12G11399   6.276   1.537   9.506  0.8236 -2.2951 -0.2995
  110OSM   C13F11400   6.300   1.351   9.601 -1.3425 -0.3197 -0.3726
  110OSM   H13F11401   6.194   1.340   9.630 -1.5050  1.6227 -0.0760
  110OSM   H13G11402   6.366   1.313   9.682 -1.0652  0.8841 -0.0151
  110OSM   C14F11403   6.333   1.277   9.481 -0.2864 -0.5275  0.0396
  110OSM   H14F11404   6.304   1.171   9.497  1.5126 -1.5630 -2.7479
  110OSM   H14G11405   6.441   1.287   9.455 -0.5428  0.8212 -0.6068
  110OSM   C15F11406   6.255   1.334   9.355  0.1977  0.5514 -0.8715
  110OSM   H15F11407   6.300   1.427   9.315 -0.5437  0.7233 -1.3262
  110OSM   H15G11408   6.161   1.371   9.402  0.9781  0.5131  0.7877
  110OSM   C16F11409   6.230   1.225   9.240 -0.7664  0.3226 -0.5160
  110OSM   H16F11410   6.154   1.251   9.163 -0.7274 -0.4687 -0.8359
  110OSM   H16G11411   6.202   1.125   9.279 -0.2664 -0.3255 -1.7491
  110OSM   C17F11412   6.366   1.186   9.170 -0.0911  0.5184  0.7482
  110OSM   H17F11413   6.341   1.106   9.097 -0.2727  2.6688 -1.6694
  110OSM   H17G11414   6.446   1.141   9.233 -0.4080 -2.3721 -0.7361
  110OSM   C18F11415   6.424   1.300   9.089  0.3210  0.3043 -0.0157
  110OSM   H18F11416   6.474   1.355   9.171 -3.3154  0.5854  2.2390
  110OSM   H18G11417   6.353   1.366   9.034 -2.2973 -1.1134  1.4268
  110OSM   H18H11418   6.489   1.247   9.016 -2.6440 -2.8583 -0.6161
  111OSM      N11419   0.267   0.367  11.225  0.4035 -0.1279  0.5845
  111OSM    C1511420   0.350   0.345  11.346 -0.2180  0.6475  0.0519
  111OSM   H15A11421   0.321   0.417  11.421 -0.7494  1.4086 -0.8555
  111OSM   H15B11422   0.456   0.356  11.332 -0.5682  1.4551 -2.6952
  111OSM   H15C11423   0.335   0.254  11.402  1.5708  0.2689 -0.0495
  111OSM    C1411424   0.119   0.359  11.258  0.2331 -0.3053 -0.8863
  111OSM   H14A11425   0.054   0.372  11.173 -0.1145 -2.9784 -1.0974
  111OSM   H14B11426   0.107   0.427  11.342 -1.6835 -1.6113 -0.0471
  111OSM   H14C11427   0.095   0.262  11.297  3.5327 -0.9458 -0.1181
  111OSM    C1311428   0.299   0.504  11.170  0.0259 -0.0956 -0.3712
  111OSM   H13A11429   0.249   0.524  11.076 -1.1760  0.3913  0.3368
  111OSM   H13B11430   0.405   0.514  11.155  0.0167  3.1550  1.0751
  111OSM   H13C11431   0.272   0.578  11.244  0.2910 -0.4494  0.0805
  111OSM    C1211432   0.289   0.258  11.125  0.0690 -0.1098 -0.4486
  111OSM   H12A11433   0.265   0.158  11.160 -0.8533  1.2119  3.1041
  111OSM   H12B11434   0.395   0.258  11.104  0.1824  0.2825  0.1188
  111OSM    C1111435   0.214   0.269  10.993  0.1811  0.0179 -0.5086
  111OSM   H11A11436   0.103   0.268  10.995  0.0147  2.3110 -2.6561
  111OSM   H11B11437   0.223   0.178  10.930  1.2142  0.7592 -1.4773
  111OSM      P11438   0.389   0.378  10.831  0.1438 -0.0274 -0.3357
  111OSM    O1311439   0.416   0.516  10.786 -0.0516 -0.0493 -0.1768
  111OSM    O1411440   0.503   0.319  10.908  0.4527  0.3370 -0.0485
  111OSM    O1111441   0.357   0.286  10.713  0.4146 -0.1805  0.1719
  111OSM    O1211442   0.254   0.377  10.916 -0.1638 -0.1897 -0.3534
  111OSM    C1S11443   0.220   0.298  10.665  0.5950 -0.2846  0.1374
  111OSM    H1S11444   0.214   0.401  10.624  1.0216  1.3950  3.9156
  111OSM    H1T11445   0.139   0.280  10.739 -0.4619  1.3094 -0.5752
  111OSM     NF11446   0.057   0.225  10.497  0.4082 -0.6828  1.1563
  111OSM    HNF11447  -0.016   0.169  10.535  0.5129 -1.4193  0.3118
  111OSM    C2S11448   0.195   0.202  10.545 -0.0417  1.0065 -0.0186
  111OSM    H2S11449   0.252   0.227  10.453 -1.4320  1.2313 -0.8429
  111OSM    C3S11450   0.222   0.045  10.580  0.4501  0.7117  0.3251
  111OSM    H3S11451   0.161   0.023  10.670  1.9624  3.0606  2.0672
  111OSM     O311452   0.367   0.027  10.608  0.8011 -0.3321 -0.3422
  111OSM    HO311453   0.410   0.113  10.610 -0.9001  0.5364  1.2377
  111OSM    C4S11454   0.187  -0.047  10.462 -0.2163 -0.2287  0.5551
  111OSM    H4S11455   0.268  -0.075  10.392 -0.1321 -1.1431  1.0030
  111OSM    C5S11456   0.073  -0.112  10.448  0.1706 -0.4097 -0.0939
  111OSM    H5S11457  -0.006  -0.102  10.524 -1.7362  3.1847 -2.3048
  111OSM    C6S11458   0.042  -0.219  10.347 -0.1261  0.0188 -0.4662
  111OSM    H6S11459  -0.025  -0.178  10.268 -1.7891 -1.3946  0.1418
  111OSM    H6T11460  -0.009  -0.311  10.384  1.5434 -0.7338  0.0889
  111OSM    C7S11461   0.169  -0.278  10.277 -0.5800 -0.8313  0.0561
  111OSM    H7S11462   0.244  -0.325  10.344 -1.5521 -0.7575  1.2352
  111OSM    H7T11463   0.228  -0.194  10.235  1.3925 -0.8468  2.5050
  111OSM    C8S11464   0.148  -0.376  10.155  0.1026 -0.2998  0.2101
  111OSM    H8S11465   0.058  -0.331  10.107 -1.5518 -0.3532  3.0330
  111OSM    H8T11466   0.126  -0.481  10.185  0.6329 -0.7442 -0.8864
  111OSM    C9S11467   0.262  -0.391  10.056 -0.0668 -0.1736 -0.5578
  111OSM    H9S11468   0.354  -0.413  10.114  1.1581  3.5056 -0.8204
  111OSM    H9T11469   0.280  -0.285  10.027 -0.8831  1.0148  2.8532
  111OSM   C10S11470   0.235  -0.491   9.943  0.7338 -0.0826 -0.5587
  111OSM   H10S11471   0.163  -0.444   9.872  1.0947 -0.9060 -1.4873
  111OSM   H10T11472   0.191  -0.586   9.979 -2.3365  0.2537 -3.0155
  111OSM   C11S11473   0.367  -0.526   9.860 -0.0113  0.1062 -0.3522
  111OSM   H11S11474   0.446  -0.564   9.927 -0.4937 -0.5121 -0.1278
  111OSM   H11T11475   0.413  -0.425   9.851  1.1011 -0.5126 -1.7769
  111OSM   C12S11476   0.343  -0.598   9.736  0.0991 -0.1993  0.6325
  111OSM   H12S11477   0.244  -0.560   9.702  0.1177  0.2890  1.1226
  111OSM   H12T11478   0.339  -0.708   9.755  1.9973 -0.6667 -1.2716
  111OSM   C13S11479   0.447  -0.574   9.630 -0.4592 -0.2176  0.1505
  111OSM   H13S11480   0.544  -0.551   9.679 -0.9459 -1.2799  1.6987
  111OSM   H13T11481   0.415  -0.476   9.588 -2.3623  0.2834  2.4975
  111OSM   C14S11482   0.470  -0.686   9.522  0.3530 -0.2930 -0.5387
  111OSM   H14S11483   0.380  -0.688   9.456  0.3842  2.7416 -0.8011
  111OSM   H14T11484   0.480  -0.782   9.577 -2.1119  0.7482  2.0206
  111OSM   C15S11485   0.599  -0.660   9.453 -0.2323  0.7386 -0.4688
  111OSM   H15S11486   0.686  -0.683   9.517  0.5169  0.9950 -1.3660
  111OSM   H15T11487   0.601  -0.555   9.415 -2.0111  1.3322  0.9302
  111OSM   C16S11488   0.616  -0.761   9.341 -0.8396 -0.1680  0.8277
  111OSM   H16S11489   0.520  -0.755   9.286 -0.0011 -1.4877 -0.8778
  111OSM   H16T11490   0.642  -0.860   9.385  0.9523  0.8896  2.3144
  111OSM   C17S11491   0.729  -0.721   9.236  0.4078 -0.0371  0.3569
  111OSM   H17S11492   0.819  -0.694   9.295 -0.1405  1.5755  0.5077
  111OSM   H17T11493   0.697  -0.624   9.192  1.2144  0.9862  1.9265
  111OSM   C18S11494   0.760  -0.827   9.132 -0.1211 -0.0548 -0.6261
  111OSM   H18S11495   0.807  -0.918   9.175 -0.2506  0.8422  1.5059
  111OSM   H18T11496   0.836  -0.790   9.061 -2.3055  4.1393 -1.1014
  111OSM   H18U11497   0.670  -0.866   9.079 -1.3418  0.3459  1.0879
  111OSM    C1F11498   0.030   0.338  10.427  0.7874 -0.6580 -0.0494
  111OSM     OF11499   0.121   0.422  10.401  0.7565  0.4468  0.2430
  111OSM    C2F11500  -0.112   0.368  10.398  0.4887 -0.4586  0.2562
  111OSM    H2F11501  -0.117   0.476  10.372 -2.8241 -1.0125 -2.1174
  111OSM    H2G11502  -0.175   0.349  10.488  1.9846  1.1859  1.7293
  111OSM    C3F11503  -0.159   0.309  10.259 -0.2851  0.2374  0.7292
  111OSM    H3F11504  -0.086   0.333  10.179 -0.8305  1.3411  0.5358
  111OSM    H3G11505  -0.252   0.362  10.231  0.8922  3.0365  1.7552
  111OSM    C4F11506  -0.168   0.160  10.265 -0.0266 -0.1654 -0.4307
  111OSM    H4F11507  -0.229   0.122  10.350  2.3607  0.7606  1.8427
  111OSM    H4G11508  -0.068   0.114  10.281 -1.0388 -1.8748  1.5135
  111OSM    C5F11509  -0.223   0.106  10.132 -0.0606  0.0213 -0.9867
  111OSM    H5F11510  -0.318   0.160  10.113 -0.6108 -0.9900 -1.1723
  111OSM    H5G11511  -0.264   0.003  10.142  0.1455 -0.2611 -2.8578
  111OSM    C6F11512  -0.129   0.118  10.017  0.2072 -0.3219 -0.1672
  111OSM    H6F11513  -0.112   0.227  10.001  0.2934 -0.3931 -0.5648
  111OSM    H6G11514  -0.190   0.082   9.932 -0.3098  0.4318 -0.1222
  111OSM    C7F11515   0.007   0.049  10.017 -0.4377  0.6615  0.2105
  111OSM    H7F11516  -0.016  -0.059  10.021 -2.6005  1.0702  0.1939
  111OSM    H7G11517   0.063   0.096  10.101  0.2155  0.9093 -0.3524
  111OSM    C8F11518   0.090   0.050   9.883 -0.4274 -0.5127 -0.9053
  111OSM    H8F11519   0.188   0.004   9.906 -0.5077  0.8874  3.2027
  111OSM    H8G11520   0.109   0.159   9.871 -2.7381 -0.0933 -1.2055
  111OSM    C9F11521   0.024  -0.007   9.766  0.1425  0.7778 -0.6166
  111OSM    H9F11522  -0.071   0.041   9.736  0.6525  1.0483 -1.8352
  111OSM   C10F11523   0.064  -0.106   9.691  0.6550  0.3362 -0.0385
  111OSM   H10F11524   0.010  -0.137   9.601 -0.1624  3.3930 -0.7021
  111OSM   C11F11525   0.177  -0.200   9.711 -0.0834  0.2485  0.1990
  111OSM   H11F11526   0.129  -0.300   9.699  1.5042 -0.4494 -0.6193
  111OSM   H11G11527   0.234  -0.199   9.806 -1.1531 -0.6240  0.8793
  111OSM   C12F11528   0.287  -0.206   9.606  0.1851  0.0830 -0.6102
  111OSM   H12F11529   0.362  -0.284   9.633 -0.7125 -0.3516  0.6999
  111OSM   H12G11530   0.332  -0.104   9.602  0.1732  0.2870  2.1153
  111OSM   C13F11531   0.240  -0.238   9.462 -0.3249  0.3537 -0.0011
  111OSM   H13F11532   0.190  -0.150   9.416  1.4674  1.7067  0.5083
  111OSM   H13G11533   0.175  -0.328   9.470  1.9476 -1.4236 -0.5344
  111OSM   C14F11534   0.356  -0.270   9.362  0.7575 -0.2591  0.1865
  111OSM   H14F11535   0.410  -0.363   9.390 -0.2623 -1.3529 -1.3375
  111OSM   H14G11536   0.428  -0.186   9.364  0.4274  0.0691 -1.1199
  111OSM   C15F11537   0.297  -0.280   9.223  0.2027 -0.1855  0.4410
  111OSM   H15F11538   0.241  -0.189   9.190 -0.4392 -0.6392  0.2580
  111OSM   H15G11539   0.224  -0.363   9.214 -0.2597  0.3698 -1.2931
  111OSM   C16F11540   0.403  -0.295   9.113  0.0325 -0.5149 -0.0294
  111OSM   H16F11541   0.463  -0.388   9.121  0.6049 -0.0864  0.9028
  111OSM   H16G11542   0.484  -0.224   9.140 -1.6218  0.6956  2.0783
  111OSM   C17F11543   0.343  -0.274   8.973  0.7868 -0.1229  0.0653
  111OSM   H17F11544   0.323  -0.166   8.961  1.0682 -0.3357 -2.9874
  111OSM   H17G11545   0.245  -0.325   8.975  1.4297 -1.6200 -2.4305
  111OSM   C18F11546   0.436  -0.309   8.857  0.6143  0.3220  0.2254
  111OSM   H18F11547   0.386  -0.261   8.769 -2.7397  1.3196  2.4833
  111OSM   H18G11548   0.436  -0.420   8.852  2.5538  0.3363 -1.3413
  111OSM   H18H11549   0.537  -0.267   8.876  1.5740 -2.3979  1.6264
  112OSM      N11550   0.043   4.342  10.719 -0.3433  0.2895 -0.5311
  112OSM    C1511551   0.047   4.257  10.598 -0.1411 -0.4874  0.1238
  112OSM   H15A11552   0.050   4.314  10.506 -1.5320 -0.4453  0.0849
  112OSM   H15B11553  -0.038   4.192  10.585 -0.9833  0.0416  2.6010
  112OSM   H15C11554   0.138   4.199  10.603  0.9563  0.7203 -3.0474
  112OSM    C1411555   0.176   4.400  10.764 -0.3469  0.0425 -0.1107
  112OSM   H14A11556   0.195   4.497  10.720 -0.2359  1.7392  3.3329
  112OSM   H14B11557   0.261   4.334  10.759 -0.3964  0.0083 -0.5286
  112OSM   H14C11558   0.176   4.420  10.870  0.5463  4.3122 -0.7465
  112OSM    C1311559  -0.057   4.454  10.702 -0.2497  0.8331 -0.3761
  112OSM   H13A11560  -0.050   4.521  10.786  2.1005 -1.2565  1.2330
  112OSM   H13B11561  -0.157   4.415  10.689 -0.0185 -0.8259  2.2261
  112OSM   H13C11562  -0.031   4.513  10.615  0.4467  1.0428 -0.0361
  112OSM    C1211563   0.004   4.252  10.834 -0.1448  0.1015 -0.0293
  112OSM   H12A11564   0.011   4.306  10.927 -2.5801 -0.7170  0.6970
  112OSM   H12B11565   0.069   4.166  10.841  2.2216  1.7905  0.0333
  112OSM    C1111566  -0.150   4.210  10.836 -0.2808  0.7394  0.4828
  112OSM   H11A11567  -0.163   4.130  10.912 -2.0716  0.3899 -0.1665
  112OSM   H11B11568  -0.165   4.157  10.740  2.0129 -0.1399  0.5317
  112OSM      P11569  -0.385   4.310  10.793 -0.2040 -0.6595 -0.4592
  112OSM    O1311570  -0.439   4.174  10.826 -0.2277  0.5095  0.2765
  112OSM    O1411571  -0.476   4.427  10.826  0.1947 -0.3794 -0.0134
  112OSM    O1111572  -0.358   4.317  10.636 -0.5412 -0.2019  0.0993
  112OSM    O1211573  -0.242   4.318  10.857  0.1509 -0.3297 -0.4157
  112OSM    C1S11574  -0.477   4.329  10.555  1.0653  0.2236  0.2556
  112OSM    H1S11575  -0.513   4.433  10.570  2.4379  0.8749 -0.7290
  112OSM    H1T11576  -0.555   4.260  10.595  2.0710 -0.3431  1.2846
  112OSM     NF11577  -0.590   4.291  10.348 -0.1929  0.4355 -0.2452
  112OSM    HNF11578  -0.623   4.203  10.313  2.3401 -1.0844  0.9363
  112OSM    C2S11579  -0.457   4.284  10.400  0.5353 -1.1411 -1.3764
  112OSM    H2S11580  -0.392   4.363  10.356 -0.3838 -0.4179 -1.4541
  112OSM    C3S11581  -0.391   4.145  10.396 -0.4061  0.4018 -0.5253
  112OSM    H3S11582  -0.461   4.080  10.453  0.7534  0.8362  1.5229
  112OSM     O311583  -0.260   4.134  10.461 -0.1387 -0.7211  0.4904
  112OSM    HO311584  -0.252   4.222  10.500 -0.5097  0.4842 -1.9841
  112OSM    C4S11585  -0.381   4.104  10.254  0.0207 -0.6877 -0.1462
  112OSM    H4S11586  -0.478   4.066  10.218 -0.4302  0.0186  0.3006
  112OSM    C5S11587  -0.280   4.131  10.167  0.4679 -0.3285 -0.4009
  112OSM    H5S11588  -0.199   4.200  10.192 -0.3049  0.6340 -0.5047
  112OSM    C6S11589  -0.285   4.095  10.022 -0.0710  0.3662  0.4333
  112OSM    H6S11590  -0.375   4.037   9.992  0.4799  1.5658 -4.2382
  112OSM    H6T11591  -0.197   4.033   9.996 -0.3358  1.4625 -3.7550
  112OSM    C7S11592  -0.286   4.216   9.930 -0.2115  0.4849 -0.4937
  112OSM    H7S11593  -0.184   4.258   9.944  0.4793 -2.0791  3.9703
  112OSM    H7T11594  -0.354   4.296   9.965 -0.5329 -0.5331  1.3397
  112OSM    C8S11595  -0.300   4.179   9.785 -1.0458 -0.3611 -0.8317
  112OSM    H8S11596  -0.394   4.120   9.775 -1.8843  0.6411  0.6553
  112OSM    H8T11597  -0.224   4.106   9.750 -0.6448 -0.1668 -0.3748
  112OSM    C9S11598  -0.320   4.294   9.687 -0.5704 -0.2395 -0.0365
  112OSM    H9S11599  -0.247   4.378   9.694 -0.5454 -0.3933  3.7361
  112OSM    H9T11600  -0.409   4.350   9.723 -1.3277 -1.2335 -0.3317
  112OSM   C10S11601  -0.367   4.248   9.550 -0.4255 -0.0077 -0.3526
  112OSM   H10S11602  -0.441   4.168   9.568 -2.2757  1.9065  0.9194
  112OSM   H10T11603  -0.280   4.213   9.489 -0.7484 -0.0357 -0.8064
  112OSM   C11S11604  -0.428   4.357   9.462  0.1754  0.2632  0.2259
  112OSM   H11S11605  -0.356   4.439   9.442 -0.9951  1.7097  1.5930
  112OSM   H11T11606  -0.515   4.408   9.510 -1.3162 -0.7453 -1.2926
  112OSM   C12S11607  -0.492   4.298   9.332 -0.6896  0.9478  0.2184
  112OSM   H12S11608  -0.536   4.389   9.287 -0.1913  1.3818  0.5949
  112OSM   H12T11609  -0.572   4.225   9.358  0.5900 -0.3519  0.6806
  112OSM   C13S11610  -0.391   4.232   9.238 -0.3354  0.5502 -0.3472
  112OSM   H13S11611  -0.326   4.152   9.278  0.0595  0.7117 -0.6642
  112OSM   H13T11612  -0.326   4.316   9.204 -0.4268  1.1301  0.8404
  112OSM   C14S11613  -0.453   4.162   9.113  0.1205 -0.0625 -0.0053
  112OSM   H14S11614  -0.537   4.222   9.071  0.7735  0.0350 -1.2112
  112OSM   H14T11615  -0.502   4.065   9.136  0.1538 -0.2774 -0.8337
  112OSM   C15S11616  -0.350   4.147   9.006 -0.2313 -0.4268 -0.1046
  112OSM   H15S11617  -0.278   4.076   9.051  1.0069  0.2296 -0.9874
  112OSM   H15T11618  -0.295   4.242   8.989  0.2316 -0.3733  1.5578
  112OSM   C16S11619  -0.411   4.104   8.872 -0.3654 -0.0556  0.6856
  112OSM   H16S11620  -0.495   4.172   8.847 -2.0111 -1.8578  1.0958
  112OSM   H16T11621  -0.454   4.003   8.889 -0.6996 -0.0902 -0.3324
  112OSM   C17S11622  -0.314   4.094   8.759  0.0308  0.7610 -0.4819
  112OSM   H17S11623  -0.259   4.191   8.758  0.4000  0.5530 -0.9444
  112OSM   H17T11624  -0.359   4.076   8.659  1.2767 -1.4472 -0.7151
  112OSM   C18S11625  -0.211   3.976   8.768  0.7531 -0.7406 -0.3078
  112OSM   H18S11626  -0.254   3.876   8.790  3.2126 -2.1515 -1.4754
  112OSM   H18T11627  -0.143   3.999   8.852 -3.2000 -0.5163  3.1752
  112OSM   H18U11628  -0.148   3.966   8.677  2.7325 -3.5364  1.2296
  112OSM    C1F11629  -0.652   4.411  10.337  0.1405 -0.0062  0.6293
  112OSM     OF11630  -0.597   4.518  10.352  0.2421 -0.1884  0.6540
  112OSM    C2F11631  -0.789   4.399  10.271  0.4306 -0.2506 -0.4583
  112OSM    H2F11632  -0.861   4.413  10.354  0.4620  0.5865 -0.5615
  112OSM    H2G11633  -0.802   4.295  10.233  1.8148 -0.1380 -1.2985
  112OSM    C3F11634  -0.802   4.509  10.168  0.4396 -0.1981 -0.2086
  112OSM    H3F11635  -0.763   4.606  10.206 -1.7800 -0.1506  2.2010
  112OSM    H3G11636  -0.906   4.523  10.134  0.2647  0.8289  0.7067
  112OSM    C4F11637  -0.711   4.490  10.041 -0.0790 -0.4927 -0.3893
  112OSM    H4F11638  -0.747   4.407   9.976  1.0748 -1.0128 -0.3895
  112OSM    H4G11639  -0.611   4.458  10.079 -0.5175  0.5368  1.7881
  112OSM    C5F11640  -0.690   4.618   9.952  0.0766  0.1066  0.4850
  112OSM    H5F11641  -0.625   4.591   9.866 -2.5272 -0.3432 -1.4555
  112OSM    H5G11642  -0.646   4.698  10.015 -1.8239  1.8641 -0.2858
  112OSM    C6F11643  -0.820   4.680   9.890 -0.6036 -0.2148 -0.1511
  112OSM    H6F11644  -0.800   4.772   9.832 -0.1691 -0.2406 -0.0436
  112OSM    H6G11645  -0.891   4.700   9.973 -2.6525  0.6091 -2.0061
  112OSM    C7F11646  -0.904   4.585   9.805  0.2701  0.4175  0.4660
  112OSM    H7F11647  -0.998   4.637   9.779  0.8339  1.3737  0.2546
  112OSM    H7G11648  -0.928   4.498   9.870  0.5223  0.5447  0.7367
  112OSM    C8F11649  -0.843   4.540   9.668 -0.5102 -0.0711 -0.3246
  112OSM    H8F11650  -0.898   4.455   9.622 -0.4367  1.2137 -3.0297
  112OSM    H8G11651  -0.738   4.511   9.690 -0.4219  1.0881  0.8780
  112OSM    C9F11652  -0.850   4.662   9.572 -0.0888  0.3307  0.2476
  112OSM    H9F11653  -0.806   4.755   9.612  0.2915  0.9431 -1.5129
  112OSM   C10F11654  -0.880   4.667   9.442  0.6266 -0.2744  0.7619
  112OSM   H10F11655  -0.878   4.768   9.397  0.8460 -0.9396 -0.8168
  112OSM   C11F11656  -0.927   4.557   9.355  0.1417  0.1367 -0.1475
  112OSM   H11F11657  -1.021   4.589   9.306 -1.7832 -4.0000  0.4427
  112OSM   H11G11658  -0.964   4.475   9.420 -0.3700  2.2443  2.3878
  112OSM   C12F11659  -0.807   4.518   9.273  0.1934  0.1014  0.5501
  112OSM   H12F11660  -0.732   4.470   9.339 -0.0477  2.7602  3.0077
  112OSM   H12G11661  -0.760   4.599   9.213 -1.0936  0.2258 -0.3487
  112OSM   C13F11662  -0.836   4.401   9.178 -0.1310 -0.3633 -0.0459
  112OSM   H13F11663  -0.917   4.338   9.221 -3.0964  2.2306 -1.4680
  112OSM   H13G11664  -0.734   4.358   9.163 -0.0191 -0.1423  0.0826
  112OSM   C14F11665  -0.907   4.439   9.054 -0.2474  0.0766 -0.0676
  112OSM   H14F11666  -0.858   4.535   9.025 -2.9325  1.6129  0.1425
  112OSM   H14G11667  -1.012   4.454   9.087 -0.3017 -0.6122  0.0974
  112OSM   C15F11668  -0.898   4.335   8.939 -0.1292 -0.0571 -0.1161
  112OSM   H15F11669  -0.944   4.242   8.979 -0.7294  0.5846  0.7433
  112OSM   H15G11670  -0.794   4.307   8.911  0.0884  0.5678  0.0300
  112OSM   C16F11671  -0.986   4.388   8.823 -0.0351 -0.1946  0.0175
  112OSM   H16F11672  -1.080   4.425   8.869  0.8824  2.0748  0.2288
  112OSM   H16G11673  -1.007   4.306   8.752  1.5827 -0.7363  0.1265
  112OSM   C17F11674  -0.924   4.508   8.745 -0.8255  0.0149  0.3872
  112OSM   H17F11675  -0.823   4.490   8.702 -0.5841 -0.6166  1.1742
  112OSM   H17G11676  -0.903   4.584   8.824 -0.7805 -2.0872  2.5438
  112OSM   C18F11677  -1.026   4.568   8.647  0.1019 -0.0448 -0.1113
  112OSM   H18F11678  -1.113   4.603   8.707  1.4199  0.2700  1.7337
  112OSM   H18G11679  -1.064   4.491   8.577 -0.1342  0.0722 -0.1112
  112OSM   H18H11680  -0.993   4.661   8.597 -0.0162  0.6050  0.9883
  113OSM      N11681   0.920   4.485  10.898  0.0882 -0.7337  0.3738
  113OSM    C1511682   1.005   4.477  10.777  0.2436  1.0460 -0.7234
  113OSM   H15A11683   1.106   4.452  10.804 -0.2875 -3.1143 -1.9651
  113OSM   H15B11684   1.009   4.574  10.728  1.9088  1.7869  0.7746
  113OSM   H15C11685   0.970   4.402  10.707  1.9186  0.1333 -0.6333
  113OSM    C1411686   0.932   4.356  10.982  0.5412 -0.2736  0.3658
  113OSM   H14A11687   0.905   4.364  11.086 -0.8349 -0.4767  0.0524
  113OSM   H14B11688   1.035   4.327  10.972  0.6762  0.8855 -2.8621
  113OSM   H14C11689   0.858   4.290  10.938  1.4364 -2.1020  1.5039
  113OSM    C1311690   0.962   4.603  10.985 -0.3475  0.2901  0.8399
  113OSM   H13A11691   1.065   4.592  11.016  0.4740 -0.3272 -1.8624
  113OSM   H13B11692   0.897   4.612  11.071 -1.2829 -1.8620  0.4115
  113OSM   H13C11693   0.956   4.700  10.937  0.6201  0.6874  1.4822
  113OSM    C1211694   0.778   4.499  10.850  0.1609 -0.1345 -0.0915
  113OSM   H12A11695   0.768   4.592  10.797  1.9696 -0.5033 -1.1656
  113OSM   H12B11696   0.720   4.519  10.939  1.4726  0.8153  0.5916
  113OSM    C1111697   0.707   4.387  10.755 -0.6128 -0.4336  0.2886
  113OSM   H11A11698   0.750   4.392  10.652  0.7547 -0.6281  0.8220
  113OSM   H11B11699   0.606   4.427  10.735  1.4358  3.9460 -3.2948
  113OSM      P11700   0.624   4.193  10.903  0.0744 -0.0749  0.2877
  113OSM    O1311701   0.695   4.102  10.998 -0.1831 -0.1720 -0.1939
  113OSM    O1411702   0.546   4.299  10.960  0.0972  0.8727 -0.2105
  113OSM    O1111703   0.526   4.110  10.813 -0.0227  0.2805  0.0216
  113OSM    O1211704   0.719   4.256  10.804 -0.4066  0.1331  0.9287
  113OSM    C1S11705   0.589   4.007  10.725 -0.0175  0.7234 -0.2315
  113OSM    H1S11706   0.599   3.912  10.781  0.5743  1.0629  0.2533
  113OSM    H1T11707   0.688   4.043  10.688  0.0490  0.9659  0.1772
  113OSM     NF11708   0.565   3.877  10.510 -0.4024 -0.4708 -0.1199
  113OSM    HNF11709   0.604   3.917  10.427 -0.4231  3.8155  1.7104
  113OSM    C2S11710   0.503   3.977  10.593  1.1508  0.2179  0.4556
  113OSM    H2S11711   0.401   3.939  10.616  1.8885 -1.6235  0.8442
  113OSM    C3S11712   0.470   4.105  10.513 -0.3165 -0.1243 -1.0795
  113OSM    H3S11713   0.569   4.143  10.481 -0.1516  2.3402  1.8849
  113OSM     O311714   0.411   4.209  10.592 -0.2058  0.7150 -0.0400
  113OSM    HO311715   0.438   4.177  10.679  1.3147 -2.7441 -1.5640
  113OSM    C4S11716   0.389   4.094  10.384 -0.2138  0.0482 -0.1447
  113OSM    H4S11717   0.440   4.109  10.288 -2.1502  0.7583 -1.1183
  113OSM    C5S11718   0.255   4.065  10.382 -0.2345  0.1086  0.1670
  113OSM    H5S11719   0.206   4.048  10.479  0.7507  0.3575  0.7144
  113OSM    C6S11720   0.164   4.048  10.259 -0.4376  0.0641  0.1857
  113OSM    H6S11721   0.088   4.128  10.268 -0.1557  0.1860  1.7005
  113OSM    H6T11722   0.112   3.951  10.270 -0.3732 -0.1718 -1.2916
  113OSM    C7S11723   0.227   4.055  10.115  0.3529  0.0178 -0.1262
  113OSM    H7S11724   0.286   3.963  10.093  0.6696 -0.0337  0.8645
  113OSM    H7T11725   0.295   4.142  10.120  1.3729 -0.6959 -0.9527
  113OSM    C8S11726   0.105   4.074  10.019  0.5802 -0.3076  0.4576
  113OSM    H8S11727   0.048   4.160  10.060 -0.2687 -0.1070 -1.0454
  113OSM    H8T11728   0.037   3.987  10.024 -0.0688  0.0169 -1.7555
  113OSM    C9S11729   0.155   4.088   9.875  0.5034 -0.7305  0.1329
  113OSM    H9S11730   0.211   3.994   9.855 -1.2650 -1.6049 -0.9695
  113OSM    H9T11731   0.219   4.178   9.866  2.0646 -1.7496  0.6846
  113OSM   C10S11732   0.036   4.091   9.781  0.0155 -0.1317 -0.1458
  113OSM   H10S11733  -0.003   4.195   9.788 -2.7232 -1.1675  1.9115
  113OSM   H10T11734  -0.035   4.013   9.815  0.7071  0.1159  1.9823
  113OSM   C11S11735   0.089   4.074   9.648 -1.1224 -0.0958 -0.5557
  113OSM   H11S11736   0.144   3.977   9.648 -0.8032  0.0821  0.2666
  113OSM   H11T11737   0.147   4.167   9.633 -0.0829 -0.6350  0.0125
  113OSM   C12S11738  -0.020   4.053   9.539 -0.5302  0.3442 -0.4697
  113OSM   H12S11739  -0.078   4.147   9.532 -0.8362  0.0688 -2.0470
  113OSM   H12T11740  -0.086   3.969   9.571 -1.7939  1.5047  0.0608
  113OSM   C13S11741   0.030   4.016   9.400  0.3547  0.5398  0.4378
  113OSM   H13S11742  -0.058   4.006   9.332  1.2687  2.0793 -1.0521
  113OSM   H13T11743   0.084   3.919   9.411  0.0034  0.4290  1.2850
  113OSM   C14S11744   0.141   4.100   9.330  0.5570 -0.1893  0.0734
  113OSM   H14S11745   0.210   4.039   9.267  2.5553  0.0008  1.9750
  113OSM   H14T11746   0.215   4.135   9.405  1.0341 -1.7651  0.3911
  113OSM   C15S11747   0.089   4.213   9.243 -0.0786 -0.2522  0.0473
  113OSM   H15S11748   0.029   4.178   9.156 -1.3033 -1.0403  1.1643
  113OSM   H15T11749   0.181   4.262   9.203  0.7369 -1.9860 -0.2935
  113OSM   C16S11750   0.002   4.319   9.319 -0.2204  0.7418 -0.3741
  113OSM   H16S11751   0.057   4.347   9.412  2.3705  2.9749 -2.4101
  113OSM   H16T11752  -0.097   4.276   9.347 -0.0669  0.0355 -0.8945
  113OSM   C17S11753  -0.033   4.439   9.226  0.0220 -0.0790 -0.5022
  113OSM   H17S11754  -0.125   4.417   9.169 -1.0621 -0.2028  1.2246
  113OSM   H17T11755   0.050   4.460   9.155  2.0618 -2.2735  1.0806
  113OSM   C18S11756  -0.071   4.561   9.310  0.1362 -0.2421 -0.9059
  113OSM   H18S11757  -0.164   4.548   9.370  1.1901 -0.7805  0.6490
  113OSM   H18T11758  -0.091   4.649   9.245  1.3724  1.1823  0.5751
  113OSM   H18U11759   0.010   4.597   9.376  0.2980 -1.3130 -0.5051
  113OSM    C1F11760   0.595   3.750  10.553  1.1098 -0.4119  0.4911
  113OSM     OF11761   0.604   3.696  10.667  0.5081 -0.5956 -0.3720
  113OSM    C2F11762   0.640   3.667  10.435  0.5675  0.1420 -0.0702
  113OSM    H2F11763   0.728   3.708  10.381  0.7992 -0.4560 -0.1490
  113OSM    H2G11764   0.553   3.670  10.366  0.0394 -1.0266  0.5306
  113OSM    C3F11765   0.666   3.517  10.479  0.7375 -0.1535  0.3194
  113OSM    H3F11766   0.581   3.478  10.539  2.3637 -3.7465  0.5994
  113OSM    H3G11767   0.750   3.501  10.551 -0.3165 -0.7555  1.4563
  113OSM    C4F11768   0.670   3.417  10.357 -0.6767 -0.5915  0.3490
  113OSM    H4F11769   0.590   3.435  10.282 -0.8550 -2.8769 -0.1000
  113OSM    H4G11770   0.652   3.314  10.396 -0.2194 -0.9234 -0.2924
  113OSM    C5F11771   0.795   3.411  10.275 -0.3855 -0.2031  0.5674
  113OSM    H5F11772   0.876   3.388  10.348  0.0565 -2.9450 -0.6542
  113OSM    H5G11773   0.813   3.512  10.231 -0.0658 -1.3438 -2.1376
  113OSM    C6F11774   0.793   3.301  10.170  0.5758  0.0143 -0.5953
  113OSM    H6F11775   0.718   3.329  10.093  0.2650  0.1309 -0.2546
  113OSM    H6G11776   0.766   3.203  10.216 -0.2002 -0.4354 -1.9467
  113OSM    C7F11777   0.926   3.291  10.090  0.3941  0.1852 -0.0662
  113OSM    H7F11778   1.000   3.299  10.173  0.0737  1.9416  0.0893
  113OSM    H7G11779   0.939   3.381  10.027 -3.0132 -0.6090 -2.1710
  113OSM    C8F11780   0.932   3.153  10.025  0.6260 -1.0859  0.3854
  113OSM    H8F11781   0.918   3.072  10.100 -0.8131 -2.0952 -0.8961
  113OSM    H8G11782   1.033   3.144   9.978  0.9935  2.6587  0.1473
  113OSM    C9F11783   0.824   3.130   9.918  0.2386 -0.3066  0.4001
  113OSM    H9F11784   0.726   3.117   9.967 -0.4400 -0.2386 -0.8939
  113OSM   C10F11785   0.834   3.122   9.786 -0.3501 -0.4972 -0.1546
  113OSM   H10F11786   0.744   3.093   9.730 -1.6425 -2.4108  2.6698
  113OSM   C11F11787   0.958   3.142   9.707  0.3838 -0.6400  1.1164
  113OSM   H11F11788   1.043   3.096   9.760 -0.0581 -1.2748  1.2900
  113OSM   H11G11789   0.982   3.250   9.694 -2.0125 -0.2283 -0.6708
  113OSM   C12F11790   0.945   3.092   9.558  0.0506  0.5043 -0.2212
  113OSM   H12F11791   0.886   3.168   9.502  2.3840  1.7806 -1.1198
  113OSM   H12G11792   0.909   2.987   9.553 -0.1366  0.4091  1.9613
  113OSM   C13F11793   1.082   3.088   9.495  0.3215  0.0783  0.0280
  113OSM   H13F11794   1.129   2.991   9.522 -1.8405 -1.2793 -0.8421
  113OSM   H13G11795   1.142   3.177   9.525 -0.2551 -0.0968  1.8405
  113OSM   C14F11796   1.075   3.081   9.338  0.1914 -0.2218  0.3906
  113OSM   H14F11797   1.002   3.152   9.295 -0.4523  0.0301  1.8558
  113OSM   H14G11798   1.033   2.980   9.317 -0.8577 -1.0126  5.1658
  113OSM   C15F11799   1.203   3.084   9.267 -0.2848 -0.1245 -0.6810
  113OSM   H15F11800   1.269   2.995   9.283 -0.7226 -0.3328  0.0243
  113OSM   H15G11801   1.254   3.171   9.313  2.0714 -1.7514 -0.0066
  113OSM   C16F11802   1.202   3.109   9.114 -0.3127  0.5830  0.1679
  113OSM   H16F11803   1.186   3.218   9.098  2.5213  1.0175 -0.1925
  113OSM   H16G11804   1.111   3.060   9.071  0.1831  0.6763 -1.0449
  113OSM   C17F11805   1.332   3.071   9.044 -0.4069 -0.2991 -0.3051
  113OSM   H17F11806   1.311   3.073   8.935  2.1063  0.5421 -0.8462
  113OSM   H17G11807   1.351   2.963   9.060 -0.9351 -0.3809 -0.2118
  113OSM   C18F11808   1.449   3.160   9.095 -0.2317  0.1351 -0.2111
  113OSM   H18F11809   1.467   3.168   9.205 -0.5498 -0.7749 -0.0863
  113OSM   H18G11810   1.430   3.262   9.055  1.0479  0.7525  0.7030
  113OSM   H18H11811   1.542   3.118   9.051 -0.0451 -2.1118  2.1102
  114OSM      N11812   1.423   3.102  11.793 -0.0738 -0.2761 -0.3481
  114OSM    C1511813   1.498   2.977  11.751 -0.0299 -0.0144  0.3609
  114OSM   H15A11814   1.519   2.988  11.645  1.1549 -1.3263  0.4174
  114OSM   H15B11815   1.441   2.885  11.754 -1.3864  0.8222  0.9670
  114OSM   H15C11816   1.591   2.964  11.804  0.5593 -1.4252 -0.9267
  114OSM    C1411817   1.381   3.091  11.938 -0.8744 -0.2588  0.3979
  114OSM   H14A11818   1.467   3.051  11.990 -0.6955  0.8918  1.0087
  114OSM   H14B11819   1.296   3.025  11.947  0.5422 -2.2229  0.1162
  114OSM   H14C11820   1.362   3.190  11.975  1.4612  0.6265 -0.5987
  114OSM    C1311821   1.525   3.216  11.783 -0.0985 -0.3148  0.3919
  114OSM   H13A11822   1.587   3.209  11.695 -1.9749 -0.9599 -0.9436
  114OSM   H13B11823   1.595   3.213  11.866  1.8809  2.0101 -1.0867
  114OSM   H13C11824   1.482   3.314  11.792  0.3670 -0.1811  1.2610
  114OSM    C1211825   1.310   3.135  11.695  0.8673  0.1561 -0.3837
  114OSM   H12A11826   1.241   3.203  11.744  0.3347 -0.3105 -0.4760
  114OSM   H12B11827   1.250   3.047  11.676 -0.2655  0.9117 -0.4450
  114OSM    C1111828   1.345   3.182  11.553  0.5370  0.2479  1.0385
  114OSM   H11A11829   1.405   3.275  11.551  0.1174  0.5143  0.8479
  114OSM   H11B11830   1.245   3.200  11.508 -0.2959  0.5545  2.8990
  114OSM      P11831   1.338   2.954  11.418 -0.8110  0.1436 -0.4297
  114OSM    O1311832   1.443   2.876  11.345  0.0868  0.2667 -0.2129
  114OSM    O1411833   1.264   2.881  11.528 -0.5898  0.7393  0.5197
  114OSM    O1111834   1.240   3.015  11.308  0.2215  0.2446  0.3971
  114OSM    O1211835   1.416   3.078  11.486  0.5561 -0.0400  0.1484
  114OSM    C1S11836   1.280   3.126  11.226 -0.5899 -0.2662  0.3135
  114OSM    H1S11837   1.391   3.134  11.227 -0.6591  0.7549  0.4300
  114OSM    H1T11838   1.234   3.222  11.256  1.0214  1.4019 -2.2007
  114OSM     NF11839   1.302   3.205  10.998  0.4260  0.0292 -0.3941
  114OSM    HNF11840   1.233   3.266  10.959 -3.2695 -4.1838 -1.2490
  114OSM    C2S11841   1.250   3.096  11.076 -0.6121 -0.2930  0.4924
  114OSM    H2S11842   1.303   3.002  11.051  1.4883  1.0971 -0.5386
  114OSM    C3S11843   1.103   3.057  11.044  0.3721 -0.1787  0.1725
  114OSM    H3S11844   1.044   3.143  11.081 -0.8266 -1.1757  0.6347
  114OSM     O311845   1.052   2.945  11.113 -0.5172 -0.0825  0.6795
  114OSM    HO311846   1.128   2.907  11.157  0.6004 -1.2377 -2.0436
  114OSM    C4S11847   1.075   3.047  10.900 -0.2630  0.4269 -0.6117
  114OSM    H4S11848   1.038   3.136  10.848  1.8265  0.3654 -2.3325
  114OSM    C5S11849   1.086   2.943  10.819  0.2222 -0.0471  0.2669
  114OSM    H5S11850   1.113   2.845  10.861  0.5919  0.8056  2.0935
  114OSM    C6S11851   1.062   2.936  10.668  0.0666 -0.2419 -0.0860
  114OSM    H6S11852   1.014   2.837  10.652 -0.4600 -0.0476  0.2619
  114OSM    H6T11853   1.164   2.932  10.624  0.5147  1.1853  0.7538
  114OSM    C7S11854   0.993   3.048  10.591  0.1027  0.3297  0.4390
  114OSM    H7S11855   1.058   3.137  10.604  0.8023  0.0691 -1.0393
  114OSM    H7T11856   0.891   3.077  10.622 -0.4286  0.4190 -1.2603
  114OSM    C8S11857   0.981   3.021  10.437  0.3245  0.2616  0.4173
  114OSM    H8S11858   0.925   3.100  10.384 -1.5116 -1.5479 -0.4892
  114OSM    H8T11859   0.918   2.930  10.429 -0.0846  0.5874 -0.1238
  114OSM    C9S11860   1.111   2.990  10.365  1.0025  0.8088 -0.0314
  114OSM    H9S11861   1.180   2.940  10.436 -0.9122  0.9512  2.0289
  114OSM    H9T11862   1.154   3.085  10.326  3.0507 -0.5463 -1.2514
  114OSM   C10S11863   1.099   2.896  10.248 -0.4753 -0.3175  0.0117
  114OSM   H10S11864   1.040   2.941  10.164  1.4774 -0.6971 -1.6410
  114OSM   H10T11865   1.051   2.803  10.284 -0.8572 -1.3994 -2.9450
  114OSM   C11S11866   1.227   2.856  10.175 -0.1774 -0.1102 -0.5438
  114OSM   H11S11867   1.180   2.779  10.110 -1.7474 -0.3171  0.7808
  114OSM   H11T11868   1.300   2.806  10.243  0.4627 -0.9447 -1.8117
  114OSM   C12S11869   1.304   2.960  10.080  0.0041  0.3392 -1.0986
  114OSM   H12S11870   1.340   3.046  10.140 -1.5874  1.3156 -1.4892
  114OSM   H12T11871   1.228   2.987  10.003  0.7616 -0.5969 -2.2201
  114OSM   C13S11872   1.419   2.898  10.006  0.5859 -0.1321 -0.1010
  114OSM   H13S11873   1.422   2.787   9.995  0.7917 -0.0916 -0.4629
  114OSM   H13T11874   1.515   2.915  10.058  2.2835 -1.8885 -2.4024
  114OSM   C14S11875   1.437   2.945   9.861  0.5618  0.0351  0.0161
  114OSM   H14S11876   1.541   2.928   9.826 -0.6838 -1.2117 -3.4435
  114OSM   H14T11877   1.426   3.055   9.859  3.1986  0.3599  0.0564
  114OSM   C15S11878   1.347   2.879   9.749  0.5744 -0.5381  0.9841
  114OSM   H15S11879   1.239   2.901   9.765  0.1630 -3.0271  2.2007
  114OSM   H15T11880   1.354   2.770   9.767  1.5616 -1.5429 -4.0920
  114OSM   C16S11881   1.368   2.911   9.605  0.4553 -0.9378 -0.0776
  114OSM   H16S11882   1.358   3.021   9.590  0.7461 -0.3238  3.4549
  114OSM   H16T11883   1.279   2.879   9.546  0.5651 -0.1617 -0.6918
  114OSM   C17S11884   1.499   2.862   9.544  0.1979  0.6105 -0.0375
  114OSM   H17S11885   1.513   2.755   9.568  0.9778  0.1556 -2.3685
  114OSM   H17T11886   1.575   2.925   9.596 -0.6158  0.7431  1.0392
  114OSM   C18S11887   1.501   2.883   9.388 -0.6732  0.6385 -0.2045
  114OSM   H18S11888   1.427   2.811   9.348  0.9310 -0.8131 -0.6792
  114OSM   H18T11889   1.605   2.864   9.354 -0.5633  0.7292  0.0758
  114OSM   H18U11890   1.474   2.988   9.364  2.2384  1.5757  0.1798
  114OSM    C1F11891   1.433   3.228  10.980 -0.2534 -0.7054 -0.1616
  114OSM     OF11892   1.517   3.169  11.047 -0.2688 -0.4489  0.6195
  114OSM    C2F11893   1.467   3.327  10.874 -0.8317 -0.5206  0.5963
  114OSM    H2F11894   1.454   3.432  10.907 -1.0911 -0.3074 -0.1630
  114OSM    H2G11895   1.384   3.312  10.802 -2.1009 -0.3218  1.9732
  114OSM    C3F11896   1.606   3.309  10.814 -0.1337 -0.1346  0.4312
  114OSM    H3F11897   1.682   3.328  10.892  1.2197 -0.5124 -0.7498
  114OSM    H3G11898   1.615   3.383  10.731 -0.6894 -0.8239 -0.2576
  114OSM    C4F11899   1.641   3.168  10.754  0.5237  0.0065 -0.0247
  114OSM    H4F11900   1.667   3.095  10.833 -0.1367 -1.7964 -1.4119
  114OSM    H4G11901   1.723   3.190  10.681 -0.0752  0.7817 -0.4787
  114OSM    C5F11902   1.527   3.109  10.669 -0.0452 -0.3347 -0.4489
  114OSM    H5F11903   1.515   3.186  10.589 -3.5991 -1.2402 -0.9955
  114OSM    H5G11904   1.430   3.092  10.720 -0.6570 -2.4437 -2.1668
  114OSM    C6F11905   1.566   2.972  10.617 -0.4615  0.0232 -0.6982
  114OSM    H6F11906   1.582   2.897  10.698  1.1913  0.5540 -0.4986
  114OSM    H6G11907   1.666   2.977  10.569  0.2911 -4.3447 -0.0504
  114OSM    C7F11908   1.470   2.946  10.511 -0.3388  0.3031  0.3204
  114OSM    H7F11909   1.490   3.027  10.437  0.2919 -1.9438 -2.1135
  114OSM    H7G11910   1.369   2.946  10.558  0.1683 -0.1053  1.4235
  114OSM    C8F11911   1.508   2.815  10.444  0.1831 -0.3990 -0.0434
  114OSM    H8F11912   1.618   2.808  10.456  0.2902  0.5700 -0.3697
  114OSM    H8G11913   1.499   2.823  10.333  2.0623 -0.0332 -0.1895
  114OSM    C9F11914   1.432   2.703  10.499  0.0147 -0.5016 -0.4582
  114OSM    H9F11915   1.350   2.737  10.563  2.2694 -1.3475  3.1567
  114OSM   C10F11916   1.459   2.572  10.483  0.2767  0.2276 -0.1144
  114OSM   H10F11917   1.401   2.491  10.529  2.1495 -1.0867  0.0392
  114OSM   C11F11918   1.579   2.523  10.400  0.6906 -0.4813 -0.4267
  114OSM   H11F11919   1.599   2.418  10.429  0.0704 -0.8550 -1.3263
  114OSM   H11G11920   1.665   2.593  10.416 -0.8253  1.1995  0.7189
  114OSM   C12F11921   1.554   2.515  10.253 -0.2195 -0.7331 -0.1166
  114OSM   H12F11922   1.562   2.614  10.204 -2.6540 -1.2779 -1.8216
  114OSM   H12G11923   1.457   2.465  10.231  0.7042 -1.6934 -2.3186
  114OSM   C13F11924   1.653   2.428  10.169  0.1913 -1.1538 -0.6699
  114OSM   H13F11925   1.641   2.326  10.213  0.4969 -1.0329 -0.3103
  114OSM   H13G11926   1.757   2.463  10.187  0.5160 -0.4185 -3.5045
  114OSM   C14F11927   1.625   2.435  10.023  0.4204 -0.0893  0.4172
  114OSM   H14F11928   1.648   2.539   9.992  0.8182 -0.7277 -1.6492
  114OSM   H14G11929   1.522   2.412   9.987 -0.4041  1.4338  1.7152
  114OSM   C15F11930   1.709   2.354   9.933 -0.2071 -0.2885 -0.5403
  114OSM   H15F11931   1.809   2.342   9.978 -1.8112  1.5686  4.1053
  114OSM   H15G11932   1.723   2.394   9.830  0.1174  1.5958  0.2033
  114OSM   C16F11933   1.644   2.221   9.914 -0.0149  0.5915 -0.2458
  114OSM   H16F11934   1.563   2.221   9.838  0.7785 -2.3073 -1.2751
  114OSM   H16G11935   1.596   2.190  10.009  1.8857  3.0034  1.6489
  114OSM   C17F11936   1.729   2.099   9.879  0.4833 -0.5658  0.3904
  114OSM   H17F11937   1.674   2.005   9.860  1.7948 -1.4871  0.9934
  114OSM   H17G11938   1.800   2.070   9.959  1.4145  0.4528 -0.0357
  114OSM   C18F11939   1.810   2.120   9.759  0.1189  0.5280  0.1172
  114OSM   H18F11940   1.746   2.141   9.671 -1.2453 -3.2061  0.0241
  114OSM   H18G11941   1.857   2.022   9.738  0.6875  0.9443 -0.6224
  114OSM   H18H11942   1.893   2.192   9.778  0.2812  0.4161 -0.1575
  115OSM      N11943   1.039   6.682   6.201 -0.3683  0.2433 -0.3673
  115OSM    C1511944   0.926   6.597   6.248  0.5013 -0.2484  0.3308
  115OSM   H15A11945   0.867   6.654   6.318 -3.1489 -1.9855 -1.0743
  115OSM   H15B11946   0.966   6.512   6.300 -0.1436 -2.9984 -3.2806
  115OSM   H15C11947   0.862   6.559   6.169  2.9392 -0.8482 -1.4519
  115OSM    C1411948   1.110   6.605   6.087 -0.2449 -0.9104 -0.1467
  115OSM   H14A11949   1.166   6.523   6.130 -0.6515 -0.4789  1.2634
  115OSM   H14B11950   1.184   6.668   6.039 -0.4281 -1.9611 -1.9031
  115OSM   H14C11951   1.039   6.575   6.012  0.0249 -0.1110 -0.7373
  115OSM    C1311952   0.977   6.814   6.153 -0.3768  0.1794  0.3198
  115OSM   H13A11953   0.926   6.860   6.237  0.7357 -0.0925  1.1681
  115OSM   H13B11954   0.907   6.796   6.073  0.5919 -1.7751 -0.1295
  115OSM   H13C11955   1.043   6.895   6.125  0.6793 -0.6077  0.5148
  115OSM    C1211956   1.139   6.723   6.310  0.0339 -0.3698  0.4429
  115OSM   H12A11957   1.082   6.789   6.372  1.4288  0.3140  1.0416
  115OSM   H12B11958   1.225   6.773   6.266  2.0599 -1.8247  2.5314
  115OSM    C1111959   1.186   6.615   6.412 -0.3784 -0.3223  0.3490
  115OSM   H11A11960   1.103   6.551   6.448 -1.6366 -1.8220 -4.5299
  115OSM   H11B11961   1.224   6.666   6.504 -3.3971 -0.6874  1.9171
  115OSM      P11962   1.436   6.566   6.363 -0.1199 -0.5322  0.5796
  115OSM    O1311963   1.516   6.459   6.301  0.3526  0.2649  0.2395
  115OSM    O1411964   1.446   6.702   6.312 -0.4321  0.8780  0.5815
  115OSM    O1111965   1.470   6.565   6.519  0.4447 -0.1892  0.2225
  115OSM    O1211966   1.285   6.532   6.356  0.2694  0.5608  0.2108
  115OSM    C1S11967   1.445   6.446   6.591 -0.1091  0.4555  0.0522
  115OSM    H1S11968   1.531   6.378   6.576 -0.2651 -0.8066  3.7718
  115OSM    H1T11969   1.343   6.408   6.568  0.5920 -0.2973 -2.0876
  115OSM     NF11970   1.436   6.349   6.813  0.1414 -0.0611 -0.3751
  115OSM    HNF11971   1.350   6.342   6.863 -0.6235 -1.3582 -1.7649
  115OSM    C2S11972   1.449   6.473   6.748  0.2841 -0.2736  0.4103
  115OSM    H2S11973   1.546   6.523   6.769 -0.3463  0.9588  0.5019
  115OSM    C3S11974   1.343   6.581   6.797 -0.2328 -0.1624 -0.1742
  115OSM    H3S11975   1.243   6.536   6.779 -0.1722 -0.0137 -0.9445
  115OSM     O311976   1.344   6.698   6.721 -0.0244  0.3285 -0.0477
  115OSM    HO311977   1.391   6.674   6.641 -0.7706  0.4526 -0.5343
  115OSM    C4S11978   1.355   6.620   6.936 -0.5741 -0.1256 -0.0369
  115OSM    H4S11979   1.437   6.691   6.956 -0.8326 -0.1487  1.1828
  115OSM    C5S11980   1.269   6.597   7.045  0.8512 -0.1311  0.2486
  115OSM    H5S11981   1.176   6.538   7.036  1.6333 -1.2461 -1.0917
  115OSM    C6S11982   1.295   6.657   7.175  0.4112 -0.4648 -0.0290
  115OSM    H6S11983   1.222   6.734   7.208  0.8944  1.0458 -2.2512
  115OSM    H6T11984   1.392   6.712   7.174 -0.8962  1.9696 -1.3926
  115OSM    C7S11985   1.292   6.541   7.275 -0.4116 -0.1673  0.7010
  115OSM    H7S11986   1.373   6.475   7.238  2.2774  3.5025 -0.5592
  115OSM    H7T11987   1.195   6.487   7.265 -0.3592 -0.6773  2.6131
  115OSM    C8S11988   1.312   6.587   7.420  0.2884  0.5190 -0.6501
  115OSM    H8S11989   1.232   6.647   7.468  0.6790  1.2890 -0.9493
  115OSM    H8T11990   1.407   6.644   7.426  1.0758 -0.7384 -0.7562
  115OSM    C9S11991   1.325   6.454   7.506 -0.9503 -0.9985  0.4599
  115OSM    H9S11992   1.421   6.408   7.477 -0.6232  0.0785 -0.2291
  115OSM    H9T11993   1.244   6.392   7.462 -2.2332  1.2037 -0.4490
  115OSM   C10S11994   1.325   6.483   7.654  0.3356  0.5598 -0.5328
  115OSM   H10S11995   1.225   6.520   7.685 -0.0373  0.6140 -1.7408
  115OSM   H10T11996   1.406   6.556   7.680  0.1620  1.3017 -1.9451
  115OSM   C11S11997   1.365   6.353   7.734  1.0516  0.1717  0.1137
  115OSM   H11S11998   1.476   6.354   7.738  1.0356 -0.5390  1.3218
  115OSM   H11T11999   1.319   6.271   7.674 -0.2202  1.7175 -1.1101
  115OSM   C12S12000   1.316   6.344   7.883 -1.0725  0.3763  0.7459
  115OSM   H12S12001   1.206   6.337   7.886 -1.0583 -2.1172 -1.0723
  115OSM   H12T12002   1.348   6.440   7.930  3.1911 -1.7458  2.7949
  115OSM   C13S12003   1.374   6.213   7.958  0.4604 -0.6141  0.3725
  115OSM   H13S12004   1.482   6.235   7.969  0.1243  0.0409  3.3537
  115OSM   H13T12005   1.359   6.115   7.908  0.8698  0.1024 -1.2171
  115OSM   C14S12006   1.349   6.204   8.107 -0.4544  0.2006 -0.3927
  115OSM   H14S12007   1.414   6.134   8.163  0.2329  0.8077 -0.4099
  115OSM   H14T12008   1.242   6.178   8.120 -0.9790  1.6152 -1.5903
  115OSM   C15S12009   1.360   6.337   8.179 -0.0820 -0.2980  0.2028
  115OSM   H15S12010   1.290   6.408   8.131  0.7777 -1.0646 -2.3760
  115OSM   H15T12011   1.453   6.384   8.141 -0.1533 -0.7672 -0.5797
  115OSM   C16S12012   1.346   6.329   8.328  0.2618 -0.1191 -0.1541
  115OSM   H16S12013   1.426   6.390   8.375  1.7907 -0.3424 -2.2979
  115OSM   H16T12014   1.358   6.230   8.376  1.6695  0.2696  0.3179
  115OSM   C17S12015   1.199   6.360   8.379  0.3832 -0.2503 -0.3017
  115OSM   H17S12016   1.123   6.298   8.327 -0.8540  0.4030  0.6711
  115OSM   H17T12017   1.176   6.462   8.343  1.7301  0.2700  0.2594
  115OSM   C18S12018   1.166   6.358   8.526 -0.0464  0.3627 -0.4168
  115OSM   H18S12019   1.244   6.414   8.581  1.5514 -0.6957 -1.5396
  115OSM   H18T12020   1.170   6.252   8.557  1.7285 -0.1148 -2.1050
  115OSM   H18U12021   1.066   6.396   8.557  0.4217  0.0659  1.6349
  115OSM    C1F12022   1.522   6.250   6.807  0.1440  0.2133 -0.2820
  115OSM     OF12023   1.615   6.253   6.731 -0.8543 -0.4419  0.0692
  115OSM    C2F12024   1.504   6.154   6.911  0.2448 -0.8012  0.2065
  115OSM    H2F12025   1.577   6.071   6.906  0.5295 -0.5660  0.4433
  115OSM    H2G12026   1.407   6.101   6.907 -0.6436  0.7919 -1.2213
  115OSM    C3F12027   1.518   6.220   7.047  0.1575  0.0305 -0.4153
  115OSM    H3F12028   1.421   6.266   7.076 -0.3376 -0.7028 -0.8778
  115OSM    H3G12029   1.575   6.315   7.058 -1.3519  0.8765  0.5992
  115OSM    C4F12030   1.545   6.119   7.154  0.0463  0.0373  0.6035
  115OSM    H4F12031   1.632   6.058   7.121  0.8203  1.0361  0.7800
  115OSM    H4G12032   1.451   6.061   7.166 -1.0057  1.3647 -0.7593
  115OSM    C5F12033   1.585   6.180   7.292 -0.1945 -0.2355  0.6048
  115OSM    H5F12034   1.511   6.256   7.322  0.1901  0.4268 -0.0705
  115OSM    H5G12035   1.681   6.229   7.265 -0.1379 -0.4568  0.3930
  115OSM    C6F12036   1.606   6.080   7.404  0.0215  0.1408 -0.3310
  115OSM    H6F12037   1.657   5.985   7.376 -1.1155 -0.4812 -0.3422
  115OSM    H6G12038   1.506   6.046   7.437 -0.2599  0.6947 -0.6070
  115OSM    C7F12039   1.674   6.152   7.522 -0.7145  0.9686 -0.1418
  115OSM    H7F12040   1.635   6.255   7.536 -1.9129  0.8377 -2.1212
  115OSM    H7G12041   1.781   6.164   7.494 -0.1279 -0.3168  1.3629
  115OSM    C8F12042   1.651   6.090   7.662  0.6098 -0.6168  0.4071
  115OSM    H8F12043   1.614   5.987   7.646  1.0278 -0.5193 -1.3860
  115OSM    H8G12044   1.555   6.139   7.691 -0.0930 -0.7344 -1.5457
  115OSM    C9F12045   1.761   6.106   7.766 -0.2574 -0.1505 -0.4423
  115OSM    H9F12046   1.787   6.210   7.790 -2.8308  0.7080 -1.0528
  115OSM   C10F12047   1.837   6.009   7.809  0.7641  0.2428 -0.1167
  115OSM   H10F12048   1.903   6.026   7.896  1.9015 -2.7224 -0.2654
  115OSM   C11F12049   1.826   5.858   7.785 -0.5144  0.2698  0.0262
  115OSM   H11F12050   1.728   5.829   7.741 -0.7177 -0.4444  0.9049
  115OSM   H11G12051   1.819   5.808   7.884 -1.2894 -0.9926 -0.6306
  115OSM   C12F12052   1.937   5.790   7.692 -0.1969 -0.0500 -0.1538
  115OSM   H12F12053   1.926   5.682   7.670  1.3789  0.0210 -1.5335
  115OSM   H12G12054   2.032   5.802   7.748 -2.2375 -0.2985  3.6855
  115OSM   C13F12055   1.941   5.859   7.556 -0.2378  0.3244  0.3340
  115OSM   H13F12056   2.019   5.937   7.542  0.1932 -0.3110 -0.9914
  115OSM   H13G12057   1.844   5.907   7.533 -1.4155 -1.9383  0.3458
  115OSM   C14F12058   1.964   5.753   7.451 -0.5765 -0.6832  0.0986
  115OSM   H14F12059   1.894   5.668   7.463 -1.2830 -0.0046  0.9386
  115OSM   H14G12060   2.064   5.705   7.453 -0.7119 -1.3407 -3.1922
  115OSM   C15F12061   1.956   5.796   7.304 -0.4021  0.3397  0.0669
  115OSM   H15F12062   1.852   5.828   7.285 -0.9735 -2.0189 -1.0741
  115OSM   H15G12063   1.984   5.708   7.243  2.9074  1.6789 -0.5818
  115OSM   C16F12064   2.042   5.918   7.267  0.0275  0.0781 -0.0864
  115OSM   H16F12065   2.141   5.894   7.310 -0.1951  0.4996  0.6674
  115OSM   H16G12066   1.998   5.996   7.333  1.4850 -0.8517  2.0803
  115OSM   C17F12067   2.049   5.953   7.121 -0.5612  0.7501 -0.1317
  115OSM   H17F12068   2.101   5.869   7.072  0.8594  0.3509  1.9231
  115OSM   H17G12069   2.114   6.043   7.116  1.3669 -0.0816  4.5402
  115OSM   C18F12070   1.916   5.967   7.046 -0.3647 -0.1869 -0.4325
  115OSM   H18F12071   1.865   5.870   7.026  0.2886 -0.8135  0.7532
  115OSM   H18G12072   1.941   6.015   6.949  0.2863  0.8694  0.2401
  115OSM   H18H12073   1.834   6.022   7.095  1.0423 -0.0080  1.8787
  116OSM      N12074   1.074   3.439   6.131  0.1280  0.4967 -0.1360
  116OSM    C1512075   1.134   3.575   6.131  0.7170 -0.1128  0.1891
  116OSM   H15A12076   1.236   3.573   6.096  0.1821 -3.4983 -1.6431
  116OSM   H15B12077   1.136   3.614   6.232  2.1607 -0.0036  0.1315
  116OSM   H15C12078   1.074   3.633   6.062 -2.4289 -1.3912  1.6331
  116OSM    C1412079   1.062   3.395   5.988  0.5181 -0.1455 -0.6268
  116OSM   H14A12080   0.996   3.472   5.949  1.6938  1.3683  0.2394
  116OSM   H14B12081   0.997   3.311   5.974 -0.7952  0.6520  0.4731
  116OSM   H14C12082   1.155   3.394   5.931  0.5812  0.1119 -0.5318
  116OSM    C1312083   1.156   3.347   6.205 -0.7224  0.6229  0.1411
  116OSM   H13A12084   1.261   3.366   6.191 -0.2837  0.8738  3.1811
  116OSM   H13B12085   1.148   3.243   6.177 -2.3202  1.4029 -2.7378
  116OSM   H13C12086   1.124   3.356   6.308 -1.8165 -1.5082  0.0507
  116OSM    C1212087   0.929   3.440   6.188 -0.3919 -0.5453  1.4328
  116OSM   H12A12088   0.875   3.352   6.154  1.0945 -0.3890 -1.6855
  116OSM   H12B12089   0.872   3.516   6.138 -1.3135 -1.2263  1.4071
  116OSM    C1112090   0.911   3.454   6.345  0.3177  0.3641  0.1541
  116OSM   H11A12091   0.802   3.471   6.364  0.3118 -0.1631  0.6049
  116OSM   H11B12092   0.967   3.544   6.379 -1.1358  1.7809 -1.0189
  116OSM      P12093   0.872   3.202   6.423 -0.4306 -0.2216 -0.4974
  116OSM    O1312094   0.752   3.199   6.345 -0.4068  0.1885  0.4620
  116OSM    O1412095   0.966   3.084   6.402  0.7931 -0.3864  0.1915
  116OSM    O1112096   0.828   3.203   6.577 -0.1022 -0.1950 -0.0938
  116OSM    O1212097   0.952   3.338   6.411  0.1927  0.1099  0.2660
  116OSM    C1S12098   0.911   3.138   6.675 -0.4980  0.0871 -0.2816
  116OSM    H1S12099   1.016   3.174   6.666 -0.4141  0.8704  2.7589
  116OSM    H1T12100   0.909   3.027   6.666 -1.3882  0.0670  0.1434
  116OSM     NF12101   0.976   3.116   6.908  0.8692  0.3976  0.1657
  116OSM    HNF12102   0.948   3.030   6.950 -1.5689  0.5484 -0.9579
  116OSM    C2S12103   0.870   3.168   6.819 -0.7609 -0.2290  0.2616
  116OSM    H2S12104   0.860   3.278   6.832  2.3223  0.4629 -2.0995
  116OSM    C3S12105   0.729   3.115   6.853  0.2990 -0.0489  0.4305
  116OSM    H3S12106   0.736   3.005   6.856  0.8819 -0.0594 -0.8057
  116OSM     O312107   0.629   3.141   6.756  0.1253 -0.1090  0.3882
  116OSM    HO312108   0.686   3.168   6.684 -0.9259  2.2841  0.3322
  116OSM    C4S12109   0.692   3.159   6.991  0.1637  0.6471 -0.3591
  116OSM    H4S12110   0.674   3.265   7.013 -2.1374  0.0207  1.1815
  116OSM    C5S12111   0.663   3.076   7.092 -0.0382  0.1014  0.9851
  116OSM    H5S12112   0.670   2.968   7.069 -0.3593  0.0938  0.9182
  116OSM    C6S12113   0.617   3.124   7.226 -0.2313 -0.4581  0.4472
  116OSM    H6S12114   0.506   3.114   7.231 -0.4310  1.8479  1.4879
  116OSM    H6T12115   0.639   3.232   7.237  1.2138 -0.6821  0.0395
  116OSM    C7S12116   0.681   3.033   7.330 -0.0111 -0.2632  0.8108
  116OSM    H7S12117   0.789   3.060   7.332 -0.8932  3.9362 -0.1152
  116OSM    H7T12118   0.668   2.924   7.312  0.3407  0.0040 -1.3115
  116OSM    C8S12119   0.621   3.071   7.467  0.2875 -0.7030  0.5139
  116OSM    H8S12120   0.516   3.037   7.475 -0.8294  2.5991  1.4955
  116OSM    H8T12121   0.606   3.181   7.466  0.4333 -0.6873 -0.0003
  116OSM    C9S12122   0.715   3.030   7.580  0.1440  0.1425 -0.6712
  116OSM    H9S12123   0.801   3.098   7.563 -0.2914  0.5136 -1.4557
  116OSM    H9T12124   0.741   2.922   7.576 -0.8721 -0.1300 -0.3865
  116OSM   C10S12125   0.639   3.065   7.713 -0.8963 -0.2023  0.2603
  116OSM   H10S12126   0.539   3.020   7.695 -0.7248  0.0102 -1.3448
  116OSM   H10T12127   0.632   3.175   7.725  1.0246 -0.2125  1.9574
  116OSM   C11S12128   0.707   3.015   7.841  0.2337 -0.3550  1.1579
  116OSM   H11S12129   0.758   3.088   7.907  1.9220 -0.9994  0.6307
  116OSM   H11T12130   0.791   2.952   7.803  1.7038  2.3198 -0.3894
  116OSM   C12S12131   0.609   2.926   7.922  0.5973 -0.0029 -0.3626
  116OSM   H12S12132   0.672   2.872   7.996 -0.1256  1.5066  1.4002
  116OSM   H12T12133   0.554   2.853   7.858 -0.5371 -0.4142  1.0443
  116OSM   C13S12134   0.505   2.991   8.012  0.3625  0.0869 -0.1751
  116OSM   H13S12135   0.433   3.049   7.950  0.8688 -0.0769 -0.9336
  116OSM   H13T12136   0.557   3.068   8.073 -1.1303  0.2136  0.9951
  116OSM   C14S12137   0.440   2.890   8.110 -0.1836 -0.6311  0.2926
  116OSM   H14S12138   0.526   2.855   8.171 -0.0621 -1.2823 -0.2374
  116OSM   H14T12139   0.406   2.803   8.051 -2.9331  0.8907 -0.5270
  116OSM   C15S12140   0.317   2.938   8.195 -0.3207 -0.4255  0.0846
  116OSM   H15S12141   0.237   2.969   8.124  1.6452  0.7242 -1.7190
  116OSM   H15T12142   0.339   3.018   8.269  1.0803 -0.1437 -0.6163
  116OSM   C16S12143   0.274   2.815   8.287  0.9115  0.6295 -0.0229
  116OSM   H16S12144   0.369   2.786   8.337 -0.2068 -2.0715  0.7299
  116OSM   H16T12145   0.235   2.731   8.226 -1.1264  0.9351  0.7512
  116OSM   C17S12146   0.168   2.842   8.400  0.0843  0.9352  0.1035
  116OSM   H17S12147   0.208   2.924   8.463  2.2660 -0.2932  0.4360
  116OSM   H17T12148   0.159   2.756   8.471 -1.6221  1.1433  0.1834
  116OSM   C18S12149   0.033   2.889   8.344 -1.2380 -0.1327 -0.2012
  116OSM   H18S12150  -0.003   2.823   8.262  0.0107 -1.1211  0.0156
  116OSM   H18T12151   0.042   2.992   8.302  4.1358  0.2955  1.2296
  116OSM   H18U12152  -0.048   2.906   8.418 -1.9324 -1.5119 -0.6048
  116OSM    C1F12153   1.090   3.169   6.923 -0.3529 -1.0054 -0.5060
  116OSM     OF12154   1.123   3.273   6.867  0.2952  0.6867  0.1539
  116OSM    C2F12155   1.187   3.101   7.012  0.1691  0.2359 -0.6797
  116OSM    H2F12156   1.275   3.168   7.022  1.2003 -1.1520 -0.1824
  116OSM    H2G12157   1.226   3.010   6.962  0.8847  0.5817 -0.7542
  116OSM    C3F12158   1.133   3.065   7.153 -0.2284 -0.2134  0.0557
  116OSM    H3F12159   1.068   2.977   7.133  1.9664 -1.7356 -0.7762
  116OSM    H3G12160   1.072   3.151   7.189  1.2013  1.1460 -0.6380
  116OSM    C4F12161   1.246   3.036   7.250  0.2520  0.8808 -0.5757
  116OSM    H4F12162   1.299   3.132   7.269  0.6369  0.7117 -0.7904
  116OSM    H4G12163   1.322   2.974   7.199 -1.0224 -1.0623 -0.1994
  116OSM    C5F12164   1.210   2.973   7.387  0.4469 -0.6220  0.0714
  116OSM    H5F12165   1.298   2.955   7.452  0.3752  0.8611  0.6161
  116OSM    H5G12166   1.161   2.876   7.365  0.8658 -0.7320 -0.3942
  116OSM    C6F12167   1.106   3.055   7.465 -0.2668 -0.2167  0.5288
  116OSM    H6F12168   1.032   3.100   7.396 -0.3052 -0.0109  0.7023
  116OSM    H6G12169   1.157   3.146   7.503  1.4814 -0.3706 -1.3055
  116OSM    C7F12170   1.045   2.975   7.580 -0.0284  0.4851  0.0779
  116OSM    H7F12171   0.962   2.919   7.533 -1.1763  0.5669  1.8874
  116OSM    H7G12172   0.996   3.045   7.651  0.3344 -0.3392  1.1725
  116OSM    C8F12173   1.125   2.868   7.656  0.1466 -0.6307 -0.4303
  116OSM    H8F12174   1.169   2.798   7.581  1.1604  0.5774 -0.9831
  116OSM    H8G12175   1.050   2.810   7.714  0.8890 -0.4350  0.7669
  116OSM    C9F12176   1.232   2.919   7.739 -0.0536  1.0386 -0.1055
  116OSM    H9F12177   1.332   2.934   7.696  0.1337  1.1357  0.3578
  116OSM   C10F12178   1.224   2.937   7.868  0.0614  0.3368  0.0284
  116OSM   H10F12179   1.314   2.979   7.917  1.5958 -0.4986 -1.9326
  116OSM   C11F12180   1.100   2.902   7.949 -0.2779 -0.4064  0.3239
  116OSM   H11F12181   1.065   2.799   7.928  0.3036 -0.5780  0.1805
  116OSM   H11G12182   1.019   2.973   7.921  0.7662  0.3377 -0.9090
  116OSM   C12F12183   1.112   2.922   8.103  0.2211 -1.1928  0.9330
  116OSM   H12F12184   1.012   2.906   8.147  0.1699  0.7908  1.6439
  116OSM   H12G12185   1.139   3.027   8.128 -0.6899 -0.7498  0.1029
  116OSM   C13F12186   1.214   2.835   8.168  0.0791  0.4097 -0.2074
  116OSM   H13F12187   1.310   2.865   8.121 -0.5395  2.8066 -0.0791
  116OSM   H13G12188   1.199   2.727   8.146  0.0854  0.4079 -0.2027
  116OSM   C14F12189   1.229   2.842   8.327 -0.0129 -0.3611 -0.6497
  116OSM   H14F12190   1.261   2.943   8.362 -4.1689  0.7988  0.4270
  116OSM   H14G12191   1.313   2.771   8.345  0.0455 -0.0552  0.3444
  116OSM   C15F12192   1.106   2.802   8.405  0.1002  1.1253  0.7213
  116OSM   H15F12193   1.095   2.696   8.373  2.5431  0.2981  2.3122
  116OSM   H15G12194   1.025   2.862   8.359  1.5097  1.5565 -1.3237
  116OSM   C16F12195   1.113   2.816   8.555 -0.4220  0.4540 -0.2347
  116OSM   H16F12196   1.211   2.769   8.578 -0.9146 -2.2916 -3.0666
  116OSM   H16G12197   1.040   2.756   8.612  1.6583 -0.9113  1.1273
  116OSM   C17F12198   1.093   2.964   8.589 -0.5029  0.0208  0.1117
  116OSM   H17F12199   0.997   2.995   8.543 -0.6994  2.1224  1.7846
  116OSM   H17G12200   1.173   3.022   8.538 -1.4340  0.6556 -0.6735
  116OSM   C18F12201   1.063   2.982   8.738 -0.6071  0.4997  1.1794
  116OSM   H18F12202   1.155   2.949   8.791  1.6225  0.1010 -2.5712
  116OSM   H18G12203   0.986   2.905   8.763  0.1826 -1.0662 -0.8772
  116OSM   H18H12204   1.045   3.085   8.775  0.7077  1.4089 -0.5903
  117OSM      N12205   0.485   4.060   6.326  0.2933 -0.3704  0.0957
  117OSM    C1512206   0.459   4.105   6.181 -0.4980  0.4330 -0.2747
  117OSM   H15A12207   0.532   4.178   6.146 -0.3350 -0.2456 -1.3777
  117OSM   H15B12208   0.368   4.158   6.156 -0.8844 -0.9506 -1.9424
  117OSM   H15C12209   0.466   4.016   6.120 -0.1148  0.3889 -0.1693
  117OSM    C1412210   0.384   3.951   6.358 -0.5997  0.7536  0.0579
  117OSM   H14A12211   0.287   3.999   6.351 -0.9198  0.3692  1.4802
  117OSM   H14B12212   0.397   3.907   6.456 -0.3472 -0.7997 -0.6464
  117OSM   H14C12213   0.396   3.872   6.286 -1.2096  0.4513  0.2790
  117OSM    C1312214   0.619   4.009   6.331  0.0477  0.1030 -0.2873
  117OSM   H13A12215   0.638   3.979   6.433 -1.5057 -0.5198 -0.1534
  117OSM   H13B12216   0.687   4.085   6.295 -3.1481  2.5683 -1.6295
  117OSM   H13C12217   0.625   3.928   6.260  1.6434 -0.8365  0.8517
  117OSM    C1212218   0.467   4.182   6.425 -0.0505  0.1601  0.2011
  117OSM   H12A12219   0.370   4.223   6.403  1.2279  2.4616 -1.6855
  117OSM   H12B12220   0.548   4.253   6.412  0.2914  0.0541  1.6145
  117OSM    C1112221   0.477   4.150   6.574  0.1432 -0.2406 -0.3288
  117OSM   H11A12222   0.395   4.076   6.587 -0.6293  0.6267 -0.1561
  117OSM   H11B12223   0.441   4.240   6.628  1.7633 -0.2821  0.9069
  117OSM      P12224   0.717   4.212   6.652  0.1391  0.1984 -0.1708
  117OSM    O1312225   0.842   4.136   6.663 -0.1607  0.0708  0.8799
  117OSM    O1412226   0.707   4.319   6.548 -0.7048  0.1679  0.2479
  117OSM    O1112227   0.665   4.258   6.791 -0.4218  0.9479 -0.4023
  117OSM    O1212228   0.612   4.103   6.609 -0.1888  0.1869  0.6891
  117OSM    C1S12229   0.649   4.165   6.897  0.1065  0.6469 -0.6092
  117OSM    H1S12230   0.751   4.137   6.931  1.5506  0.6424 -4.4215
  117OSM    H1T12231   0.591   4.076   6.863  0.2586  0.1829  0.3145
  117OSM     NF12232   0.588   4.112   7.124 -0.1800 -0.0932  0.2561
  117OSM    HNF12233   0.504   4.079   7.168  0.0060 -0.7739  0.1094
  117OSM    C2S12234   0.578   4.218   7.018 -0.1812 -0.0382  0.0234
  117OSM    H2S12235   0.622   4.317   7.041 -0.3688  0.3390 -1.1523
  117OSM    C3S12236   0.434   4.257   6.973  0.8630 -0.1837  0.0573
  117OSM    H3S12237   0.375   4.165   6.954  1.0920 -0.1891 -0.6656
  117OSM     O312238   0.425   4.335   6.851  0.7698  0.1101  0.0701
  117OSM    HO312239   0.511   4.344   6.808  0.4512 -1.1064 -0.8705
  117OSM    C4S12240   0.366   4.314   7.104  0.2194  0.3473  0.4882
  117OSM    H4S12241   0.345   4.241   7.184 -0.1375 -0.5177 -0.3831
  117OSM    C5S12242   0.337   4.442   7.130  0.1925  0.5316  0.2272
  117OSM    H5S12243   0.358   4.518   7.053 -2.0853  0.2356 -0.7744
  117OSM    C6S12244   0.288   4.500   7.263  0.6994 -0.4592  0.4900
  117OSM    H6S12245   0.179   4.520   7.257  0.8955  0.2850 -2.1322
  117OSM    H6T12246   0.330   4.602   7.255  1.1592 -0.7881 -3.4565
  117OSM    C7S12247   0.337   4.421   7.387  0.8797 -0.6275 -0.4417
  117OSM    H7S12248   0.306   4.315   7.381  3.2596 -1.4517  0.7816
  117OSM    H7T12249   0.296   4.475   7.475  2.5360  1.1028 -0.6691
  117OSM    C8S12250   0.493   4.426   7.402 -0.0852 -0.0843 -0.2766
  117OSM    H8S12251   0.527   4.529   7.381 -0.7314  0.3709  0.8133
  117OSM    H8T12252   0.519   4.353   7.323 -1.1731 -1.0269  0.2026
  117OSM    C9S12253   0.537   4.391   7.547 -0.6457  0.6330  0.7191
  117OSM    H9S12254   0.490   4.291   7.560 -0.8621 -0.1601 -4.2222
  117OSM    H9T12255   0.501   4.461   7.625  0.4563  1.0249  0.8972
  117OSM   C10S12256   0.694   4.379   7.553 -0.1817 -0.1005 -0.1502
  117OSM   H10S12257   0.747   4.476   7.554 -1.9215  0.9139 -0.9982
  117OSM   H10T12258   0.720   4.320   7.463 -2.3463  1.6342 -2.0330
  117OSM   C11S12259   0.725   4.300   7.682 -0.3349  0.0802 -0.4701
  117OSM   H11S12260   0.827   4.258   7.668 -0.7530 -2.0481  2.1196
  117OSM   H11T12261   0.659   4.211   7.684 -1.8048  1.1517  0.2370
  117OSM   C12S12262   0.727   4.383   7.811 -0.3501 -0.3457 -0.0379
  117OSM   H12S12263   0.620   4.403   7.829 -0.2434  1.0808 -0.8404
  117OSM   H12T12264   0.773   4.483   7.794 -2.0013  0.3483 -0.6272
  117OSM   C13S12265   0.806   4.310   7.927  0.0624  0.1995  1.3478
  117OSM   H13S12266   0.909   4.289   7.890  0.0785 -1.2257  2.1443
  117OSM   H13T12267   0.762   4.209   7.939  1.1451 -0.6333 -1.0034
  117OSM   C14S12268   0.803   4.369   8.064 -0.3445 -0.4104 -0.4507
  117OSM   H14S12269   0.698   4.371   8.100 -1.5186  1.1628 -3.5964
  117OSM   H14T12270   0.839   4.474   8.053 -1.2486  0.0752  0.9448
  117OSM   C15S12271   0.903   4.288   8.155  0.8657  0.6692  0.0649
  117OSM   H15S12272   1.009   4.300   8.123  0.8769 -1.7223 -1.0143
  117OSM   H15T12273   0.874   4.184   8.133  2.5114  0.0002  0.8541
  117OSM   C16S12274   0.875   4.310   8.298  0.2404 -0.5255  0.1116
  117OSM   H16S12275   0.768   4.287   8.318  0.6764  0.1725  4.0029
  117OSM   H16T12276   0.877   4.415   8.333 -1.1446  0.4308 -2.4086
  117OSM   C17S12277   0.967   4.229   8.385 -0.3114  0.6218 -0.6601
  117OSM   H17S12278   1.065   4.213   8.337 -0.4773 -0.6108 -0.6079
  117OSM   H17T12279   0.924   4.130   8.409  1.2638 -0.1352 -0.8560
  117OSM   C18S12280   0.995   4.295   8.525  0.3689  0.0853  0.4248
  117OSM   H18S12281   1.041   4.396   8.520 -2.9135  1.6518 -1.4762
  117OSM   H18T12282   1.059   4.222   8.579 -1.2327 -3.6939 -2.3256
  117OSM   H18U12283   0.901   4.306   8.584 -0.2275 -1.6803 -0.1334
  117OSM    C1F12284   0.705   4.074   7.178  0.3991 -0.0024 -0.8766
  117OSM     OF12285   0.809   4.135   7.149  0.2589 -0.1475  0.2141
  117OSM    C2F12286   0.702   3.955   7.273  0.4690 -0.0843 -0.1296
  117OSM    H2F12287   0.791   3.891   7.258  0.4817 -0.0758 -0.0902
  117OSM    H2G12288   0.616   3.890   7.246 -0.0713  0.2823  0.6735
  117OSM    C3F12289   0.680   4.008   7.413 -0.3867  0.1634  0.1339
  117OSM    H3F12290   0.584   4.064   7.417 -0.3480  0.1902  0.9069
  117OSM    H3G12291   0.763   4.078   7.436 -0.3741 -0.0058  0.6153
  117OSM    C4F12292   0.679   3.893   7.517  0.1388 -0.0022  0.0204
  117OSM    H4F12293   0.762   3.826   7.488 -2.2174 -2.9823 -0.3639
  117OSM    H4G12294   0.588   3.832   7.498 -1.0451  1.5333  0.5429
  117OSM    C5F12295   0.680   3.947   7.657 -0.0399  0.3832  0.1139
  117OSM    H5F12296   0.587   4.002   7.684 -1.2540 -0.8480 -1.4266
  117OSM    H5G12297   0.771   4.011   7.658  1.6471 -1.8421 -1.5028
  117OSM    C6F12298   0.709   3.846   7.770 -1.0552 -0.2205  0.1248
  117OSM    H6F12299   0.792   3.775   7.748  0.1437  1.0153  0.5485
  117OSM    H6G12300   0.618   3.782   7.772 -1.6533  0.6084  1.8780
  117OSM    C7F12301   0.725   3.919   7.901 -0.0735 -0.6638 -0.5525
  117OSM    H7F12302   0.628   3.971   7.922  0.0390 -0.5320 -0.3492
  117OSM    H7G12303   0.804   3.996   7.895  0.2215 -0.5821  2.5507
  117OSM    C8F12304   0.755   3.825   8.023  0.1148  0.3220  0.2884
  117OSM    H8F12305   0.678   3.746   8.009  2.2397 -2.0307  1.2006
  117OSM    H8G12306   0.735   3.871   8.122 -2.3209 -2.6028  1.3354
  117OSM    C9F12307   0.890   3.760   8.011 -0.1914  0.7468  0.1170
  117OSM    H9F12308   0.944   3.795   7.922  0.0648 -0.2564 -0.1294
  117OSM   C10F12309   0.944   3.651   8.077 -0.4600 -1.0050  0.5308
  117OSM   H10F12310   1.038   3.615   8.033 -0.9071  0.4343 -1.7679
  117OSM   C11F12311   0.891   3.578   8.196  0.0047 -0.3379 -0.0963
  117OSM   H11F12312   0.888   3.473   8.161 -1.3706 -0.3451  0.0226
  117OSM   H11G12313   0.789   3.605   8.229  0.8724  1.0201  1.6626
  117OSM   C12F12314   0.982   3.592   8.320 -0.1201  0.6457  0.0906
  117OSM   H12F12315   0.929   3.555   8.411 -0.4418 -0.7491 -0.6303
  117OSM   H12G12316   1.000   3.700   8.339 -1.3853  0.4475  2.8714
  117OSM   C13F12317   1.119   3.516   8.301  0.1755 -0.2359 -0.6347
  117OSM   H13F12318   1.178   3.573   8.226 -0.4127  1.6275  0.2726
  117OSM   H13G12319   1.091   3.421   8.250 -1.6027  0.8690 -1.7829
  117OSM   C14F12320   1.188   3.484   8.430 -0.6143  0.7738  0.0690
  117OSM   H14F12321   1.129   3.407   8.483 -2.3131 -0.7438 -3.6226
  117OSM   H14G12322   1.182   3.573   8.495 -0.5517  0.7190  0.1502
  117OSM   C15F12323   1.333   3.444   8.402  0.4105  0.3560 -0.5624
  117OSM   H15F12324   1.385   3.525   8.347 -0.2634  1.8995  0.9899
  117OSM   H15G12325   1.338   3.347   8.347 -1.5937  0.2663 -0.6515
  117OSM   C16F12326   1.426   3.432   8.533  0.0346 -0.8477  0.4626
  117OSM   H16F12327   1.423   3.531   8.583  1.6624 -1.4850  1.9405
  117OSM   H16G12328   1.534   3.429   8.506  0.4256  0.5547  1.7447
  117OSM   C17F12329   1.394   3.330   8.636  0.4400 -0.8017 -0.7944
  117OSM   H17F12330   1.289   3.339   8.670  0.4117  1.9214 -1.3224
  117OSM   H17G12331   1.412   3.231   8.589  0.8494 -0.2241 -1.8908
  117OSM   C18F12332   1.483   3.339   8.763  0.1308  0.3601 -1.0399
  117OSM   H18F12333   1.459   3.441   8.800 -1.1006  0.8388 -2.9889
  117OSM   H18G12334   1.589   3.336   8.729 -0.4663  1.0739 -3.1264
  117OSM   H18H12335   1.453   3.263   8.838  1.5032  1.0777  0.2872
  118OSM      N12336   1.824   6.641   6.449  0.4581  0.3666 -0.2308
  118OSM    C1512337   1.778   6.624   6.591  0.1184 -0.1532  0.6019
  118OSM   H15A12338   1.785   6.714   6.651 -0.4334  0.7215 -0.6145
  118OSM   H15B12339   1.837   6.546   6.637  0.9287 -0.4318 -0.8309
  118OSM   H15C12340   1.674   6.597   6.598  0.1458 -0.6157 -0.5859
  118OSM    C1412341   1.806   6.517   6.371 -0.2219  0.2714  0.5587
  118OSM   H14A12342   1.704   6.501   6.341  0.4889 -2.6432 -0.6657
  118OSM   H14B12343   1.839   6.424   6.417 -0.2689 -0.6662 -1.2385
  118OSM   H14C12344   1.866   6.527   6.282 -1.4391 -0.7464 -0.4133
  118OSM    C1312345   1.755   6.752   6.391  0.4943 -0.9956  0.1835
  118OSM   H13A12346   1.762   6.758   6.283  0.9485  0.2087  0.2717
  118OSM   H13B12347   1.794   6.848   6.421  1.7577 -1.5144  0.2759
  118OSM   H13C12348   1.649   6.739   6.406 -0.0936  0.4576 -2.1321
  118OSM    C1212349   1.970   6.663   6.457  0.1110 -0.0715  0.2934
  118OSM   H12A12350   2.016   6.590   6.521  2.9559  0.1605 -1.2994
  118OSM   H12B12351   1.978   6.759   6.505 -0.2070  0.1419 -0.0651
  118OSM    C1112352   2.050   6.692   6.326 -0.4179 -0.1821 -0.6725
  118OSM   H11A12353   1.986   6.755   6.261 -0.3084 -0.6273 -1.2320
  118OSM   H11B12354   2.075   6.604   6.261 -0.2372 -0.9216  0.3724
  118OSM      P12355   2.299   6.684   6.408  0.2107  0.2543  0.1454
  118OSM    O1312356   2.243   6.586   6.506 -0.1939 -0.5606  0.0457
  118OSM    O1412357   2.376   6.621   6.301 -0.0337 -0.2667 -0.1283
  118OSM    O1112358   2.380   6.798   6.468  0.4169  0.2984  0.0197
  118OSM    O1212359   2.175   6.759   6.344  0.0410 -0.0711  0.7027
  118OSM    C1S12360   2.350   6.866   6.594 -0.4102  0.4683  0.2620
  118OSM    H1S12361   2.243   6.855   6.623 -0.1867  0.1158  0.9891
  118OSM    H1T12362   2.361   6.975   6.580  0.7941  0.2697 -0.4106
  118OSM     NF12363   2.409   6.882   6.833  0.5576 -1.0076 -0.5487
  118OSM    HNF12364   2.477   6.939   6.878  0.6928 -0.9454 -0.8276
  118OSM    C2S12365   2.441   6.811   6.712  0.7454  0.2252 -0.3150
  118OSM    H2S12366   2.409   6.707   6.734  0.2704  0.8282  2.0514
  118OSM    C3S12367   2.591   6.812   6.682  0.9380  0.0976  0.5809
  118OSM    H3S12368   2.613   6.921   6.670 -0.5941  0.5089  1.2865
  118OSM     O312369   2.627   6.748   6.560  0.0030  0.0808 -0.4827
  118OSM    HO312370   2.548   6.770   6.510  0.2074  0.3339 -0.7018
  118OSM    C4S12371   2.668   6.752   6.796 -0.1851  0.9336 -0.0552
  118OSM    H4S12372   2.640   6.651   6.831  0.8549  0.8461  0.5732
  118OSM    C5S12373   2.774   6.809   6.860  0.3411 -0.4929 -0.8296
  118OSM    H5S12374   2.804   6.905   6.817 -1.3598  0.5231  0.1158
  118OSM    C6S12375   2.844   6.754   6.977  0.0693 -0.4804  0.0763
  118OSM    H6S12376   2.830   6.830   7.058  0.7375  0.5096 -0.7097
  118OSM    H6T12377   2.951   6.742   6.951 -0.2734  1.1039 -2.4152
  118OSM    C7S12378   2.791   6.619   7.028  0.2469  0.5042  0.1065
  118OSM    H7S12379   2.797   6.539   6.952  1.5807  0.5909  0.1036
  118OSM    H7T12380   2.686   6.629   7.063  0.7445  0.8723  1.5950
  118OSM    C8S12381   2.879   6.566   7.140 -0.7811  0.1069 -0.5280
  118OSM    H8S12382   2.869   6.637   7.226 -1.3101  1.9836 -2.0677
  118OSM    H8T12383   2.984   6.554   7.106 -0.5583 -1.2097  0.5316
  118OSM    C9S12384   2.846   6.427   7.191  0.3438  0.4172 -0.3711
  118OSM    H9S12385   2.855   6.352   7.110  2.4383  0.5772 -0.3436
  118OSM    H9T12386   2.737   6.418   7.214  0.2315  0.9942 -0.6499
  118OSM   C10S12387   2.928   6.388   7.313 -0.2964 -0.2123  0.1908
  118OSM   H10S12388   2.928   6.475   7.383  2.2529  1.3929 -1.6136
  118OSM   H10T12389   3.033   6.361   7.287 -0.7297 -2.6714  0.7717
  118OSM   C11S12390   2.859   6.276   7.389 -0.2795 -0.1374 -0.3260
  118OSM   H11S12391   2.932   6.201   7.427 -0.2080  0.1479  0.1028
  118OSM   H11T12392   2.800   6.225   7.310 -1.8258  0.7087  0.2467
  118OSM   C12S12393   2.761   6.305   7.510 -0.5109  0.0318  0.6797
  118OSM   H12S12394   2.704   6.211   7.530  0.5179 -1.0291 -1.0737
  118OSM   H12T12395   2.686   6.377   7.473 -0.2776  0.3538  0.8317
  118OSM   C13S12396   2.838   6.354   7.638 -0.1314 -0.0494  0.1652
  118OSM   H13S12397   2.905   6.435   7.604 -1.6452  0.5005 -1.6635
  118OSM   H13T12398   2.893   6.268   7.681 -2.0906 -1.7931 -0.5984
  118OSM   C14S12399   2.750   6.406   7.759  0.0105  0.2197  0.2109
  118OSM   H14S12400   2.682   6.487   7.727  0.3689  0.0333 -1.0639
  118OSM   H14T12401   2.821   6.448   7.834  1.2225 -1.6999  0.2179
  118OSM   C15S12402   2.684   6.291   7.839 -0.4326  0.1346 -0.4405
  118OSM   H15S12403   2.757   6.208   7.856 -0.8097 -0.4587 -1.5504
  118OSM   H15T12404   2.619   6.237   7.767 -0.6704  0.6434 -0.6083
  118OSM   C16S12405   2.604   6.346   7.963  0.2688 -0.2549  0.2392
  118OSM   H16S12406   2.677   6.370   8.044  0.9416 -1.7917  0.1236
  118OSM   H16T12407   2.550   6.261   8.009 -0.3419  0.3851  0.7126
  118OSM   C17S12408   2.514   6.473   7.936 -0.5787  0.1248  0.4863
  118OSM   H17S12409   2.582   6.561   7.925 -0.3659  0.2220  2.2753
  118OSM   H17T12410   2.480   6.498   8.039  2.1302  2.2791  0.9966
  118OSM   C18S12411   2.407   6.457   7.826 -1.3335  0.3082 -0.1981
  118OSM   H18S12412   2.368   6.355   7.847  1.6805 -0.6103  1.6988
  118OSM   H18T12413   2.448   6.452   7.723 -0.4758  1.6674  0.0559
  118OSM   H18U12414   2.336   6.541   7.826 -0.6242  0.9258 -0.9631
  118OSM    C1F12415   2.287   6.876   6.887 -0.2339 -0.5630  0.0287
  118OSM     OF12416   2.189   6.831   6.838  0.7093 -0.1204  0.5550
  118OSM    C2F12417   2.287   6.941   7.026 -0.4867 -0.3565 -0.0563
  118OSM    H2F12418   2.322   7.046   7.018  1.3780 -0.9874 -0.7314
  118OSM    H2G12419   2.370   6.894   7.083 -0.7771  1.6360  2.1892
  118OSM    C3F12420   2.155   6.931   7.099 -0.2157  0.1051  0.2292
  118OSM    H3F12421   2.102   6.837   7.074 -0.7741  0.4132  0.2408
  118OSM    H3G12422   2.083   7.003   7.054 -0.5111 -0.3544 -0.0339
  118OSM    C4F12423   2.148   6.970   7.244 -0.0759  0.1556  0.7074
  118OSM    H4F12424   2.208   7.062   7.264 -0.2617  0.5118 -0.3397
  118OSM    H4G12425   2.202   6.887   7.295 -1.5476 -0.2364  1.6771
  118OSM    C5F12426   2.008   6.988   7.319 -0.0470 -0.0717  0.5393
  118OSM    H5F12427   1.957   6.889   7.310 -1.8706  0.9233 -0.6135
  118OSM    H5G12428   1.950   7.071   7.275  2.1137  1.7464  0.9274
  118OSM    C6F12429   2.030   7.001   7.468  0.3324 -0.0359  0.5681
  118OSM    H6F12430   2.111   7.073   7.494  0.3598  0.5085 -0.9216
  118OSM    H6G12431   2.059   6.899   7.501  1.0739 -0.6166 -1.6688
  118OSM    C7F12432   1.904   7.041   7.550  0.3711  0.6891  0.0819
  118OSM    H7F12433   1.822   6.980   7.507  1.9816 -0.4272 -1.5217
  118OSM    H7G12434   1.883   7.147   7.524  0.4916  0.9237  0.9151
  118OSM    C8F12435   1.924   7.029   7.698  0.3585  0.1614  0.3888
  118OSM    H8F12436   2.021   7.081   7.711  0.4582  0.2573 -0.6444
  118OSM    H8G12437   1.933   6.922   7.728  0.3699 -0.6278 -2.1357
  118OSM    C9F12438   1.805   7.095   7.765  0.9931  0.6582  0.1538
  118OSM    H9F12439   1.759   7.179   7.711 -0.0878  1.1362  1.7252
  118OSM   C10F12440   1.745   7.061   7.878  0.0618  0.9160 -0.0454
  118OSM   H10F12441   1.655   7.113   7.913  0.4732  1.9369 -0.4468
  118OSM   C11F12442   1.789   6.947   7.968 -0.0276  0.0302  0.1669
  118OSM   H11F12443   1.838   6.872   7.902  2.7428  0.0001  2.1165
  118OSM   H11G12444   1.695   6.903   8.008 -0.1341 -0.3255 -0.4526
  118OSM   C12F12445   1.877   6.986   8.083 -0.1742  0.3859 -0.7895
  118OSM   H12F12446   1.950   7.061   8.046  0.6257 -0.6195 -1.3182
  118OSM   H12G12447   1.934   6.903   8.130  2.9246  3.7452  2.0226
  118OSM   C13F12448   1.805   7.051   8.195  0.2133 -0.5527 -0.3951
  118OSM   H13F12449   1.737   6.975   8.240 -1.5450 -0.3509 -2.5014
  118OSM   H13G12450   1.735   7.131   8.163  1.2682  0.2090 -0.8262
  118OSM   C14F12451   1.888   7.132   8.301  0.3352  0.0713  0.7005
  118OSM   H14F12452   1.946   7.207   8.244 -0.1135 -0.6194 -0.7205
  118OSM   H14G12453   1.965   7.070   8.352  1.9187  0.9112 -0.5745
  118OSM   C15F12454   1.804   7.188   8.412  0.0726  0.1479  0.3712
  118OSM   H15F12455   1.725   7.114   8.435 -1.1649  1.1212 -0.6777
  118OSM   H15G12456   1.763   7.284   8.375  2.2195  0.4825 -1.3878
  118OSM   C16F12457   1.892   7.221   8.529  0.8852  0.2816  0.0214
  118OSM   H16F12458   1.913   7.128   8.586  1.5791 -0.2063 -1.0011
  118OSM   H16G12459   1.831   7.280   8.601  0.8508  0.7634 -0.3921
  118OSM   C17F12460   2.026   7.302   8.506  0.8006  0.0626 -0.1543
  118OSM   H17F12461   2.094   7.241   8.444  0.5152 -0.7342  0.2954
  118OSM   H17G12462   2.063   7.313   8.610 -1.3885 -0.6657  0.7626
  118OSM   C18F12463   2.003   7.434   8.430 -0.5873  0.1576  0.3422
  118OSM   H18F12464   1.970   7.410   8.326  0.0181  0.2310  0.1297
  118OSM   H18G12465   2.099   7.489   8.426 -1.0040  0.9069  0.5305
  118OSM   H18H12466   1.929   7.498   8.483 -0.1827  0.8589  0.0643
  119OSM      N12467   4.654   6.722   5.811  0.4883  0.0787  0.0619
  119OSM    C1512468   4.518   6.752   5.865  0.1682 -0.3813 -0.4416
  119OSM   H15A12469   4.469   6.660   5.893 -1.0999  0.6643  0.9836
  119OSM   H15B12470   4.461   6.808   5.793  0.9699  1.5792  0.3795
  119OSM   H15C12471   4.532   6.810   5.955  0.9182 -0.3030 -0.5982
  119OSM    C1412472   4.724   6.624   5.894  0.2165 -0.2604 -0.1788
  119OSM   H14A12473   4.753   6.668   5.989 -0.7069 -0.6510  0.2923
  119OSM   H14B12474   4.817   6.586   5.853  0.5604 -0.1332  0.4549
  119OSM   H14C12475   4.654   6.542   5.901 -2.4204  1.4812 -3.6516
  119OSM    C1312476   4.616   6.658   5.686 -0.1194 -0.5834 -0.5015
  119OSM   H13A12477   4.567   6.732   5.624  1.5437 -0.4700 -1.7584
  119OSM   H13B12478   4.559   6.567   5.695  1.3093 -1.6934 -1.9663
  119OSM   H13C12479   4.704   6.638   5.626  0.8471 -0.2650  0.7752
  119OSM    C1212480   4.740   6.834   5.783 -0.4773 -0.4306 -0.1423
  119OSM   H12A12481   4.689   6.927   5.762 -3.1591 -1.7720 -0.0608
  119OSM   H12B12482   4.803   6.814   5.698  0.2106  2.2117 -0.3370
  119OSM    C1112483   4.844   6.864   5.903  0.3261  0.8426  0.0763
  119OSM   H11A12484   4.909   6.950   5.875 -0.3926  1.0410 -1.0286
  119OSM   H11B12485   4.921   6.785   5.915  0.9209  1.3918 -0.0505
  119OSM      P12486   4.697   7.004   6.077  0.0265  0.2875 -0.1721
  119OSM    O1312487   4.780   7.117   6.125 -0.0811 -0.7900  0.1248
  119OSM    O1412488   4.593   7.033   5.983  0.2550 -0.6999  0.5377
  119OSM    O1112489   4.611   6.947   6.201 -0.2458  0.3237  0.2519
  119OSM    O1212490   4.781   6.877   6.033  0.9401 -0.7574  0.2456
  119OSM    C1S12491   4.647   6.837   6.283 -0.2310  0.5100 -0.1483
  119OSM    H1S12492   4.720   6.862   6.363 -0.3787  0.9190 -0.1436
  119OSM    H1T12493   4.715   6.774   6.221  0.4840  1.6934 -0.5963
  119OSM     NF12494   4.601   6.650   6.424 -0.0538 -1.1110  0.8405
  119OSM    HNF12495   4.636   6.573   6.372 -0.4478 -0.1927 -0.8531
  119OSM    C2S12496   4.538   6.760   6.351 -0.3451 -0.4331  0.2105
  119OSM    H2S12497   4.484   6.827   6.422  1.4017  1.2820 -0.0009
  119OSM    C3S12498   4.431   6.713   6.247  0.0864  1.2550 -0.2888
  119OSM    H3S12499   4.483   6.635   6.188 -0.4964 -1.1791  2.2132
  119OSM     O312500   4.402   6.807   6.151 -0.1925  0.3989  0.6746
  119OSM    HO312501   4.469   6.875   6.158 -0.6454  0.7940  1.3081
  119OSM    C4S12502   4.316   6.648   6.318  0.2727  1.1461  0.1803
  119OSM    H4S12503   4.305   6.540   6.302  0.3861  0.8881  1.7131
  119OSM    C5S12504   4.222   6.706   6.399  0.3585  0.2096 -0.2081
  119OSM    H5S12505   4.234   6.812   6.428 -0.8455  0.2424  0.2198
  119OSM    C6S12506   4.096   6.647   6.462 -0.0894 -0.8276 -0.5868
  119OSM    H6S12507   4.090   6.539   6.439 -0.6252 -1.0201  0.3923
  119OSM    H6T12508   4.004   6.704   6.438  1.2894  0.8734 -2.2077
  119OSM    C7S12509   4.125   6.660   6.618  0.5593  0.4667  0.5927
  119OSM    H7S12510   4.136   6.764   6.654  1.2958  1.1723 -1.5178
  119OSM    H7T12511   4.213   6.595   6.637 -0.5055 -0.9975  0.7410
  119OSM    C8S12512   4.005   6.599   6.689 -0.7680  1.1024 -0.5857
  119OSM    H8S12513   4.007   6.494   6.654 -0.2187  0.5545  1.0141
  119OSM    H8T12514   3.907   6.635   6.652 -1.8246 -1.6758 -0.7366
  119OSM    C9S12515   4.041   6.602   6.841  0.2183  0.2388 -0.6704
  119OSM    H9S12516   4.033   6.701   6.890  0.6118 -0.2646  0.4577
  119OSM    H9T12517   4.146   6.565   6.837  0.7102  1.3147  1.1272
  119OSM   C10S12518   3.962   6.510   6.941 -0.1262  0.2919 -0.0020
  119OSM   H10S12519   3.923   6.419   6.892  0.1507  1.0547 -1.7174
  119OSM   H10T12520   3.871   6.574   6.952  0.2214  0.9609 -0.8535
  119OSM   C11S12521   4.016   6.498   7.084  0.3043  0.7723  0.2923
  119OSM   H11S12522   4.026   6.603   7.121  0.1089  1.2937 -1.0662
  119OSM   H11T12523   4.116   6.450   7.079 -0.9740 -2.0046 -0.0948
  119OSM   C12S12524   3.921   6.424   7.176 -0.0555  0.5925  0.0161
  119OSM   H12S12525   3.936   6.319   7.141  0.2045  0.4122  0.6546
  119OSM   H12T12526   3.817   6.451   7.148  0.2606  0.4319 -1.3949
  119OSM   C13S12527   3.952   6.427   7.319 -0.3193  0.0863 -0.0022
  119OSM   H13S12528   3.980   6.529   7.352  0.6669  0.1577 -0.9957
  119OSM   H13T12529   4.050   6.374   7.325 -0.1771  0.4748  1.5814
  119OSM   C14S12530   3.847   6.355   7.407 -0.3150 -0.5557  0.2252
  119OSM   H14S12531   3.864   6.247   7.393 -0.2810 -0.8262  2.0930
  119OSM   H14T12532   3.744   6.383   7.375 -0.5074  0.6226  1.7198
  119OSM   C15S12533   3.864   6.393   7.555 -0.2439  0.6285 -0.0380
  119OSM   H15S12534   3.867   6.503   7.566 -0.1849  0.8138 -1.6351
  119OSM   H15T12535   3.962   6.354   7.591 -1.0531 -0.8279  0.7045
  119OSM   C16S12536   3.755   6.332   7.638  0.5780  0.2746  0.3363
  119OSM   H16S12537   3.754   6.223   7.615  1.0318  0.1003  1.1261
  119OSM   H16T12538   3.655   6.372   7.608  0.8457  1.6554  1.2184
  119OSM   C17S12539   3.744   6.374   7.781 -0.6651  0.3470  0.0122
  119OSM   H17S12540   3.721   6.482   7.795  1.0589  0.5160  2.0982
  119OSM   H17T12541   3.843   6.356   7.828 -1.2099 -2.3543  0.3100
  119OSM   C18S12542   3.635   6.294   7.852  0.4780 -0.3346 -0.2628
  119OSM   H18S12543   3.534   6.330   7.824  0.1093  0.3829  1.8159
  119OSM   H18T12544   3.649   6.328   7.957  0.6074  1.8490 -0.9432
  119OSM   H18U12545   3.649   6.185   7.839  0.6341 -0.3911  0.3551
  119OSM    C1F12546   4.651   6.663   6.547  0.7686 -0.6943 -0.5384
  119OSM     OF12547   4.625   6.774   6.600 -0.1249 -0.1197  0.0818
  119OSM    C2F12548   4.712   6.547   6.625 -0.0494  0.5442 -0.5533
  119OSM    H2F12549   4.728   6.473   6.543 -0.7819  0.2469 -0.4336
  119OSM    H2G12550   4.641   6.495   6.694  1.1405  0.2245  0.4604
  119OSM    C3F12551   4.830   6.592   6.708 -0.2755 -0.3869  0.3650
  119OSM    H3F12552   4.796   6.676   6.772  1.0503 -0.3669  1.0610
  119OSM    H3G12553   4.898   6.630   6.629 -0.0290 -2.3936 -0.4599
  119OSM    C4F12554   4.881   6.465   6.785  0.1760 -0.5704 -0.2823
  119OSM    H4F12555   4.981   6.484   6.830 -1.6176  0.6958  3.6074
  119OSM    H4G12556   4.873   6.377   6.717 -1.1654 -0.0745 -0.7948
  119OSM    C5F12557   4.807   6.422   6.915  0.1140 -0.1931 -0.2410
  119OSM    H5F12558   4.697   6.431   6.899  0.0763  1.3000  0.7084
  119OSM    H5G12559   4.843   6.490   6.994 -1.2686  0.2204  0.0681
  119OSM    C6F12560   4.836   6.277   6.959 -0.0737 -0.3468 -0.4853
  119OSM    H6F12561   4.794   6.281   7.062  2.4870  2.5149  0.6017
  119OSM    H6G12562   4.946   6.261   6.960  0.5342  3.1183  0.4050
  119OSM    C7F12563   4.766   6.181   6.874  0.4366  0.9856  0.1599
  119OSM    H7F12564   4.820   6.084   6.875 -0.6280  0.2579 -2.9538
  119OSM    H7G12565   4.756   6.205   6.766  2.5657 -1.8316 -0.7688
  119OSM    C8F12566   4.623   6.146   6.926  0.1222  0.5493 -0.4151
  119OSM    H8F12567   4.565   6.085   6.854  1.6147 -0.2487 -1.0056
  119OSM    H8G12568   4.572   6.244   6.920 -0.0707  0.3625 -2.7429
  119OSM    C9F12569   4.625   6.073   7.053 -0.0323  0.2140 -0.9877
  119OSM    H9F12570   4.701   5.994   7.052 -1.0053 -0.9371  2.2606
  119OSM   C10F12571   4.575   6.115   7.180 -0.4301  0.1583 -0.3907
  119OSM   H10F12572   4.601   6.059   7.272  0.4511  0.2251 -0.5944
  119OSM   C11F12573   4.500   6.235   7.215  1.1335  0.2639 -0.0029
  119OSM   H11F12574   4.460   6.275   7.120  1.1801  0.3121 -0.0024
  119OSM   H11G12575   4.570   6.314   7.249  1.9090 -0.3302 -0.1636
  119OSM   C12F12576   4.385   6.215   7.310 -0.4838  0.6627  0.0301
  119OSM   H12F12577   4.310   6.153   7.256 -0.0952 -0.8636  1.1919
  119OSM   H12G12578   4.325   6.309   7.313 -0.6468  0.5356  1.0807
  119OSM   C13F12579   4.420   6.155   7.450  0.4364  0.3142  0.5146
  119OSM   H13F12580   4.496   6.224   7.492 -1.4760  2.4308  0.7126
  119OSM   H13G12581   4.456   6.050   7.451 -1.3400 -0.3853 -0.9894
  119OSM   C14F12582   4.308   6.158   7.546 -0.3678 -0.4897 -0.3274
  119OSM   H14F12583   4.241   6.071   7.531 -1.4556  0.1674  0.5559
  119OSM   H14G12584   4.240   6.246   7.538  0.6603  0.2545 -1.0029
  119OSM   C15F12585   4.359   6.175   7.689 -0.8145  0.3718 -0.0871
  119OSM   H15F12586   4.357   6.280   7.724 -0.5653 -0.0784  1.3235
  119OSM   H15G12587   4.465   6.145   7.699 -1.1749 -1.5383 -1.5815
  119OSM   C16F12588   4.272   6.106   7.792  0.2191 -0.1258  0.0392
  119OSM   H16F12589   4.323   6.119   7.890  2.3343  1.1434 -1.1505
  119OSM   H16G12590   4.252   5.999   7.770 -0.4378 -0.0958  0.4359
  119OSM   C17F12591   4.135   6.171   7.807 -0.2201 -0.2638 -0.1373
  119OSM   H17F12592   4.075   6.131   7.722  0.3742 -0.5208 -0.4461
  119OSM   H17G12593   4.151   6.281   7.810  0.3244 -0.3057  3.6993
  119OSM   C18F12594   4.055   6.146   7.933  0.1061  0.9316 -0.7011
  119OSM   H18F12595   4.030   6.038   7.937  2.0415  0.4790  0.4765
  119OSM   H18G12596   3.961   6.205   7.929 -0.8885 -0.5885 -0.3319
  119OSM   H18H12597   4.114   6.176   8.022 -1.6048 -0.9964  1.1870
  120OSM      N12598   1.719   2.972   6.387 -0.1013  0.0441 -0.2681
  120OSM    C1512599   1.714   3.021   6.534  0.2673  0.4241  0.5734
  120OSM   H15A12600   1.662   3.115   6.530 -1.9628 -0.7647 -1.8812
  120OSM   H15B12601   1.813   3.028   6.576  0.9028 -0.2360 -0.7641
  120OSM   H15C12602   1.664   2.955   6.604 -0.1180  0.6227  0.4914
  120OSM    C1412603   1.805   2.849   6.380 -0.2046  0.2756  0.0459
  120OSM   H14A12604   1.906   2.876   6.408  1.0554 -0.8245 -3.0433
  120OSM   H14B12605   1.825   2.811   6.281  0.9559 -0.0609  0.3875
  120OSM   H14C12606   1.762   2.773   6.442  0.5420 -0.1912 -0.0009
  120OSM    C1312607   1.580   2.939   6.352  0.2070 -0.1511 -0.6095
  120OSM   H13A12608   1.566   2.842   6.397 -0.4309  0.8277  1.3843
  120OSM   H13B12609   1.563   2.908   6.250  0.3689  1.1786 -1.0600
  120OSM   H13C12610   1.505   3.012   6.377  1.1634  0.0675  1.7943
  120OSM    C1212611   1.774   3.083   6.293  0.3146  0.0516 -0.4724
  120OSM   H12A12612   1.715   3.168   6.324 -1.0363 -0.1926 -2.1921
  120OSM   H12B12613   1.755   3.058   6.190  1.8487 -0.2731 -0.7102
  120OSM    C1112614   1.924   3.112   6.306 -0.6564 -0.3638  0.4172
  120OSM   H11A12615   1.944   3.199   6.240 -1.8997 -0.7771 -0.5422
  120OSM   H11B12616   1.973   3.023   6.262 -0.6284  0.4542 -1.2916
  120OSM      P12617   1.975   3.273   6.499  0.1660  0.0078 -0.2022
  120OSM    O1312618   2.118   3.304   6.507  0.3374 -0.1482  0.2017
  120OSM    O1412619   1.879   3.371   6.431  0.6353  0.8080 -0.4966
  120OSM    O1112620   1.928   3.247   6.651 -0.2663  0.3192  0.2513
  120OSM    O1212621   1.964   3.128   6.443  0.5349  0.0739  0.3117
  120OSM    C1S12622   2.003   3.148   6.721 -0.1178 -0.2376 -0.2525
  120OSM    H1S12623   2.113   3.159   6.710 -0.2162 -0.0165 -1.1103
  120OSM    H1T12624   1.986   3.048   6.675 -0.2379  1.5468 -4.6141
  120OSM     NF12625   2.078   3.033   6.933 -0.0101 -0.2232  0.3482
  120OSM    HNF12626   2.053   2.936   6.939 -0.0981 -0.3645 -1.6849
  120OSM    C2S12627   1.981   3.128   6.875  0.5754 -0.4774  0.7427
  120OSM    H2S12628   1.987   3.227   6.925 -3.7416  0.6898 -0.6337
  120OSM    C3S12629   1.836   3.088   6.895 -0.1799  0.3375 -1.5285
  120OSM    H3S12630   1.820   2.991   6.844  0.8536 -2.2475  2.6436
  120OSM     O312631   1.747   3.175   6.833  0.2068 -0.2869 -0.7576
  120OSM    HO312632   1.795   3.240   6.780 -1.7625 -0.1256 -2.4951
  120OSM    C4S12633   1.802   3.068   7.039 -0.2108 -0.5259  0.5736
  120OSM    H4S12634   1.824   2.968   7.080 -0.9304 -1.1757 -0.5743
  120OSM    C5S12635   1.758   3.163   7.123  0.4137 -0.3073  0.2742
  120OSM    H5S12636   1.737   3.268   7.100  3.2821  0.5649  1.1999
  120OSM    C6S12637   1.739   3.138   7.270  0.1090 -0.1611  0.3855
  120OSM    H6S12638   1.724   3.030   7.292  0.4379  0.1467  2.2494
  120OSM    H6T12639   1.654   3.197   7.311  0.1180 -2.4379  4.1585
  120OSM    C7S12640   1.861   3.174   7.362  1.0380 -0.3520 -0.6288
  120OSM    H7S12641   1.892   3.278   7.340  1.0067  0.0339  1.0172
  120OSM    H7T12642   1.958   3.124   7.339  1.9102  0.7129  0.6455
  120OSM    C8S12643   1.835   3.167   7.518  0.3188  0.5144  0.1509
  120OSM    H8S12644   1.806   3.065   7.551  0.8872  0.0569 -0.7163
  120OSM    H8T12645   1.752   3.237   7.543  0.4718  0.2298  1.5118
  120OSM    C9S12646   1.959   3.180   7.605 -0.1510 -0.5174  0.0021
  120OSM    H9S12647   1.990   3.286   7.615 -0.0626 -0.5331 -0.0979
  120OSM    H9T12648   2.048   3.142   7.549  2.0718  2.8911  0.8825
  120OSM   C10S12649   1.951   3.110   7.744 -0.2074  0.6095 -0.6990
  120OSM   H10S12650   1.949   3.000   7.733 -1.4041  0.3387  1.5596
  120OSM   H10T12651   1.854   3.149   7.783  0.8597  2.1171  0.5547
  120OSM   C11S12652   2.078   3.137   7.830  0.0132 -0.2718 -0.1795
  120OSM   H11S12653   2.082   3.247   7.839 -0.7053 -0.2837  0.3625
  120OSM   H11T12654   2.179   3.109   7.792 -0.1553 -2.7415  0.9999
  120OSM   C12S12655   2.046   3.075   7.970 -0.4840  0.0737  0.4498
  120OSM   H12S12656   2.031   2.966   7.955  0.0141  0.1881 -0.9803
  120OSM   H12T12657   1.952   3.120   8.010 -0.6308 -0.1532  0.3579
  120OSM   C13S12658   2.157   3.110   8.070  0.0376 -0.4756 -0.1858
  120OSM   H13S12659   2.186   3.216   8.050 -0.9500 -0.0768  0.3845
  120OSM   H13T12660   2.244   3.053   8.032 -0.6550 -0.7502 -1.4183
  120OSM   C14S12661   2.126   3.089   8.213 -0.3965 -0.0862  0.0956
  120OSM   H14S12662   2.137   2.980   8.232  0.9893 -0.3485 -1.8174
  120OSM   H14T12663   2.024   3.124   8.239 -1.1750 -2.5679  0.6578
  120OSM   C15S12664   2.233   3.147   8.304  0.5139  0.6840  0.3146
  120OSM   H15S12665   2.210   3.128   8.411  0.1175  0.6956  0.2334
  120OSM   H15T12666   2.236   3.258   8.301  0.0111  0.6912 -0.0139
  120OSM   C16S12667   2.375   3.091   8.279  1.1721 -0.4732 -0.5706
  120OSM   H16S12668   2.403   3.137   8.182 -0.1945 -0.9922 -1.2351
  120OSM   H16T12669   2.371   2.981   8.266  1.8308 -0.4978 -0.5899
  120OSM   C17S12670   2.472   3.134   8.394 -0.0792 -0.5300 -0.2287
  120OSM   H17S12671   2.433   3.094   8.490 -1.6587 -0.0189 -0.6277
  120OSM   H17T12672   2.472   3.245   8.402 -0.7597 -0.4790 -0.8383
  120OSM   C18S12673   2.615   3.081   8.374 -0.3695 -0.8070 -0.6081
  120OSM   H18S12674   2.618   2.971   8.392  2.6251 -0.7455 -0.3264
  120OSM   H18T12675   2.685   3.113   8.454 -2.4344  4.0702 -0.3933
  120OSM   H18U12676   2.653   3.115   8.275 -0.8522  0.6086 -0.3333
  120OSM    C1F12677   2.204   3.067   6.959 -0.6932 -0.5355 -0.1747
  120OSM     OF12678   2.247   3.173   6.919 -0.2261 -0.0195  0.5190
  120OSM    C2F12679   2.287   2.965   7.041  0.0848 -0.3811 -0.4594
  120OSM    H2F12680   2.253   2.872   6.991 -0.1518  0.5424 -2.0817
  120OSM    H2G12681   2.249   2.980   7.145  0.1882 -0.4586 -0.4106
  120OSM    C3F12682   2.438   2.988   7.044  0.4346 -0.4988 -0.2304
  120OSM    H3F12683   2.470   3.092   7.022  1.5761 -0.8702 -0.4207
  120OSM    H3G12684   2.478   2.944   6.950 -0.7218  1.4803 -1.7341
  120OSM    C4F12685   2.492   2.933   7.175  0.4973 -0.5360 -0.2757
  120OSM    H4F12686   2.601   2.930   7.156  0.6989  3.2873 -0.4021
  120OSM    H4G12687   2.442   2.835   7.189 -0.1740 -0.1114  0.3408
  120OSM    C5F12688   2.488   3.027   7.296  0.4094 -0.1213  0.6731
  120OSM    H5F12689   2.381   3.054   7.315  0.3460  1.0698 -1.1022
  120OSM    H5G12690   2.543   3.121   7.276  0.3075  0.6027  3.3236
  120OSM    C6F12691   2.537   2.963   7.420 -0.0077 -0.4078 -0.6710
  120OSM    H6F12692   2.648   2.965   7.423 -0.0159 -0.5908  1.1290
  120OSM    H6G12693   2.487   2.864   7.431 -1.8704  0.2914 -2.1813
  120OSM    C7F12694   2.504   3.054   7.543  0.5442 -0.0971 -0.0788
  120OSM    H7F12695   2.393   3.063   7.541  0.7080  3.9081  0.3786
  120OSM    H7G12696   2.543   3.156   7.524  1.2898 -0.3400  0.1174
  120OSM    C8F12697   2.556   3.009   7.671 -0.1554 -0.1829 -0.4922
  120OSM    H8F12698   2.666   3.007   7.684 -0.4708  0.3122  2.9974
  120OSM    H8G12699   2.513   2.909   7.691 -0.1069 -0.2911 -0.9068
  120OSM    C9F12700   2.493   3.093   7.782  0.6385 -0.4093  0.0918
  120OSM    H9F12701   2.482   3.201   7.764 -1.3659 -0.3810  1.1909
  120OSM   C10F12702   2.487   3.064   7.915  0.6224  0.5105 -0.1365
  120OSM   H10F12703   2.428   3.129   7.981  1.2578 -0.4976  1.4700
  120OSM   C11F12704   2.526   2.939   7.990 -0.2767 -0.5946 -0.3571
  120OSM   H11F12705   2.493   2.844   7.944 -1.7628  0.1764 -0.9699
  120OSM   H11G12706   2.480   2.941   8.091  1.5040 -1.3290  0.5033
  120OSM   C12F12707   2.675   2.924   8.017 -0.5476  0.2979  0.1050
  120OSM   H12F12708   2.721   3.015   8.061 -1.1533  1.4768 -1.6165
  120OSM   H12G12709   2.725   2.904   7.920  1.2072  0.4951  0.9297
  120OSM   C13F12710   2.709   2.806   8.110  0.0026 -0.2390  0.2968
  120OSM   H13F12711   2.676   2.708   8.069  1.4017 -0.2972 -0.7749
  120OSM   H13G12712   2.661   2.819   8.209  1.7033  1.7900  0.9099
  120OSM   C14F12713   2.858   2.798   8.142  0.6315  0.1579 -0.1194
  120OSM   H14F12714   2.878   2.893   8.195 -0.6616  0.7455 -0.6352
  120OSM   H14G12715   2.917   2.797   8.048 -2.6352  5.0559 -2.6847
  120OSM   C15F12716   2.883   2.694   8.249  0.3440  0.1114 -0.0599
  120OSM   H15F12717   2.858   2.589   8.222  0.4247  0.0073  0.2736
  120OSM   H15G12718   2.815   2.722   8.332  0.5066  1.5648 -0.3915
  120OSM   C16F12719   3.019   2.711   8.316 -0.9463  0.4313  0.5470
  120OSM   H16F12720   3.037   2.810   8.362 -0.1469  0.0787  1.0075
  120OSM   H16G12721   3.093   2.673   8.241 -1.1935 -0.4370  0.7323
  120OSM   C17F12722   3.041   2.615   8.428 -0.4072 -0.5435  0.7690
  120OSM   H17F12723   2.989   2.520   8.401 -0.8132  0.1751 -1.1034
  120OSM   H17G12724   2.989   2.655   8.518 -1.8035  2.0455 -1.0680
  120OSM   C18F12725   3.198   2.599   8.453  0.8040 -0.4587  0.5373
  120OSM   H18F12726   3.242   2.514   8.398  3.5549  0.2982  1.4036
  120OSM   H18G12727   3.212   2.584   8.562  0.4608  4.1180  1.4264
  120OSM   H18H12728   3.259   2.684   8.416  0.2196  0.0829  0.7983
  121OSM      N12729   2.194   5.134   6.133 -0.1342  0.1747  0.0336
  121OSM    C1512730   2.299   5.059   6.220 -0.3101 -0.4925  0.4806
  121OSM   H15A12731   2.250   5.017   6.307 -0.1735 -0.1524  0.7224
  121OSM   H15B12732   2.379   5.123   6.253  0.0133 -1.2724  1.2222
  121OSM   H15C12733   2.336   4.975   6.163 -1.4337 -0.5656 -0.1663
  121OSM    C1412734   2.258   5.181   6.010 -0.0430 -0.1323 -0.0927
  121OSM   H14A12735   2.330   5.253   6.045  0.3687 -0.5736 -0.0169
  121OSM   H14B12736   2.179   5.225   5.952  0.6085  0.3597 -0.6202
  121OSM   H14C12737   2.307   5.098   5.960  2.9567  1.0361  0.6785
  121OSM    C1312738   2.092   5.024   6.100 -0.1144 -0.3748 -0.1979
  121OSM   H13A12739   2.038   5.057   6.013 -1.3250  0.0633  0.6985
  121OSM   H13B12740   2.023   5.005   6.181 -0.9727  0.5659 -0.6874
  121OSM   H13C12741   2.141   4.929   6.080 -0.3210 -0.4840 -0.1802
  121OSM    C1212742   2.135   5.250   6.212 -0.3846 -0.2722  0.2167
  121OSM   H12A12743   2.126   5.212   6.313  1.1281 -2.0203 -0.2556
  121OSM   H12B12744   2.035   5.277   6.183 -0.0113  1.3470  0.3724
  121OSM    C1112745   2.219   5.379   6.221 -0.4103  0.8884  0.6683
  121OSM   H11A12746   2.159   5.428   6.301 -2.4620 -2.0040  1.0858
  121OSM   H11B12747   2.247   5.440   6.133  2.3637 -0.3126  0.6045
  121OSM      P12748   2.466   5.435   6.259 -0.7990  0.2179  0.2952
  121OSM    O1312749   2.558   5.388   6.152  0.9580  0.6587 -0.1790
  121OSM    O1412750   2.416   5.574   6.245 -0.3430  0.0462 -0.2972
  121OSM    O1112751   2.542   5.426   6.394  0.0042 -0.1372  0.7855
  121OSM    O1212752   2.342   5.336   6.277  0.4028 -0.1337 -0.1345
  121OSM    C1S12753   2.472   5.463   6.505 -0.6288  0.7899  0.3806
  121OSM    H1S12754   2.396   5.386   6.531  0.6320 -0.3476  0.7831
  121OSM    H1T12755   2.423   5.562   6.493 -2.0216 -0.0308 -1.1499
  121OSM     NF12756   2.491   5.525   6.738  0.3244 -0.5635  0.1107
  121OSM    HNF12757   2.467   5.621   6.743 -0.2244 -0.7473  1.7644
  121OSM    C2S12758   2.565   5.475   6.626  0.1703 -0.8286 -0.4876
  121OSM    H2S12759   2.613   5.380   6.655  3.0219 -0.0255 -2.1833
  121OSM    C3S12760   2.673   5.577   6.586  0.7677  0.3214 -0.2575
  121OSM    H3S12761   2.621   5.660   6.532 -0.5965  0.6233  1.4338
  121OSM     O312762   2.758   5.529   6.484  0.2509  0.1271 -0.1700
  121OSM    HO312763   2.703   5.464   6.439  0.5847  0.4336 -1.0381
  121OSM    C4S12764   2.754   5.620   6.706 -0.5963  0.3475 -0.2485
  121OSM    H4S12765   2.787   5.536   6.770 -0.1346 -1.4610 -2.7027
  121OSM    C5S12766   2.782   5.743   6.751  0.0665  0.2081 -0.3293
  121OSM    H5S12767   2.740   5.830   6.698  2.0324 -1.0881 -4.4485
  121OSM    C6S12768   2.871   5.772   6.877 -0.9490  0.1665  0.2724
  121OSM    H6S12769   2.945   5.848   6.843 -1.7105  1.1576  0.7570
  121OSM    H6T12770   2.919   5.682   6.921 -2.2702 -0.2888  0.8325
  121OSM    C7S12771   2.788   5.815   7.001  0.2977  0.7057 -0.6493
  121OSM    H7S12772   2.713   5.739   7.031 -0.5275  2.1279  1.0842
  121OSM    H7T12773   2.737   5.913   6.999  0.3961  0.7529 -1.6905
  121OSM    C8S12774   2.891   5.820   7.119  0.0306 -0.7280 -0.9260
  121OSM    H8S12775   2.953   5.912   7.117 -1.1657  0.1844  0.9634
  121OSM    H8T12776   2.967   5.738   7.123 -1.0583 -1.7437  1.4921
  121OSM    C9S12777   2.818   5.807   7.256 -0.2327  0.1047 -0.0558
  121OSM    H9S12778   2.810   5.699   7.277  1.0771 -0.3851 -1.8300
  121OSM    H9T12779   2.715   5.846   7.239  0.3732  1.0831 -1.7360
  121OSM   C10S12780   2.896   5.873   7.380  0.6803 -0.8393  0.9561
  121OSM   H10S12781   2.897   5.981   7.354  1.7483 -1.2571 -0.9440
  121OSM   H10T12782   2.995   5.822   7.391  2.0006  1.6617  1.5075
  121OSM   C11S12783   2.814   5.855   7.507  0.4014  0.7855  0.0215
  121OSM   H11S12784   2.779   5.751   7.524 -0.1424  0.6139 -1.9150
  121OSM   H11T12785   2.722   5.915   7.490 -0.4246 -0.6201 -0.7471
  121OSM   C12S12786   2.882   5.907   7.633 -0.8516  0.2695 -0.1817
  121OSM   H12S12787   2.936   6.002   7.619  0.3010 -0.5857 -1.8326
  121OSM   H12T12788   2.957   5.829   7.657 -0.5352  1.5105  3.4991
  121OSM   C13S12789   2.790   5.914   7.759 -0.0491  0.8399  0.1133
  121OSM   H13S12790   2.736   5.817   7.774  0.6198  0.5849  0.9447
  121OSM   H13T12791   2.711   5.991   7.743 -0.7844 -0.0444 -0.6528
  121OSM   C14S12792   2.854   5.926   7.894 -0.0497  0.7442  0.0619
  121OSM   H14S12793   2.903   6.026   7.902  0.1190  0.5767  1.4257
  121OSM   H14T12794   2.929   5.845   7.911 -2.1250 -1.2578  0.1244
  121OSM   C15S12795   2.747   5.913   8.005 -0.2926 -0.5505 -0.0109
  121OSM   H15S12796   2.698   5.814   8.019  1.5804 -1.4774  0.2308
  121OSM   H15T12797   2.663   5.981   7.980  0.6528  0.5543 -0.2355
  121OSM   C16S12798   2.788   5.947   8.150  0.3732  0.3369  0.2299
  121OSM   H16S12799   2.704   5.927   8.219  0.3946 -2.5454 -0.4708
  121OSM   H16T12800   2.807   6.056   8.164 -0.2374  0.6982 -1.4756
  121OSM   C17S12801   2.912   5.867   8.200  0.4996  0.1575  0.6227
  121OSM   H17S12802   2.996   5.885   8.129 -0.0840  2.5290  0.4227
  121OSM   H17T12803   2.878   5.762   8.205 -0.7529  0.6143  3.0197
  121OSM   C18S12804   2.948   5.914   8.334  0.0386 -0.1984  0.2769
  121OSM   H18S12805   2.947   6.025   8.326  1.5745 -0.1933 -0.2141
  121OSM   H18T12806   3.053   5.886   8.358 -0.1390 -0.6763  0.4956
  121OSM   H18U12807   2.869   5.893   8.410 -0.3335 -0.7621 -0.2618
  121OSM    C1F12808   2.400   5.445   6.806  0.2150  0.1796  0.0823
  121OSM     OF12809   2.404   5.325   6.793 -0.3256  0.3305 -0.0776
  121OSM    C2F12810   2.292   5.515   6.879  0.2855 -0.1668  0.5053
  121OSM    H2F12811   2.220   5.439   6.917  0.6734 -1.1706 -0.7236
  121OSM    H2G12812   2.234   5.581   6.811 -0.5437 -0.4887  0.8807
  121OSM    C3F12813   2.339   5.590   7.001 -0.8180  0.2536 -0.0362
  121OSM    H3F12814   2.258   5.662   7.028 -1.6989 -0.8854  0.4403
  121OSM    H3G12815   2.424   5.655   6.970 -0.4747  0.1736  0.7001
  121OSM    C4F12816   2.384   5.511   7.131 -0.0422  0.3718 -0.4136
  121OSM    H4F12817   2.482   5.464   7.108 -0.2469 -0.8331  1.0480
  121OSM    H4G12818   2.312   5.428   7.148  0.4653  0.2498  1.2578
  121OSM    C5F12819   2.401   5.599   7.261 -0.5996 -0.4262 -0.2610
  121OSM    H5F12820   2.306   5.644   7.297  1.5943  2.4619  2.5025
  121OSM    H5G12821   2.479   5.672   7.233  0.4821 -1.4387  0.0579
  121OSM    C6F12822   2.445   5.500   7.372  0.2392 -0.0342 -0.1818
  121OSM    H6F12823   2.544   5.459   7.341 -0.9875 -1.4317 -2.5752
  121OSM    H6G12824   2.378   5.411   7.372 -0.6830  0.6156 -1.7513
  121OSM    C7F12825   2.461   5.569   7.511 -0.1050 -0.0635  0.2789
  121OSM    H7F12826   2.536   5.650   7.501  1.5987 -1.6032 -0.0383
  121OSM    H7G12827   2.507   5.495   7.580 -1.2341 -0.7255  0.3402
  121OSM    C8F12828   2.332   5.622   7.575 -0.4390 -0.1654  0.4148
  121OSM    H8F12829   2.293   5.702   7.509  0.4596  0.0361  0.1189
  121OSM    H8G12830   2.364   5.677   7.666  5.0555  1.2254 -1.9756
  121OSM    C9F12831   2.222   5.519   7.594  0.8844 -0.7550 -0.0660
  121OSM    H9F12832   2.196   5.470   7.499 -0.5758 -0.3207  0.0944
  121OSM   C10F12833   2.164   5.481   7.709 -0.3425 -0.0805  0.3267
  121OSM   H10F12834   2.078   5.413   7.703  0.7830 -1.7531  1.8841
  121OSM   C11F12835   2.186   5.534   7.847 -0.0325 -0.0033  0.6396
  121OSM   H11F12836   2.108   5.607   7.881  1.2900  0.7697  2.1493
  121OSM   H11G12837   2.286   5.582   7.850 -0.2491  0.5703 -0.5978
  121OSM   C12F12838   2.197   5.421   7.951  0.3652 -0.4114 -0.1888
  121OSM   H12F12839   2.267   5.345   7.912  0.4266  1.4154 -4.2408
  121OSM   H12G12840   2.098   5.370   7.952  0.8302 -1.3564 -0.8673
  121OSM   C13F12841   2.256   5.476   8.080  0.5484  0.0224  0.0321
  121OSM   H13F12842   2.356   5.513   8.051  0.4921 -0.4256 -0.7803
  121OSM   H13G12843   2.267   5.388   8.146 -0.9923 -0.1861  0.0646
  121OSM   C14F12844   2.157   5.578   8.145 -0.2479  0.2891  0.0214
  121OSM   H14F12845   2.051   5.556   8.122 -0.2466 -1.3809  1.3721
  121OSM   H14G12846   2.190   5.683   8.129  1.1297  0.6235  4.0001
  121OSM   C15F12847   2.151   5.557   8.294 -0.3179  0.3334 -0.1913
  121OSM   H15F12848   2.243   5.566   8.354 -1.1590 -0.9617  1.3891
  121OSM   H15G12849   2.108   5.455   8.306 -0.6063  0.3001 -1.3541
  121OSM   C16F12850   2.057   5.657   8.368 -0.1315 -0.6674 -0.6418
  121OSM   H16F12851   1.965   5.664   8.306 -1.0991  2.1010  0.9081
  121OSM   H16G12852   2.100   5.759   8.360 -0.5685 -0.4428 -0.1713
  121OSM   C17F12853   2.020   5.609   8.506 -0.4406  0.0819 -0.3428
  121OSM   H17F12854   1.970   5.510   8.493 -1.3440 -0.2861  4.0933
  121OSM   H17G12855   1.945   5.675   8.554 -2.2416 -1.8060 -0.4006
  121OSM   C18F12856   2.145   5.608   8.592  0.5232  0.1477 -0.0463
  121OSM   H18F12857   2.181   5.713   8.578 -0.6219  0.9357  2.4294
  121OSM   H18G12858   2.218   5.532   8.557  0.8265  0.2911  0.2732
  121OSM   H18H12859   2.114   5.588   8.696 -0.3359 -0.5882 -0.4301
  122OSM      N12860   4.123   0.849   6.154 -0.1689  0.5089 -0.0145
  122OSM    C1512861   3.997   0.768   6.164  0.6300 -0.1800  0.0707
  122OSM   H15A12862   4.001   0.691   6.240  1.5517  0.9653  1.2308
  122OSM   H15B12863   3.987   0.721   6.067 -0.5635 -3.2981  1.5631
  122OSM   H15C12864   3.911   0.832   6.178  1.2412  0.8461 -0.7285
  122OSM    C1412865   4.111   0.951   6.053  0.4109  0.2054 -0.2555
  122OSM   H14A12866   4.192   1.022   6.051 -0.6842  1.4595 -1.1053
  122OSM   H14B12867   4.021   1.007   6.073  0.3396 -0.4020  1.2994
  122OSM   H14C12868   4.100   0.923   5.949 -0.4636 -1.9915  0.3668
  122OSM    C1312869   4.131   0.906   6.292  0.5954  0.5453  0.6783
  122OSM   H13A12870   4.214   0.974   6.306  0.4736  0.9080 -0.2678
  122OSM   H13B12871   4.128   0.819   6.356 -0.2328  0.2784  0.2879
  122OSM   H13C12872   4.038   0.955   6.315 -0.0619  0.0677 -0.8099
  122OSM    C1212873   4.242   0.761   6.113 -0.0581 -0.4723 -0.6800
  122OSM   H12A12874   4.317   0.830   6.075 -0.4904  0.1246 -0.4563
  122OSM   H12B12875   4.212   0.697   6.032 -0.3909 -1.5028  0.2334
  122OSM    C1112876   4.306   0.671   6.219 -0.5255 -1.1944  0.1245
  122OSM   H11A12877   4.351   0.738   6.296  1.1168  1.5029 -2.9166
  122OSM   H11B12878   4.395   0.624   6.171 -0.9039 -1.1629 -0.6265
  122OSM      P12879   4.166   0.452   6.179  0.0434 -0.0297 -0.1959
  122OSM    O1312880   4.021   0.437   6.191  0.0872 -0.6619  0.1690
  122OSM    O1412881   4.218   0.463   6.043 -0.3058  0.6721  0.1263
  122OSM    O1112882   4.220   0.316   6.240  0.5370  0.2057 -0.4272
  122OSM    O1212883   4.219   0.568   6.275 -0.0755  0.0399  0.1784
  122OSM    C1S12884   4.343   0.308   6.315 -0.6551  0.4165 -0.3560
  122OSM    H1S12885   4.429   0.359   6.267  0.3883  2.7117  3.5018
  122OSM    H1T12886   4.377   0.203   6.308  1.3946  1.0910 -1.5736
  122OSM     NF12887   4.475   0.329   6.510  0.2484  0.0617  0.8669
  122OSM    HNF12888   4.493   0.250   6.569 -0.2057  0.7227  1.9344
  122OSM    C2S12889   4.338   0.345   6.462  0.4651 -0.3440 -0.0290
  122OSM    H2S12890   4.315   0.453   6.455 -0.3984 -0.6007 -2.2489
  122OSM    C3S12891   4.229   0.264   6.530 -0.3133 -0.5451 -0.5164
  122OSM    H3S12892   4.256   0.157   6.546  0.1611  0.0629  4.3942
  122OSM     O312893   4.103   0.261   6.455 -0.3513  0.2102  0.0508
  122OSM    HO312894   4.134   0.292   6.370  0.4237  2.2313  0.9960
  122OSM    C4S12895   4.218   0.320   6.668 -0.0612 -0.5847  0.4889
  122OSM    H4S12896   4.306   0.282   6.722  1.7961  0.6441 -1.4825
  122OSM    C5S12897   4.127   0.407   6.724  0.2024 -0.2918  0.0655
  122OSM    H5S12898   4.069   0.478   6.663  1.3528  0.7165  0.1022
  122OSM    C6S12899   4.134   0.449   6.872  0.2767  0.1705 -0.0643
  122OSM    H6S12900   4.038   0.427   6.923  1.1378  0.1147  1.5849
  122OSM    H6T12901   4.146   0.559   6.881 -0.5140  0.2312  0.2921
  122OSM    C7S12902   4.238   0.380   6.965  0.4829 -0.5567 -0.0508
  122OSM    H7S12903   4.345   0.402   6.946  1.2999 -0.4961  3.7249
  122OSM    H7T12904   4.215   0.272   6.962 -4.0465  0.2361 -1.1058
  122OSM    C8S12905   4.224   0.436   7.108  0.9527 -0.3158 -0.0679
  122OSM    H8S12906   4.120   0.432   7.146  0.8388  0.0823 -0.3331
  122OSM    H8T12907   4.257   0.542   7.105  1.0429 -0.3718 -1.4333
  122OSM    C9S12908   4.314   0.361   7.204 -0.1724  0.0022  0.3618
  122OSM    H9S12909   4.419   0.362   7.167 -0.7574 -0.5964 -1.4496
  122OSM    H9T12910   4.292   0.253   7.189  0.3877 -0.0377 -0.2168
  122OSM   C10S12911   4.312   0.393   7.352  0.3214 -0.3921  0.6926
  122OSM   H10S12912   4.309   0.502   7.375  1.7299 -0.6989  2.6411
  122OSM   H10T12913   4.406   0.348   7.389 -0.5189 -0.2591  3.1362
  122OSM   C11S12914   4.200   0.326   7.424 -0.2393 -0.1688  0.1687
  122OSM   H11S12915   4.197   0.216   7.408 -1.6917  0.0130 -1.0645
  122OSM   H11T12916   4.104   0.356   7.376  0.7197  1.3828 -0.8635
  122OSM   C12S12917   4.181   0.366   7.575  0.2511  0.2417  0.3382
  122OSM   H12S12918   4.097   0.307   7.618 -1.0002  0.9557 -1.0519
  122OSM   H12T12919   4.153   0.473   7.579 -0.7626 -0.0293  0.8536
  122OSM   C13S12920   4.301   0.324   7.663  0.6422 -0.5446  0.5696
  122OSM   H13S12921   4.397   0.349   7.613 -0.3558 -1.2859 -1.8404
  122OSM   H13T12922   4.301   0.213   7.661  0.8422 -0.6056  2.0606
  122OSM   C14S12923   4.288   0.390   7.793 -0.5052  0.4404 -0.3570
  122OSM   H14S12924   4.211   0.323   7.838  0.1543  0.1583  0.3733
  122OSM   H14T12925   4.247   0.492   7.782  0.0783  0.5742 -1.3226
  122OSM   C15S12926   4.431   0.383   7.866 -0.0154  0.8781 -0.1543
  122OSM   H15S12927   4.474   0.461   7.800 -4.2415  2.8042 -0.9902
  122OSM   H15T12928   4.487   0.292   7.836 -1.7079  0.2545 -1.6359
  122OSM   C16S12929   4.442   0.405   8.013 -0.0451  0.1399  0.0882
  122OSM   H16S12930   4.402   0.320   8.073 -1.0438  0.0450 -0.6808
  122OSM   H16T12931   4.395   0.501   8.042  0.2163  0.2535  0.1405
  122OSM   C17S12932   4.593   0.421   8.048  0.3543 -0.2985  0.0875
  122OSM   H17S12933   4.626   0.507   7.987 -4.4718  1.3226 -0.6937
  122OSM   H17T12934   4.653   0.328   8.038  0.0992 -0.4615  0.0530
  122OSM   C18S12935   4.610   0.458   8.195 -0.1862  0.0532 -0.3577
  122OSM   H18S12936   4.693   0.413   8.254 -1.4834 -0.9803  0.7526
  122OSM   H18T12937   4.524   0.428   8.258 -1.1703 -0.9613 -2.1386
  122OSM   H18U12938   4.615   0.569   8.202 -0.6184  0.0444  0.2062
  122OSM    C1F12939   4.572   0.409   6.480 -0.1033  0.1398 -0.2071
  122OSM     OF12940   4.565   0.514   6.419 -0.0519 -0.8742 -0.6163
  122OSM    C2F12941   4.703   0.346   6.516 -0.7386 -0.9190  0.1492
  122OSM    H2F12942   4.765   0.342   6.424 -0.3200  0.8022  0.3188
  122OSM    H2G12943   4.689   0.249   6.569  2.3762 -1.3842  0.2936
  122OSM    C3F12944   4.787   0.436   6.611 -0.3820  0.1745  0.5822
  122OSM    H3F12945   4.776   0.546   6.599 -1.2450  0.2366  1.8084
  122OSM    H3G12946   4.896   0.421   6.592 -0.3215  1.0028  0.2051
  122OSM    C4F12947   4.763   0.413   6.761  0.7529 -0.1481 -0.3958
  122OSM    H4F12948   4.844   0.458   6.821 -0.2759  1.5056 -0.1834
  122OSM    H4G12949   4.754   0.303   6.774 -1.7811  0.1976  1.6480
  122OSM    C5F12950   4.643   0.478   6.806  0.3008 -0.1989 -0.4091
  122OSM    H5F12951   4.554   0.438   6.754  0.3546 -0.8093 -0.0469
  122OSM    H5G12952   4.664   0.586   6.794  2.2208 -0.2282  1.8302
  122OSM    C6F12953   4.621   0.451   6.958  0.5907  0.1584  0.7514
  122OSM    H6F12954   4.600   0.342   6.967  0.7078  0.1710  1.2267
  122OSM    H6G12955   4.527   0.495   6.996  2.1867  2.7842  1.9329
  122OSM    C7F12956   4.736   0.506   7.050  0.6328  0.2816  0.5428
  122OSM    H7F12957   4.828   0.449   7.026 -0.7314 -1.0784 -1.8337
  122OSM    H7G12958   4.705   0.461   7.147  0.4201 -0.1197  0.2909
  122OSM    C8F12959   4.740   0.661   7.069  0.3553 -0.0850  0.1064
  122OSM    H8F12960   4.781   0.662   7.173  1.0982 -1.1090 -0.1511
  122OSM    H8G12961   4.642   0.706   7.047  0.4940 -0.1582 -0.7011
  122OSM    C9F12962   4.842   0.709   6.977  0.0836 -0.2595 -0.3179
  122OSM    H9F12963   4.827   0.702   6.868  2.1304  0.6952 -0.7147
  122OSM   C10F12964   4.955   0.762   7.016 -0.5389 -0.7076 -0.5099
  122OSM   H10F12965   5.028   0.792   6.940  0.6117 -0.5286  0.6294
  122OSM   C11F12966   5.014   0.783   7.156 -0.6578 -0.3733 -0.2640
  122OSM   H11F12967   4.943   0.771   7.241 -0.3116 -2.5304 -0.2369
  122OSM   H11G12968   5.030   0.893   7.161  1.7377 -0.7108  2.6294
  122OSM   C12F12969   5.146   0.707   7.184  0.1330 -0.1231 -0.1881
  122OSM   H12F12970   5.235   0.756   7.139  0.8776 -2.7743 -1.8495
  122OSM   H12G12971   5.133   0.601   7.152  0.0817 -0.7616  1.8043
  122OSM   C13F12972   5.176   0.691   7.335 -0.2785  0.1852  0.1731
  122OSM   H13F12973   5.274   0.640   7.351  0.2113  0.0504 -2.7437
  122OSM   H13G12974   5.101   0.620   7.375  0.6631 -0.5278  0.7227
  122OSM   C14F12975   5.188   0.821   7.413 -0.5115 -0.3167  0.5375
  122OSM   H14F12976   5.094   0.877   7.390 -0.9547 -1.0058  0.6484
  122OSM   H14G12977   5.269   0.889   7.379  0.8815 -2.1225  0.1408
  122OSM   C15F12978   5.210   0.811   7.569  0.3289  0.8771  0.7660
  122OSM   H15F12979   5.304   0.752   7.575 -0.1342 -0.3600 -2.2001
  122OSM   H15G12980   5.129   0.743   7.601 -1.0419  1.5766 -1.0281
  122OSM   C16F12981   5.217   0.930   7.660  0.9469  0.2192 -0.8348
  122OSM   H16F12982   5.127   0.993   7.643  0.1963 -0.4269  0.5911
  122OSM   H16G12983   5.313   0.984   7.645  1.9322 -1.5047 -0.9901
  122OSM   C17F12984   5.210   0.873   7.801 -0.4666 -0.5999  0.1018
  122OSM   H17F12985   5.294   0.802   7.817 -0.3939 -0.5956 -0.2631
  122OSM   H17G12986   5.117   0.817   7.820 -0.7063 -0.1151  0.3824
  122OSM   C18F12987   5.188   0.967   7.928  0.3213  0.4612  0.1865
  122OSM   H18F12988   5.104   1.039   7.914 -0.1663  0.0319  0.8298
  122OSM   H18G12989   5.272   1.038   7.942 -1.0956  1.7963  2.9271
  122OSM   H18H12990   5.168   0.902   8.016  1.2763 -0.0625  0.0242
  123OSM      N12991   6.770   2.765   6.229 -0.6245  0.5222  0.9741
  123OSM    C1512992   6.712   2.907   6.233  0.8339 -0.0624  0.0434
  123OSM   H15A12993   6.674   2.936   6.136  0.5805 -1.9571 -0.4735
  123OSM   H15B12994   6.793   2.970   6.265 -0.1575  0.8440  0.8281
  123OSM   H15C12995   6.628   2.909   6.302  0.2664  0.4373 -0.6488
  123OSM    C1412996   6.659   2.664   6.205  0.1446 -0.5072 -0.3360
  123OSM   H14A12997   6.581   2.689   6.275  0.6277 -1.6461  0.6441
  123OSM   H14B12998   6.692   2.564   6.229 -4.3221 -2.1329  0.0325
  123OSM   H14C12999   6.620   2.678   6.105 -1.1294  0.6148  0.2781
  123OSM    C1313000   6.867   2.760   6.111 -0.3418  0.4489  0.0939
  123OSM   H13A13001   6.918   2.665   6.097 -0.9696  0.3956 -2.4484
  123OSM   H13B13002   6.939   2.840   6.117  1.3902 -1.0427  0.0835
  123OSM   H13C13003   6.823   2.788   6.016  1.4595  2.2014 -0.2878
  123OSM    C1213004   6.842   2.741   6.359  0.2674 -0.3192  0.7483
  123OSM   H12A13005   6.873   2.640   6.381  1.3203  0.1885  1.7126
  123OSM   H12B13006   6.773   2.761   6.439 -0.9784 -1.0026 -0.1217
  123OSM    C1113007   6.974   2.824   6.387 -0.2040 -0.1633  0.2102
  123OSM   H11A13008   7.049   2.805   6.307 -0.4524 -1.1235  0.2008
  123OSM   H11B13009   7.022   2.774   6.474 -0.0878 -1.0603 -0.3634
  123OSM      P13010   6.919   3.031   6.533 -0.3300  0.4798 -0.0865
  123OSM    O1313011   7.048   3.051   6.599  0.1963  0.5609  0.6684
  123OSM    O1413012   6.842   3.149   6.507 -0.0769 -0.4233  0.2958
  123OSM    O1113013   6.828   2.922   6.613 -0.4329 -0.5441 -0.1267
  123OSM    O1213014   6.948   2.960   6.398  0.4284  0.1310  0.4024
  123OSM    C1S13015   6.902   2.849   6.716  0.0083  0.3249  0.2748
  123OSM    H1S13016   7.012   2.847   6.706  0.0650  0.9014  0.6960
  123OSM    H1T13017   6.872   2.744   6.699 -1.4553  1.0215 -1.8386
  123OSM     NF13018   6.945   2.810   6.959  0.2336  0.1625  0.2120
  123OSM    HNF13019   6.905   2.728   7.001 -1.1764 -0.2730 -1.8470
  123OSM    C2S13020   6.863   2.889   6.862 -0.2200 -0.3141 -1.0627
  123OSM    H2S13021   6.899   2.994   6.860  0.0317 -0.4005 -1.2502
  123OSM    C3S13022   6.712   2.874   6.897 -0.2962  0.3148 -0.6713
  123OSM    H3S13023   6.669   2.775   6.870 -2.0288  0.7620  0.2828
  123OSM     O313024   6.623   2.958   6.818 -0.2096  0.6667 -0.2677
  123OSM    HO313025   6.683   2.991   6.751  0.0041 -0.3485 -0.5990
  123OSM    C4S13026   6.679   2.889   7.046 -0.0691  0.0628 -0.4056
  123OSM    H4S13027   6.670   2.787   7.088  2.2846  0.2432  0.6564
  123OSM    C5S13028   6.646   3.000   7.121 -0.0356  0.4589 -0.0790
  123OSM    H5S13029   6.640   3.095   7.066  0.2110  1.6566  1.8430
  123OSM    C6S13030   6.600   3.003   7.265 -0.0475 -0.3014  0.8841
  123OSM    H6S13031   6.493   3.034   7.262 -0.3075 -0.8798  2.8857
  123OSM    H6T13032   6.663   3.081   7.311  0.7646  0.1986 -0.9989
  123OSM    C7S13033   6.595   2.868   7.337  0.2272 -0.1498 -0.5545
  123OSM    H7S13034   6.699   2.828   7.344  0.4589  0.6150  0.8760
  123OSM    H7T13035   6.535   2.786   7.292 -0.2566 -1.6604  2.5742
  123OSM    C8S13036   6.551   2.881   7.493  0.6838  0.5556  0.4743
  123OSM    H8S13037   6.570   2.984   7.531  0.4057  0.7853 -0.0050
  123OSM    H8T13038   6.612   2.815   7.557  0.9274 -0.3134 -0.6217
  123OSM    C9S13039   6.407   2.851   7.519  0.2086  0.1177 -0.3639
  123OSM    H9S13040   6.390   2.741   7.513 -1.1496  0.3516 -1.5668
  123OSM    H9T13041   6.338   2.895   7.444 -1.3114  0.9809  1.4549
  123OSM   C10S13042   6.366   2.903   7.660 -0.2865 -0.1925 -0.3049
  123OSM   H10S13043   6.262   2.871   7.682 -0.1869 -0.1422  0.2633
  123OSM   H10T13044   6.368   3.014   7.657  1.5423 -0.1618  0.8569
  123OSM   C11S13045   6.453   2.846   7.777 -0.0193 -0.0943  0.0171
  123OSM   H11S13046   6.561   2.871   7.764  0.1324 -1.0358 -0.6768
  123OSM   H11T13047   6.443   2.736   7.786 -1.6231  0.0820  0.5975
  123OSM   C12S13048   6.398   2.906   7.907  0.1725 -0.5245 -0.3074
  123OSM   H12S13049   6.297   2.861   7.913 -0.2347  0.0440 -2.3692
  123OSM   H12T13050   6.382   3.016   7.903  0.1120 -0.4014  1.7975
  123OSM   C13S13051   6.473   2.864   8.038  0.0185  0.0497 -0.0056
  123OSM   H13S13052   6.578   2.870   8.001 -0.6462  0.5890 -1.9519
  123OSM   H13T13053   6.459   2.759   8.071  0.7994  0.3311  1.2889
  123OSM   C14S13054   6.442   2.937   8.171  0.6035 -0.2432  0.0542
  123OSM   H14S13055   6.483   3.041   8.169 -0.1815  0.0724 -0.1308
  123OSM   H14T13056   6.496   2.884   8.251  3.6832 -2.3865 -3.1359
  123OSM   C15S13057   6.283   2.957   8.199  0.1211 -0.0770 -0.3191
  123OSM   H15S13058   6.243   2.856   8.222  1.1182 -0.9253 -2.1026
  123OSM   H15T13059   6.228   2.984   8.106 -1.0643  0.3256  0.4785
  123OSM   C16S13060   6.269   3.058   8.319  0.3627 -0.0289 -0.0018
  123OSM   H16S13061   6.166   3.097   8.305  0.5695  0.5603  0.0915
  123OSM   H16T13062   6.336   3.146   8.312  1.7498 -1.1158 -1.4479
  123OSM   C17S13063   6.273   2.990   8.455 -0.4074 -0.2091 -0.7025
  123OSM   H17S13064   6.382   2.970   8.467 -0.2361 -2.5513 -4.4698
  123OSM   H17T13065   6.224   2.890   8.459  1.3555 -1.0946  0.2821
  123OSM   C18S13066   6.229   3.078   8.576 -1.0513  0.0387  0.4613
  123OSM   H18S13067   6.118   3.079   8.582 -0.9797 -0.0398  2.4472
  123OSM   H18T13068   6.276   3.178   8.576 -0.0516 -0.3719 -1.7630
  123OSM   H18U13069   6.253   3.039   8.677  1.9499  0.5991  0.0413
  123OSM    C1F13070   7.077   2.832   6.972 -0.0371  0.3868  0.0612
  123OSM     OF13071   7.125   2.930   6.911  0.3647  0.0391  0.0722
  123OSM    C2F13072   7.161   2.728   7.045  0.0529 -0.1278 -0.0946
  123OSM    H2F13073   7.242   2.712   6.970  2.3368 -1.9113  2.5495
  123OSM    H2G13074   7.104   2.632   7.045 -0.4973  0.1962 -0.3957
  123OSM    C3F13075   7.194   2.761   7.194 -0.1105  0.7556  0.1683
  123OSM    H3F13076   7.247   2.859   7.194  0.0976  0.6742  1.9775
  123OSM    H3G13077   7.251   2.674   7.232 -0.4856  0.1149 -0.6954
  123OSM    C4F13078   7.069   2.777   7.279  0.7604  0.5627 -0.8788
  123OSM    H4F13079   7.002   2.691   7.257 -0.2832  1.1624 -0.1522
  123OSM    H4G13080   7.010   2.870   7.263 -1.6534 -0.9983 -1.6536
  123OSM    C5F13081   7.097   2.782   7.433  0.0750  0.8726 -0.5494
  123OSM    H5F13082   7.176   2.860   7.442  2.1811 -1.1036 -1.0750
  123OSM    H5G13083   7.150   2.688   7.460 -0.0338  0.4591 -1.7121
  123OSM    C6F13084   6.964   2.800   7.514 -0.3424  0.1985 -0.6129
  123OSM    H6F13085   6.914   2.701   7.517 -0.1491  0.0678  3.1464
  123OSM    H6G13086   6.901   2.876   7.464 -1.1556 -1.0529 -1.5588
  123OSM    C7F13087   6.991   2.864   7.653 -0.7868 -0.3249 -0.2206
  123OSM    H7F13088   7.039   2.958   7.619  0.7608 -1.7647 -2.3130
  123OSM    H7G13089   7.052   2.799   7.719 -1.4557 -0.7986 -0.0567
  123OSM    C8F13090   6.861   2.892   7.727  0.2808 -0.7075 -0.0038
  123OSM    H8F13091   6.812   2.795   7.752 -0.6990  0.5671  3.7049
  123OSM    H8G13092   6.789   2.936   7.655 -1.1268  0.3604  1.9714
  123OSM    C9F13093   6.866   2.973   7.856 -1.5741 -0.5338 -0.8151
  123OSM    H9F13094   6.923   2.925   7.937 -3.6742  1.4981  2.0723
  123OSM   C10F13095   6.825   3.097   7.883  0.3256 -0.2063  0.0743
  123OSM   H10F13096   6.861   3.146   7.974 -1.2002 -0.8434  1.0654
  123OSM   C11F13097   6.741   3.193   7.803  0.4559 -0.2105  0.3704
  123OSM   H11F13098   6.685   3.269   7.861  0.3936  0.1194 -0.1252
  123OSM   H11G13099   6.662   3.126   7.761  0.4469 -0.6939  1.1220
  123OSM   C12F13100   6.827   3.264   7.689  0.2095 -0.2413  0.4938
  123OSM   H12F13101   6.891   3.185   7.644 -1.0695 -0.6077 -0.7748
  123OSM   H12G13102   6.889   3.345   7.734 -0.9967  2.0952 -1.7836
  123OSM   C13F13103   6.738   3.319   7.574 -0.1157 -1.1476  0.6315
  123OSM   H13F13104   6.680   3.235   7.529 -0.0798 -0.9889  0.2908
  123OSM   H13G13105   6.793   3.367   7.490  1.2804  0.2904  2.2846
  123OSM   C14F13106   6.641   3.424   7.610  0.3007  0.4178  0.1660
  123OSM   H14F13107   6.594   3.400   7.707  0.8969  0.2589  0.4237
  123OSM   H14G13108   6.554   3.424   7.541 -0.4377  1.0819  1.0769
  123OSM   C15F13109   6.690   3.572   7.619 -1.2371 -0.8440  0.2360
  123OSM   H15F13110   6.739   3.608   7.526  0.0095 -0.6435  0.9473
  123OSM   H15G13111   6.787   3.565   7.673 -1.1098 -1.8143 -0.1078
  123OSM   C16F13112   6.592   3.665   7.674 -0.4594  0.4100 -0.0802
  123OSM   H16F13113   6.550   3.619   7.765 -0.1281  0.5305  0.1372
  123OSM   H16G13114   6.507   3.674   7.603  0.4459  1.8614 -1.0431
  123OSM   C17F13115   6.657   3.796   7.720 -0.9110  0.3828  0.2343
  123OSM   H17F13116   6.668   3.859   7.629  0.2179 -0.7561 -0.4380
  123OSM   H17G13117   6.757   3.785   7.767  0.2057  0.8263 -1.9594
  123OSM   C18F13118   6.568   3.861   7.828  0.1826 -0.5428  0.5271
  123OSM   H18F13119   6.556   3.805   7.923  1.2580 -0.4026  0.7595
  123OSM   H18G13120   6.467   3.870   7.781  0.4662 -1.4152 -0.2850
  123OSM   H18H13121   6.607   3.962   7.854  0.6083 -0.5126 -0.1899
  124OSM      N13122   1.528   0.609   6.440  0.4136 -0.2874  0.5446
  124OSM    C1513123   1.581   0.527   6.321  0.4768 -0.3028  0.0868
  124OSM   H15A13124   1.513   0.542   6.239  0.7929  2.3012  0.2229
  124OSM   H15B13125   1.604   0.429   6.360  0.2671  0.5393  2.5102
  124OSM   H15C13126   1.681   0.554   6.290  0.8072 -2.8329 -1.3434
  124OSM    C1413127   1.620   0.578   6.551  0.6100  0.1321 -0.8653
  124OSM   H14A13128   1.719   0.602   6.515  1.7858  0.6729  2.4335
  124OSM   H14B13129   1.612   0.483   6.601 -0.0228  0.5949 -0.0622
  124OSM   H14C13130   1.599   0.649   6.629 -1.8810  0.4928 -1.7602
  124OSM    C1313131   1.536   0.762   6.419 -0.0306  0.1613  0.1018
  124OSM   H13A13132   1.501   0.776   6.318  0.5948  0.8322 -0.0273
  124OSM   H13B13133   1.637   0.797   6.406 -1.1029  2.7332 -2.2636
  124OSM   H13C13134   1.479   0.821   6.490 -0.1917  0.8856 -0.6242
  124OSM    C1213135   1.382   0.574   6.468 -0.9307  0.7701 -0.2814
  124OSM   H12A13136   1.351   0.657   6.530  0.5528  3.3041 -2.6812
  124OSM   H12B13137   1.373   0.487   6.531  1.5616  1.4874  1.2329
  124OSM    C1113138   1.286   0.564   6.344 -0.2707  0.2516 -0.4032
  124OSM   H11A13139   1.301   0.648   6.273  0.5678 -0.6476 -1.3281
  124OSM   H11B13140   1.184   0.576   6.384 -0.7092  1.1169 -1.7108
  124OSM      P13141   1.190   0.334   6.263  0.5420  0.4178 -0.4331
  124OSM    O1313142   1.065   0.388   6.202 -0.2340 -0.5967 -0.8051
  124OSM    O1413143   1.245   0.210   6.202 -0.3500  0.3920  0.2270
  124OSM    O1113144   1.160   0.304   6.409 -0.1822  0.3211  0.1980
  124OSM    O1213145   1.303   0.439   6.279 -0.4221  0.0372  0.5153
  124OSM    C1S13146   1.255   0.238   6.495  0.1626  0.8647  0.4211
  124OSM    H1S13147   1.353   0.290   6.493 -1.0622  3.3406  0.7978
  124OSM    H1T13148   1.270   0.130   6.472 -0.1570  0.4496  2.0223
  124OSM     NF13149   1.328   0.176   6.722 -0.1698 -0.0301  0.2226
  124OSM    HNF13150   1.344   0.079   6.739  4.1066  0.8906  3.0647
  124OSM    C2S13151   1.218   0.231   6.650 -0.5587  0.4514  0.6180
  124OSM    H2S13152   1.202   0.332   6.692  1.5344  0.7112  0.9018
  124OSM    C3S13153   1.091   0.136   6.658  0.5070 -0.2742 -1.4632
  124OSM    H3S13154   1.120   0.029   6.645  1.9038 -0.0134 -0.7420
  124OSM     O313155   0.997   0.155   6.547 -0.1698 -0.2587 -0.7473
  124OSM    HO313156   1.033   0.222   6.488  1.3956 -0.5319 -0.1420
  124OSM    C4S13157   1.012   0.155   6.779  0.6615  0.7828 -0.4009
  124OSM    H4S13158   0.962   0.253   6.782  0.0290  0.4438  0.7339
  124OSM    C5S13159   0.989   0.067   6.884 -0.1179  0.3922  0.3184
  124OSM    H5S13160   1.027  -0.036   6.878 -1.0752  0.1277 -2.7621
  124OSM    C6S13161   0.901   0.092   7.003 -0.6468  0.0149 -0.2894
  124OSM    H6S13162   0.806   0.035   6.988 -1.0281  0.2590  1.0492
  124OSM    H6T13163   0.866   0.194   7.029 -2.6197 -1.1441  2.0234
  124OSM    C7S13164   0.973   0.039   7.126 -0.0194  0.1346 -0.6237
  124OSM    H7S13165   1.041   0.118   7.166 -0.3709  0.0461  0.1719
  124OSM    H7T13166   1.021  -0.058   7.103  1.6991  1.2432 -2.0262
  124OSM    C8S13167   0.881   0.001   7.246  0.1294  0.1274  0.6650
  124OSM    H8S13168   0.804  -0.066   7.203 -0.3199  0.4545  0.9584
  124OSM    H8T13169   0.822   0.088   7.281  1.4177  0.3857  2.3483
  124OSM    C9S13170   0.945  -0.065   7.367 -0.4016  0.1426 -0.3708
  124OSM    H9S13171   1.001   0.014   7.422 -0.5645  1.3848 -1.9335
  124OSM    H9T13172   1.023  -0.136   7.332  1.5892  0.3435  3.1740
  124OSM   C10S13173   0.853  -0.119   7.479  0.5304 -0.0109  0.2220
  124OSM   H10S13174   0.781  -0.190   7.432 -0.1984 -0.7670  2.3230
  124OSM   H10T13175   0.793  -0.034   7.518 -0.1106 -0.6688  0.7117
  124OSM   C11S13176   0.933  -0.184   7.589  0.5748  1.1669  0.2913
  124OSM   H11S13177   1.011  -0.109   7.613  0.3904  2.2712 -2.2444
  124OSM   H11T13178   0.990  -0.267   7.541  2.3787  3.4293 -1.7460
  124OSM   C12S13179   0.846  -0.221   7.706 -0.1085  0.0012  0.6846
  124OSM   H12S13180   0.775  -0.304   7.687 -2.2657  2.2333 -2.1282
  124OSM   H12T13181   0.780  -0.137   7.737  2.8722  3.4451 -1.4551
  124OSM   C13S13182   0.927  -0.262   7.825  0.2026 -0.4491 -0.3540
  124OSM   H13S13183   0.990  -0.171   7.840 -1.3392  0.2210  2.6620
  124OSM   H13T13184   0.999  -0.343   7.799  2.2163  1.1814 -0.1708
  124OSM   C14S13185   0.847  -0.301   7.955  0.1528 -0.3536  0.8018
  124OSM   H14S13186   0.799  -0.401   7.947 -1.7408  0.6143 -0.4923
  124OSM   H14T13187   0.768  -0.224   7.955  0.4646 -0.0319  1.1746
  124OSM   C15S13188   0.928  -0.299   8.087  0.7595 -0.4661  0.2639
  124OSM   H15S13189   0.986  -0.205   8.085  0.5824 -0.3457 -2.3321
  124OSM   H15T13190   0.993  -0.387   8.106  0.7299 -0.7757 -0.9891
  124OSM   C16S13191   0.820  -0.306   8.199  0.4793 -1.0395  0.0293
  124OSM   H16S13192   0.840  -0.395   8.263 -1.7616 -1.9427 -0.4134
  124OSM   H16T13193   0.718  -0.322   8.158  0.5474 -1.6461  0.0881
  124OSM   C17S13194   0.806  -0.179   8.289  0.4419 -0.0224 -0.1771
  124OSM   H17S13195   0.730  -0.206   8.365 -1.5143  1.9008 -1.3213
  124OSM   H17T13196   0.767  -0.094   8.229 -0.0954  0.2920  0.6066
  124OSM   C18S13197   0.936  -0.147   8.362 -0.3536  0.6314 -0.5190
  124OSM   H18S13198   1.023  -0.138   8.293  0.7794 -1.3787  0.5542
  124OSM   H18T13199   0.953  -0.227   8.437  1.6839  1.8318  0.3940
  124OSM   H18U13200   0.907  -0.049   8.406  0.2818  0.1547  1.0422
  124OSM    C1F13201   1.437   0.249   6.724 -0.4476  0.5251  0.3482
  124OSM     OF13202   1.435   0.365   6.689 -0.2304  0.3162  0.5852
  124OSM    C2F13203   1.571   0.183   6.768 -0.2941 -0.3239  0.6389
  124OSM    H2F13204   1.644   0.214   6.690 -1.6381  0.4494 -0.3559
  124OSM    H2G13205   1.563   0.072   6.778  0.0536 -0.6434 -1.9621
  124OSM    C3F13206   1.628   0.226   6.906 -0.2917  0.1443  0.4686
  124OSM    H3F13207   1.634   0.337   6.910  0.8024  0.1920 -1.3307
  124OSM    H3G13208   1.728   0.179   6.914 -0.4163 -0.2284 -0.0927
  124OSM    C4F13209   1.543   0.170   7.022 -0.7580  0.3773  0.1127
  124OSM    H4F13210   1.542   0.059   7.020  3.0888  0.1722  1.3786
  124OSM    H4G13211   1.437   0.204   7.015 -1.2012 -0.6531  1.5347
  124OSM    C5F13212   1.607   0.202   7.166 -0.4663  0.4747 -0.5003
  124OSM    H5F13213   1.641   0.308   7.155  0.6445  0.2850  0.8763
  124OSM    H5G13214   1.694   0.134   7.179 -2.5602 -2.0187  1.4101
  124OSM    C6F13215   1.511   0.182   7.284 -0.3304  0.0450 -0.3101
  124OSM    H6F13216   1.570   0.199   7.376 -0.5546 -1.9533  0.2564
  124OSM    H6G13217   1.490   0.073   7.275  0.9271 -0.2178 -0.1174
  124OSM    C7F13218   1.374   0.257   7.277  0.6286 -0.3516 -0.0667
  124OSM    H7F13219   1.310   0.219   7.194  0.6825  0.1553 -0.3448
  124OSM    H7G13220   1.390   0.366   7.260 -3.2725  0.3125 -0.4596
  124OSM    C8F13221   1.297   0.254   7.407 -0.2750 -0.4290 -0.4797
  124OSM    H8F13222   1.300   0.148   7.440 -0.1015 -0.1237  0.5373
  124OSM    H8G13223   1.190   0.271   7.384 -0.8306 -1.1401  1.3340
  124OSM    C9F13224   1.352   0.341   7.519 -0.1634  0.0539 -0.1978
  124OSM    H9F13225   1.341   0.448   7.497 -0.2213 -0.2176 -1.5808
  124OSM   C10F13226   1.408   0.303   7.633  0.5435 -0.0086 -0.3070
  124OSM   H10F13227   1.450   0.380   7.699  2.6889  1.6733 -3.3505
  124OSM   C11F13228   1.439   0.160   7.685 -0.2377 -0.6444  0.1740
  124OSM   H11F13229   1.541   0.149   7.727  0.2297 -1.1391 -1.0539
  124OSM   H11G13230   1.431   0.087   7.602 -1.8037  1.7041 -1.9058
  124OSM   C12F13231   1.331   0.119   7.777  0.2584  0.2838 -0.3725
  124OSM   H12F13232   1.231   0.130   7.728  0.7042  2.9637 -0.8645
  124OSM   H12G13233   1.326   0.179   7.870  0.0632 -0.4963  0.1214
  124OSM   C13F13234   1.339  -0.024   7.815 -0.0334  0.4101 -0.3029
  124OSM   H13F13235   1.444  -0.054   7.834  0.1599  0.4409 -1.2662
  124OSM   H13G13236   1.290  -0.085   7.736  1.0317 -0.6690 -0.1456
  124OSM   C14F13237   1.262  -0.060   7.940 -0.2450  0.3457 -0.1045
  124OSM   H14F13238   1.247  -0.170   7.936 -1.8280  0.5584 -0.8874
  124OSM   H14G13239   1.161  -0.014   7.934  0.3569  1.8461  0.6284
  124OSM   C15F13240   1.340  -0.018   8.067  0.4974 -0.0969  0.7908
  124OSM   H15F13241   1.370   0.088   8.051 -1.1635  0.3701  0.5892
  124OSM   H15G13242   1.435  -0.071   8.087  0.1090 -1.5483 -0.9293
  124OSM   C16F13243   1.245  -0.020   8.193  0.7214  0.2428 -0.4802
  124OSM   H16F13244   1.218  -0.125   8.220 -1.7264  0.9181 -0.1045
  124OSM   H16G13245   1.151   0.035   8.171  0.0728 -0.6102  0.0996
  124OSM   C17F13246   1.314   0.053   8.309  0.0728  0.5488 -0.1583
  124OSM   H17F13247   1.241   0.107   8.373 -0.4466 -1.5942  1.1802
  124OSM   H17G13248   1.378   0.129   8.261  0.3060  1.1005  0.9924
  124OSM   C18F13249   1.386  -0.031   8.412  0.2661 -0.0998  0.3738
  124OSM   H18F13250   1.433   0.043   8.479  0.0575  0.1875  0.2059
  124OSM   H18G13251   1.464  -0.087   8.356  0.0679  1.1180 -1.1939
  124OSM   H18H13252   1.317  -0.094   8.472  1.0426 -0.7621  0.6025
  125OSM      N13253   2.979   5.300   6.208 -0.5206  1.2793  0.1452
  125OSM    C1513254   3.002   5.403   6.098  0.0523  0.6735 -0.2036
  125OSM   H15A13255   3.099   5.450   6.106  1.0459 -1.5199  2.1851
  125OSM   H15B13256   2.932   5.486   6.095  1.8127  2.2890  1.2900
  125OSM   H15C13257   3.006   5.347   6.006  1.1343 -0.1028  0.2919
  125OSM    C1413258   3.094   5.202   6.185 -0.4600  0.1972 -0.3517
  125OSM   H14A13259   3.069   5.114   6.243  0.8515 -0.0716 -0.1548
  125OSM   H14B13260   3.182   5.231   6.241 -1.1748 -0.8365  1.3870
  125OSM   H14C13261   3.107   5.168   6.083  2.0982 -1.9156  0.5473
  125OSM    C1313262   3.004   5.373   6.339 -0.4483  0.3867 -0.4893
  125OSM   H13A13263   2.929   5.449   6.358  0.0733  0.2861  2.3456
  125OSM   H13B13264   3.106   5.406   6.331  0.2948 -2.0506 -2.5282
  125OSM   H13C13265   2.992   5.299   6.416 -0.1282  1.0200  0.1804
  125OSM    C1213266   2.846   5.232   6.192  0.5706 -0.8260 -0.3201
  125OSM   H12A13267   2.838   5.200   6.089 -0.1271  0.4012 -0.6717
  125OSM   H12B13268   2.771   5.309   6.188  0.1244 -1.2036  0.5389
  125OSM    C1113269   2.800   5.126   6.291  0.2646 -0.1981 -0.2621
  125OSM   H11A13270   2.690   5.133   6.280  0.2565  1.5039  0.6932
  125OSM   H11B13271   2.825   5.153   6.396  2.9750 -2.8622 -0.0695
  125OSM      P13272   2.899   4.898   6.354  0.2192  0.0914 -0.0508
  125OSM    O1313273   2.773   4.843   6.415  0.3227  0.2986 -0.4206
  125OSM    O1413274   2.987   4.800   6.285 -0.1336 -0.2854 -0.1677
  125OSM    O1113275   2.982   4.986   6.451 -0.3000 -0.8124  0.1557
  125OSM    O1213276   2.854   5.006   6.251  0.4388  0.7202 -0.5898
  125OSM    C1S13277   2.949   4.990   6.589 -0.3992 -0.1446  0.1386
  125OSM    H1S13278   2.858   4.932   6.615  0.2816 -1.5430 -0.4941
  125OSM    H1T13279   2.920   5.096   6.608  1.7143  0.5254 -0.0377
  125OSM     NF13280   3.022   4.962   6.820  0.0534  0.1342  0.3268
  125OSM    HNF13281   2.989   5.051   6.849  0.0014 -0.5784  2.6163
  125OSM    C2S13282   3.072   4.971   6.684  0.5801  0.2938  0.3744
  125OSM    H2S13283   3.122   4.876   6.655 -0.2398  0.0686 -0.3330
  125OSM    C3S13284   3.184   5.082   6.667  0.1000  0.3158 -0.3052
  125OSM    H3S13285   3.146   5.184   6.689  1.2098  0.1777  2.7960
  125OSM     O313286   3.227   5.094   6.532 -0.3747 -0.0188 -0.4817
  125OSM    HO313287   3.150   5.060   6.485  0.0882 -4.9830  1.6748
  125OSM    C4S13288   3.298   5.056   6.761  0.4943  0.0733  0.2818
  125OSM    H4S13289   3.369   4.975   6.735 -1.4916 -1.9719  0.8971
  125OSM    C5S13290   3.322   5.134   6.863 -0.0522 -0.1557  0.3044
  125OSM    H5S13291   3.266   5.226   6.887  2.5692  1.3458  1.0137
  125OSM    C6S13292   3.441   5.106   6.955 -0.3688 -0.2060  0.7452
  125OSM    H6S13293   3.526   5.177   6.940  0.2927 -1.2304 -0.7013
  125OSM    H6T13294   3.487   5.005   6.954  1.1202  0.4248 -0.7092
  125OSM    C7S13295   3.402   5.137   7.096  0.6458 -0.2586 -0.1304
  125OSM    H7S13296   3.318   5.069   7.123  0.1439  1.0525  1.7751
  125OSM    H7T13297   3.375   5.243   7.111 -1.7181 -0.2392 -3.3720
  125OSM    C8S13298   3.525   5.124   7.191 -0.1236 -0.2997  0.4343
  125OSM    H8S13299   3.601   5.201   7.165 -0.8169  0.1586 -0.2893
  125OSM    H8T13300   3.563   5.023   7.167  1.2334  0.6405 -1.6678
  125OSM    C9S13301   3.491   5.124   7.341  0.3959  0.2852 -0.4925
  125OSM    H9S13302   3.419   5.041   7.354  0.2097  0.1933 -1.9048
  125OSM    H9T13303   3.441   5.220   7.366 -3.1387 -1.7605  0.9530
  125OSM   C10S13304   3.615   5.115   7.427  0.5180 -0.2804 -0.6423
  125OSM   H10S13305   3.678   5.201   7.396 -1.1695  1.1075 -0.3653
  125OSM   H10T13306   3.677   5.024   7.409  2.1490  0.6384  0.1849
  125OSM   C11S13307   3.588   5.125   7.574 -0.4445  1.0754 -0.5348
  125OSM   H11S13308   3.545   5.028   7.607  0.7523  0.8506  0.4309
  125OSM   H11T13309   3.521   5.211   7.592 -0.1227  1.0011  1.1003
  125OSM   C12S13310   3.721   5.157   7.645  0.2841 -0.1437  0.6311
  125OSM   H12S13311   3.772   5.243   7.597  0.2759 -0.4424  0.0866
  125OSM   H12T13312   3.790   5.070   7.643  1.8396  1.0048  1.2189
  125OSM   C13S13313   3.699   5.176   7.796  0.3879 -0.7246  0.2037
  125OSM   H13S13314   3.802   5.190   7.837  0.6126  0.2412 -0.6285
  125OSM   H13T13315   3.648   5.090   7.844 -3.2884  1.2620  0.2238
  125OSM   C14S13316   3.613   5.300   7.826 -0.7387 -0.7810 -0.5373
  125OSM   H14S13317   3.510   5.288   7.786 -0.8994  1.4286 -0.8686
  125OSM   H14T13318   3.644   5.394   7.776 -3.8767  1.0308  0.6641
  125OSM   C15S13319   3.597   5.326   7.977  0.2944 -0.0645 -0.0966
  125OSM   H15S13320   3.529   5.411   7.995  2.3520  1.2254  2.1928
  125OSM   H15T13321   3.697   5.358   8.014  1.5348 -2.0604 -1.4709
  125OSM   C16S13322   3.563   5.211   8.069 -0.2096  0.5561 -0.3887
  125OSM   H16S13323   3.639   5.131   8.055 -0.3742  0.4212 -0.5107
  125OSM   H16T13324   3.468   5.161   8.041  0.6339 -1.6780  0.5331
  125OSM   C17S13325   3.569   5.251   8.215  0.2708 -0.1316  0.0818
  125OSM   H17S13326   3.503   5.337   8.243  1.8132  1.6950 -1.5723
  125OSM   H17T13327   3.666   5.290   8.252 -0.5674  1.8055  0.3930
  125OSM   C18S13328   3.523   5.141   8.304  0.5676 -0.4085 -0.1734
  125OSM   H18S13329   3.420   5.106   8.282  0.4864  0.0845 -0.6188
  125OSM   H18T13330   3.523   5.188   8.405  0.3414 -0.2135 -0.2624
  125OSM   H18U13331   3.598   5.059   8.302 -0.5313 -1.4536  0.2092
  125OSM    C1F13332   2.961   4.856   6.869  0.2444  0.0072 -0.0767
  125OSM     OF13333   2.980   4.752   6.814 -0.5223  0.1407 -0.1262
  125OSM    C2F13334   2.859   4.870   6.973 -0.1611 -0.7719 -0.8431
  125OSM    H2F13335   2.784   4.948   6.949  0.5710  0.4954  0.8048
  125OSM    H2G13336   2.913   4.897   7.066  0.7068 -0.7149 -1.3509
  125OSM    C3F13337   2.799   4.731   7.005  0.2522  0.0256 -0.6730
  125OSM    H3F13338   2.866   4.661   7.061 -0.2019 -0.2096 -0.4200
  125OSM    H3G13339   2.750   4.678   6.921 -1.0229  2.5014 -1.5733
  125OSM    C4F13340   2.673   4.759   7.099  0.4106  0.7027  0.5039
  125OSM    H4F13341   2.628   4.662   7.127 -1.3226  1.6907  1.3569
  125OSM    H4G13342   2.593   4.823   7.055 -0.7719 -0.5607  0.7515
  125OSM    C5F13343   2.704   4.827   7.226 -0.2526 -0.1128 -1.0565
  125OSM    H5F13344   2.605   4.850   7.272  1.2633 -0.7630  2.9207
  125OSM    H5G13345   2.749   4.927   7.209 -0.0124  0.0377  0.3424
  125OSM    C6F13346   2.764   4.746   7.339  0.9995 -0.4165  0.1693
  125OSM    H6F13347   2.855   4.698   7.298  0.5706 -0.7952 -0.3572
  125OSM    H6G13348   2.692   4.666   7.368  1.1833  0.0652  2.0834
  125OSM    C7F13349   2.788   4.830   7.462  0.1375  0.3143 -0.0198
  125OSM    H7F13350   2.694   4.866   7.509 -0.8419 -0.6867 -1.1643
  125OSM    H7G13351   2.832   4.929   7.436  0.7755 -0.1165 -0.5746
  125OSM    C8F13352   2.854   4.746   7.584  0.3241  0.1391  0.4006
  125OSM    H8F13353   2.875   4.828   7.657 -1.8703  0.1464  1.0947
  125OSM    H8G13354   2.950   4.697   7.556  0.1979 -0.1880  0.5402
  125OSM    C9F13355   2.756   4.650   7.642 -0.5430  0.5624  0.2428
  125OSM    H9F13356   2.753   4.551   7.593 -2.3562  1.0999 -0.8177
  125OSM   C10F13357   2.666   4.674   7.739  0.1903  0.0929  0.6845
  125OSM   H10F13358   2.588   4.601   7.765 -0.4103 -0.1079 -1.5165
  125OSM   C11F13359   2.636   4.802   7.816 -0.4475  0.4895 -0.7366
  125OSM   H11F13360   2.526   4.811   7.824 -0.3870  0.4772  0.1329
  125OSM   H11G13361   2.678   4.884   7.753 -0.1962  0.6163 -0.4058
  125OSM   C12F13362   2.696   4.805   7.965  0.4891 -0.2643 -0.6742
  125OSM   H12F13363   2.644   4.741   8.039  1.5635  1.0475  1.2981
  125OSM   H12G13364   2.680   4.911   7.992  0.0927 -0.3496 -0.5623
  125OSM   C13F13365   2.843   4.773   7.975  0.2082 -0.3155  0.6170
  125OSM   H13F13366   2.884   4.840   7.896  1.8978 -1.0306  0.8334
  125OSM   H13G13367   2.877   4.671   7.948  1.5068 -0.2299  1.8047
  125OSM   C14F13368   2.901   4.798   8.117 -0.5144  0.1490  0.1856
  125OSM   H14F13369   2.995   4.741   8.132  0.0417  1.0916  0.3452
  125OSM   H14G13370   2.820   4.769   8.186 -0.3211  0.1260  0.4014
  125OSM   C15F13371   2.943   4.945   8.143 -0.0753  0.2748 -0.1760
  125OSM   H15F13372   2.886   5.010   8.073 -0.1863  1.5392  1.0458
  125OSM   H15G13373   3.052   4.955   8.122  0.1997  0.8495  1.3821
  125OSM   C16F13374   2.927   4.990   8.287 -0.0840 -0.0222  0.0596
  125OSM   H16F13375   2.973   4.919   8.359  2.3263 -0.6757 -1.9769
  125OSM   H16G13376   2.819   4.998   8.311  0.3205  0.3139  1.8851
  125OSM   C17F13377   2.980   5.133   8.325 -0.5388  0.5741 -0.0638
  125OSM   H17F13378   2.946   5.161   8.427 -0.9245  2.4665 -0.6677
  125OSM   H17G13379   2.937   5.215   8.264 -0.0674  1.3459  0.6194
  125OSM   C18F13380   3.127   5.147   8.310  0.5993 -0.7791 -0.0302
  125OSM   H18F13381   3.156   5.240   8.363  0.1374 -0.5138 -0.2375
  125OSM   H18G13382   3.163   5.143   8.205  0.7286  0.2775 -0.0386
  125OSM   H18H13383   3.167   5.059   8.364  0.7588  0.3573  1.8107
  126OSM      N13384   2.197   2.202   6.433  0.4565 -0.2370 -0.2773
  126OSM    C1513385   2.270   2.128   6.531  0.0128  0.3313  0.0350
  126OSM   H15A13386   2.244   2.171   6.627  3.0990  1.0914  0.6311
  126OSM   H15B13387   2.377   2.128   6.517 -0.1164 -1.3358 -1.2399
  126OSM   H15C13388   2.252   2.022   6.527  0.7182  0.2437 -1.4633
  126OSM    C1413389   2.228   2.146   6.296  0.5443 -0.1942 -0.6915
  126OSM   H14A13390   2.159   2.183   6.221  2.3804 -0.0859 -2.4208
  126OSM   H14B13391   2.225   2.038   6.288  1.5752 -0.3760  0.8221
  126OSM   H14C13392   2.329   2.169   6.264  1.5273 -1.3292  1.3796
  126OSM    C1313393   2.047   2.179   6.457  0.1597 -0.0065  0.3021
  126OSM   H13A13394   1.993   2.195   6.365 -0.7082 -1.2607  0.5597
  126OSM   H13B13395   2.005   2.244   6.533  0.8304  1.0269 -0.1846
  126OSM   H13C13396   2.019   2.080   6.489 -3.0887  0.2628 -1.2233
  126OSM    C1213397   2.231   2.348   6.448 -0.1155 -0.0515  0.0053
  126OSM   H12A13398   2.169   2.412   6.386 -1.9494 -2.0186 -0.3341
  126OSM   H12B13399   2.332   2.359   6.413  0.1998  0.4166  1.0518
  126OSM    C1113400   2.219   2.406   6.594  0.0155 -0.0243  0.3083
  126OSM   H11A13401   2.255   2.510   6.584 -2.7000  0.9283 -0.6478
  126OSM   H11B13402   2.292   2.357   6.661  0.0012 -4.1943 -2.3937
  126OSM      P13403   1.993   2.526   6.631  0.3182 -0.0379 -0.0568
  126OSM    O1313404   2.067   2.651   6.609 -0.1472  0.0365 -0.5762
  126OSM    O1413405   1.894   2.492   6.525 -0.2077  0.5753  0.7623
  126OSM    O1113406   1.923   2.535   6.766  0.2156 -0.2722 -0.0260
  126OSM    O1213407   2.091   2.411   6.650  0.2618  0.5806 -1.0433
  126OSM    C1S13408   1.947   2.457   6.880  0.0385  0.1040 -0.1423
  126OSM    H1S13409   1.989   2.358   6.850 -3.2319 -1.6860  0.6902
  126OSM    H1T13410   1.855   2.437   6.939  0.1668 -3.5248 -0.9171
  126OSM     NF13411   2.068   2.432   7.100 -0.1664 -0.3564  0.0908
  126OSM    HNF13412   1.996   2.434   7.169 -1.0160  0.8605 -0.7912
  126OSM    C2S13413   2.048   2.522   6.990  0.2331 -0.5645  0.0605
  126OSM    H2S13414   2.148   2.534   6.943  1.0818 -1.2796  1.6047
  126OSM    C3S13415   1.993   2.659   7.022 -0.1418  0.6562  0.4052
  126OSM    H3S13416   1.884   2.658   7.042 -0.3281  0.0502 -0.6010
  126OSM     O313417   1.999   2.754   6.913  0.4027  0.3235 -0.1008
  126OSM    HO313418   1.996   2.704   6.831 -0.3367  1.8283 -1.0366
  126OSM    C4S13419   2.071   2.706   7.147  0.8244 -0.0254  0.3041
  126OSM    H4S13420   2.179   2.686   7.152  0.5670 -1.2231  1.6886
  126OSM    C5S13421   2.022   2.773   7.256  0.1697 -0.0657  0.0259
  126OSM    H5S13422   1.915   2.794   7.270 -0.4011  0.2948 -3.6505
  126OSM    C6S13423   2.112   2.800   7.369 -0.7621  0.1283 -0.1195
  126OSM    H6S13424   2.075   2.895   7.414 -2.7063 -1.2208  1.2612
  126OSM    H6T13425   2.215   2.819   7.332 -0.6177  2.4042  1.2429
  126OSM    C7S13426   2.118   2.707   7.492  0.3309 -1.8070  0.6248
  126OSM    H7S13427   2.169   2.612   7.462  0.7372 -0.6288 -2.8745
  126OSM    H7T13428   2.014   2.695   7.529  0.2362 -0.6650  0.7398
  126OSM    C8S13429   2.210   2.760   7.603 -0.4567 -0.4705 -0.1595
  126OSM    H8S13430   2.155   2.852   7.632 -0.0065 -0.3091  0.1916
  126OSM    H8T13431   2.311   2.787   7.566 -1.3221  0.6149 -1.8527
  126OSM    C9S13432   2.208   2.664   7.722  0.0672 -0.0666 -0.7245
  126OSM    H9S13433   2.250   2.569   7.682 -0.1401 -0.2979 -0.4021
  126OSM    H9T13434   2.105   2.651   7.762 -0.0608  0.4475 -0.8847
  126OSM   C10S13435   2.290   2.697   7.845  0.2007  0.4109  0.5858
  126OSM   H10S13436   2.267   2.801   7.875 -1.6325  0.3810 -0.5735
  126OSM   H10T13437   2.399   2.691   7.820  0.3650 -1.2500  1.5145
  126OSM   C11S13438   2.257   2.601   7.957  0.1920 -0.6720  0.0301
  126OSM   H11S13439   2.298   2.503   7.925 -3.3738 -2.8611  1.6105
  126OSM   H11T13440   2.147   2.608   7.971  0.1658  0.7557 -0.6180
  126OSM   C12S13441   2.345   2.640   8.083 -0.3658 -0.1236 -0.0774
  126OSM   H12S13442   2.329   2.747   8.109  1.3663 -0.3267  2.1783
  126OSM   H12T13443   2.450   2.635   8.045  0.3051  4.1420  0.7128
  126OSM   C13S13444   2.333   2.550   8.207  0.5165 -0.5712  0.6570
  126OSM   H13S13445   2.363   2.451   8.165  3.2087  0.3943  0.0811
  126OSM   H13T13446   2.229   2.550   8.245  0.4722 -1.6037  0.5585
  126OSM   C14S13447   2.431   2.586   8.310 -0.1914 -0.1537  0.4088
  126OSM   H14S13448   2.422   2.695   8.329  0.3554  0.1182 -0.7817
  126OSM   H14T13449   2.534   2.569   8.271 -0.8504 -0.1374 -1.4634
  126OSM   C15S13450   2.407   2.507   8.442  0.5349  0.0661 -1.0639
  126OSM   H15S13451   2.398   2.398   8.420 -2.0792  0.1435 -0.7309
  126OSM   H15T13452   2.308   2.528   8.487  0.8745  0.1660 -0.3454
  126OSM   C16S13453   2.506   2.547   8.555  0.5070 -0.4474 -0.4109
  126OSM   H16S13454   2.469   2.512   8.653 -1.3156 -0.6298 -1.1274
  126OSM   H16T13455   2.508   2.658   8.555 -1.8508 -0.3660 -0.5443
  126OSM   C17S13456   2.650   2.501   8.532 -1.2096 -0.3700 -0.0183
  126OSM   H17S13457   2.693   2.562   8.450 -2.0133 -0.9812 -0.9034
  126OSM   H17T13458   2.654   2.391   8.517  1.4081 -0.1807 -1.3612
  126OSM   C18S13459   2.742   2.534   8.655 -0.1153 -0.6685 -0.0757
  126OSM   H18S13460   2.851   2.540   8.631 -0.1680  2.8964 -0.0060
  126OSM   H18T13461   2.723   2.478   8.749  2.2118 -1.3755  0.0340
  126OSM   H18U13462   2.718   2.638   8.687 -0.7308 -0.9663  0.4466
  126OSM    C1F13463   2.140   2.317   7.089 -0.9040  0.2766  0.1847
  126OSM     OF13464   2.202   2.297   6.981  0.0249  0.2541  0.2857
  126OSM    C2F13465   2.149   2.227   7.207 -0.3036 -0.3278 -0.1120
  126OSM    H2F13466   2.045   2.191   7.220 -0.3770 -0.4223 -0.9047
  126OSM    H2G13467   2.184   2.293   7.289  0.9739  1.4091 -1.9369
  126OSM    C3F13468   2.261   2.123   7.195 -0.7958  0.2923  0.3675
  126OSM    H3F13469   2.365   2.161   7.193 -0.9905  0.9535  1.7396
  126OSM    H3G13470   2.249   2.066   7.100  0.1769  0.6288  0.0308
  126OSM    C4F13471   2.232   2.019   7.301  0.3044  0.1494  0.6298
  126OSM    H4F13472   2.124   1.992   7.300  0.2547  0.3470  0.3906
  126OSM    H4G13473   2.240   2.065   7.402 -1.9741  1.3181  0.3511
  126OSM    C5F13474   2.316   1.894   7.291  0.6291 -0.5973  0.1432
  126OSM    H5F13475   2.425   1.911   7.287  0.2779  2.0443  0.1750
  126OSM    H5G13476   2.284   1.832   7.204 -2.7785  0.5696  0.3934
  126OSM    C6F13477   2.302   1.805   7.417 -0.0967 -0.2605  0.1726
  126OSM    H6F13478   2.196   1.803   7.450 -0.5175 -3.4972 -0.9482
  126OSM    H6G13479   2.363   1.848   7.499 -1.3677 -1.8633  2.0444
  126OSM    C7F13480   2.338   1.658   7.383  0.2586  0.9582  0.2190
  126OSM    H7F13481   2.428   1.647   7.319  0.5473  1.6145  0.5094
  126OSM    H7G13482   2.255   1.608   7.328  1.0196 -1.1774  0.8850
  126OSM    C8F13483   2.363   1.569   7.503 -0.0915  0.1963 -0.4115
  126OSM    H8F13484   2.457   1.612   7.542  0.4900 -0.8866 -0.5844
  126OSM    H8G13485   2.386   1.462   7.484 -0.2853  0.1739 -0.5201
  126OSM    C9F13486   2.249   1.570   7.598  0.2052  0.1162  0.3306
  126OSM    H9F13487   2.168   1.503   7.564 -1.6093  1.8371  1.0536
  126OSM   C10F13488   2.239   1.626   7.718  0.1619 -0.2611  0.0322
  126OSM   H10F13489   2.146   1.606   7.773  0.0366  0.8602  0.2566
  126OSM   C11F13490   2.339   1.720   7.789  0.5259  0.6436  0.6763
  126OSM   H11F13491   2.284   1.811   7.819 -2.5283 -0.7982 -0.1504
  126OSM   H11G13492   2.430   1.745   7.731  1.1608  1.1403  1.8464
  126OSM   C12F13493   2.397   1.658   7.924  0.6431  0.2550 -0.6242
  126OSM   H12F13494   2.463   1.576   7.888  1.1939 -0.6464  2.1744
  126OSM   H12G13495   2.317   1.622   7.992  0.5929  0.9654 -0.2974
  126OSM   C13F13496   2.466   1.759   8.015  0.7320  0.4698  0.4004
  126OSM   H13F13497   2.382   1.828   8.035 -1.3840 -1.2392 -1.9534
  126OSM   H13G13498   2.546   1.809   7.956  0.3381 -0.3434 -0.8733
  126OSM   C14F13499   2.512   1.703   8.155 -0.9243  0.4102  0.5889
  126OSM   H14F13500   2.617   1.669   8.146 -0.2134  2.5164  0.6171
  126OSM   H14G13501   2.445   1.616   8.173 -2.0082  0.4262 -2.7672
  126OSM   C15F13502   2.508   1.816   8.261  0.0244  0.3292 -0.7413
  126OSM   H15F13503   2.414   1.872   8.246 -0.9758 -0.1776  2.9029
  126OSM   H15G13504   2.581   1.896   8.237  0.3606 -0.1419 -1.3449
  126OSM   C16F13505   2.510   1.746   8.394  0.4359 -0.0107  0.5764
  126OSM   H16F13506   2.614   1.714   8.419  1.2171  1.2996 -0.8550
  126OSM   H16G13507   2.444   1.657   8.380  1.4083 -0.6852  0.1591
  126OSM   C17F13508   2.448   1.834   8.499 -0.5124  0.1492 -0.3678
  126OSM   H17F13509   2.344   1.867   8.478 -0.7508  0.7639  1.5415
  126OSM   H17G13510   2.515   1.921   8.518 -1.0792  0.0832  2.3289
  126OSM   C18F13511   2.439   1.757   8.637  0.5060 -0.3131 -0.1963
  126OSM   H18F13512   2.530   1.700   8.664 -0.5377 -1.6726  0.6197
  126OSM   H18G13513   2.355   1.683   8.638  1.6317 -1.6266  0.6869
  126OSM   H18H13514   2.426   1.819   8.728 -2.3788 -1.7471  0.4969
  127OSM      N13515   6.069   4.631   6.430 -0.3091  0.3135  0.7852
  127OSM    C1513516   6.125   4.694   6.551  0.5245  0.8611 -0.1127
  127OSM   H15A13517   6.233   4.692   6.551  0.5219  0.1883  0.7249
  127OSM   H15B13518   6.092   4.654   6.646  1.6980 -0.1670 -0.1078
  127OSM   H15C13519   6.096   4.798   6.552 -0.3258  0.6350 -0.3695
  127OSM    C1413520   5.918   4.637   6.441 -0.4664 -0.8724  0.5146
  127OSM   H14A13521   5.866   4.610   6.350  0.6986 -1.8614  0.1106
  127OSM   H14B13522   5.885   4.737   6.463  0.5219  0.4060 -3.0045
  127OSM   H14C13523   5.883   4.565   6.513 -1.9926 -0.0984  0.5997
  127OSM    C1313524   6.107   4.716   6.305  0.1295 -0.5806  0.4756
  127OSM   H13A13525   6.099   4.663   6.211  0.7838  1.2764 -0.7000
  127OSM   H13B13526   6.206   4.759   6.317  0.2954 -1.1228  1.0562
  127OSM   H13C13527   6.033   4.795   6.307 -0.0681 -0.7774  1.4314
  127OSM    C1213528   6.113   4.485   6.415 -0.0756 -1.0455 -0.1788
  127OSM   H12A13529   6.050   4.435   6.343 -0.2715  0.5192 -1.1391
  127OSM   H12B13530   6.101   4.435   6.510  0.7651  0.8680  0.9856
  127OSM    C1113531   6.267   4.467   6.364  0.7345  0.3466  0.4517
  127OSM   H11A13532   6.261   4.502   6.259 -0.5884 -0.1350  0.3390
  127OSM   H11B13533   6.291   4.358   6.363  0.7238  0.3235 -1.5239
  127OSM      P13534   6.475   4.621   6.405  0.1026  0.2437  0.3020
  127OSM    O1313535   6.573   4.544   6.326 -0.6303 -0.3786 -0.2010
  127OSM    O1413536   6.413   4.739   6.338  0.8381  0.7451  0.1186
  127OSM    O1113537   6.537   4.663   6.549  0.0192 -0.1231  0.6328
  127OSM    O1213538   6.356   4.529   6.453 -0.7017  0.7773  0.4144
  127OSM    C1S13539   6.673   4.721   6.548 -0.1512  0.1718  0.0862
  127OSM    H1S13540   6.693   4.800   6.472 -0.4567  1.1454  0.9779
  127OSM    H1T13541   6.751   4.646   6.523  0.9651  2.1481 -2.9323
  127OSM     NF13542   6.851   4.824   6.685  0.4396 -0.2742 -0.1122
  127OSM    HNF13543   6.927   4.778   6.731  2.0628  0.8389 -1.5697
  127OSM    C2S13544   6.717   4.771   6.692  0.4702  0.7981  0.1585
  127OSM    H2S13545   6.645   4.850   6.721 -0.4521  0.4314 -1.0310
  127OSM    C3S13546   6.698   4.649   6.794  0.2585 -0.5141 -0.8421
  127OSM    H3S13547   6.763   4.566   6.757 -0.5450 -0.9162 -1.3822
  127OSM     O313548   6.564   4.591   6.809 -0.3396  0.4469 -0.2182
  127OSM    HO313549   6.524   4.632   6.732 -1.2449 -0.8769 -0.4917
  127OSM    C4S13550   6.752   4.687   6.938  0.4921 -0.0142  0.1690
  127OSM    H4S13551   6.861   4.675   6.948  0.4200 -2.2962 -1.1003
  127OSM    C5S13552   6.682   4.738   7.040 -0.1529  0.0321 -0.1647
  127OSM    H5S13553   6.574   4.747   7.020 -0.3960 -1.6342  0.2743
  127OSM    C6S13554   6.748   4.779   7.168  0.6040  0.1280 -0.2676
  127OSM    H6S13555   6.740   4.890   7.171 -0.5396  0.0932 -1.2900
  127OSM    H6T13556   6.854   4.745   7.167  0.4150 -0.5858  0.9538
  127OSM    C7S13557   6.690   4.715   7.293  0.1484  0.3777 -0.2635
  127OSM    H7S13558   6.754   4.726   7.383  2.0351 -0.0294 -1.4781
  127OSM    H7T13559   6.699   4.605   7.279 -1.6045  0.2661 -0.6918
  127OSM    C8S13560   6.540   4.746   7.308 -0.8462 -0.0309 -0.1409
  127OSM    H8S13561   6.478   4.720   7.219  1.3539  1.2421 -2.1568
  127OSM    H8T13562   6.541   4.857   7.311 -0.5539  0.0325 -1.8042
  127OSM    C9S13563   6.481   4.689   7.433 -0.5705 -0.2807  0.4785
  127OSM    H9S13564   6.495   4.579   7.434  0.7573 -0.1941 -1.7748
  127OSM    H9T13565   6.373   4.715   7.433 -1.4355 -3.4164  0.8350
  127OSM   C10S13566   6.548   4.729   7.565 -0.6916  0.0754 -0.6055
  127OSM   H10S13567   6.545   4.839   7.560  1.0220  0.0898 -2.3052
  127OSM   H10T13568   6.655   4.699   7.566 -0.7111 -0.0084  0.5785
  127OSM   C11S13569   6.487   4.669   7.697  0.3026 -0.0405  0.7537
  127OSM   H11S13570   6.489   4.559   7.683 -2.5579 -0.0172 -0.6891
  127OSM   H11T13571   6.379   4.691   7.682  0.8702  0.8417 -3.0915
  127OSM   C12S13572   6.538   4.713   7.835  0.5330  0.2293  0.6977
  127OSM   H12S13573   6.571   4.819   7.829 -1.1091  0.7476  0.2511
  127OSM   H12T13574   6.626   4.649   7.858  0.2471 -1.1736 -1.7423
  127OSM   C13S13575   6.439   4.707   7.955  0.2034  0.9665 -0.5231
  127OSM   H13S13576   6.333   4.731   7.934 -0.0842  0.6375  0.4692
  127OSM   H13T13577   6.467   4.788   8.026  0.7967  0.7656 -0.5260
  127OSM   C14S13578   6.442   4.566   8.031 -0.5101  0.2094  0.6801
  127OSM   H14S13579   6.546   4.546   8.063  0.0250 -0.4364 -1.3361
  127OSM   H14T13580   6.403   4.487   7.964 -0.6603 -0.5607  1.6428
  127OSM   C15S13581   6.355   4.579   8.159  0.0802  0.2813 -0.1740
  127OSM   H15S13582   6.250   4.602   8.133 -0.5479 -0.4802  1.4974
  127OSM   H15T13583   6.392   4.659   8.227  1.1930 -2.0501  2.1584
  127OSM   C16S13584   6.354   4.449   8.245  1.2444  0.4284 -0.9741
  127OSM   H16S13585   6.451   4.434   8.298  0.7048 -3.1213 -0.7592
  127OSM   H16T13586   6.351   4.364   8.174 -0.5076  1.0248 -1.6625
  127OSM   C17S13587   6.254   4.473   8.354  0.1966  0.4486 -0.3099
  127OSM   H17S13588   6.155   4.500   8.312 -0.9149 -2.8700 -0.1031
  127OSM   H17T13589   6.292   4.559   8.412  1.6667 -0.5322  0.2526
  127OSM   C18S13590   6.239   4.358   8.444 -0.5944 -0.3343  0.2009
  127OSM   H18S13591   6.209   4.406   8.539 -0.2292  1.5910 -0.6094
  127OSM   H18T13592   6.328   4.293   8.456 -1.2126 -1.0877  0.8150
  127OSM   H18U13593   6.151   4.295   8.418 -1.3397 -0.9213  3.6301
  127OSM    C1F13594   6.890   4.935   6.619 -0.2957  0.2513  0.0131
  127OSM     OF13595   6.821   4.992   6.539  0.7263  0.4896 -0.0666
  127OSM    C2F13596   7.029   4.975   6.654  0.1725  0.3144 -0.1476
  127OSM    H2F13597   7.080   4.995   6.558 -0.8403  2.5587 -0.2754
  127OSM    H2G13598   7.074   4.896   6.718 -2.9533 -0.4296  1.3363
  127OSM    C3F13599   7.037   5.103   6.738  0.5150 -1.0227  0.3532
  127OSM    H3F13600   6.991   5.181   6.674  1.8325  0.5540  1.2424
  127OSM    H3G13601   7.142   5.136   6.755  0.0502  0.0108  1.4235
  127OSM    C4F13602   6.976   5.095   6.876  0.2756 -0.3554  0.2379
  127OSM    H4F13603   6.867   5.073   6.876  0.3075 -0.5128  0.3237
  127OSM    H4G13604   6.978   5.199   6.916 -0.5041  0.2066 -1.1111
  127OSM    C5F13605   7.044   4.999   6.971 -0.0274  0.2744  0.1992
  127OSM    H5F13606   7.145   4.979   6.927  0.4513 -0.0933  1.4178
  127OSM    H5G13607   7.001   4.897   6.961 -1.2668  0.8768 -0.8479
  127OSM    C6F13608   7.052   5.042   7.122  0.5748 -0.3675  0.1674
  127OSM    H6F13609   6.947   5.043   7.160  0.0580  1.2349 -1.1653
  127OSM    H6G13610   7.107   5.139   7.125  0.5818 -0.3807  2.7018
  127OSM    C7F13611   7.112   4.932   7.203 -0.2911 -0.2149 -0.5100
  127OSM    H7F13612   7.220   4.925   7.179  0.6901  2.9258  2.2076
  127OSM    H7G13613   7.065   4.834   7.176  0.1015 -0.9161  1.2163
  127OSM    C8F13614   7.083   4.945   7.362 -0.4834  0.0011 -0.5456
  127OSM    H8F13615   6.976   4.921   7.379 -0.0218 -0.8842  1.3019
  127OSM    H8G13616   7.092   5.054   7.385  1.4574  0.0116 -1.1439
  127OSM    C9F13617   7.171   4.853   7.440  0.6110 -0.1233  0.1819
  127OSM    H9F13618   7.277   4.871   7.415  1.2137 -1.3527  1.7288
  127OSM   C10F13619   7.133   4.756   7.525  0.2426 -0.4911 -0.2421
  127OSM   H10F13620   7.213   4.696   7.572  0.3811 -0.5062 -0.4972
  127OSM   C11F13621   6.989   4.727   7.567  0.2217 -0.1690 -0.4845
  127OSM   H11F13622   6.935   4.653   7.503  0.4223 -0.8003  0.0744
  127OSM   H11G13623   6.932   4.823   7.559 -2.4762 -1.6860 -0.7704
  127OSM   C12F13624   6.971   4.669   7.713  0.2506  0.3210  0.2644
  127OSM   H12F13625   7.019   4.569   7.723 -0.5084 -0.0189  0.6607
  127OSM   H12G13626   6.862   4.655   7.730  0.4515 -0.8687  0.6975
  127OSM   C13F13627   7.030   4.759   7.819 -0.3901  1.1332  0.7520
  127OSM   H13F13628   6.998   4.865   7.811 -0.8529  0.9747  0.5064
  127OSM   H13G13629   7.138   4.766   7.794 -0.2083  1.8273  1.6668
  127OSM   C14F13630   6.983   4.705   7.949 -0.8004 -0.0965  0.2627
  127OSM   H14F13631   7.023   4.602   7.964 -0.8682 -0.2368 -0.4793
  127OSM   H14G13632   6.873   4.701   7.933 -0.3995 -1.0175 -2.9158
  127OSM   C15F13633   7.029   4.779   8.075  0.0510  0.4298  0.1704
  127OSM   H15F13634   6.973   4.875   8.070 -0.1728  0.2399 -2.0009
  127OSM   H15G13635   7.137   4.806   8.070  0.1035 -0.0353 -1.9059
  127OSM   C16F13636   7.007   4.709   8.203 -0.6333 -0.0626 -0.1553
  127OSM   H16F13637   7.038   4.773   8.288  1.2869  0.7184 -1.3873
  127OSM   H16G13638   7.077   4.622   8.200  0.5408  0.7971  1.2352
  127OSM   C17F13639   6.859   4.662   8.221  0.2388 -0.8795  0.1441
  127OSM   H17F13640   6.825   4.609   8.129 -0.1162  0.7718 -0.7188
  127OSM   H17G13641   6.796   4.752   8.236 -0.2381 -0.9821 -1.0893
  127OSM   C18F13642   6.841   4.563   8.332  0.3321 -0.3146  0.0333
  127OSM   H18F13643   6.890   4.607   8.421 -0.2237  1.0683 -0.3245
  127OSM   H18G13644   6.871   4.458   8.309 -2.1326 -1.0898  0.0561
  127OSM   H18H13645   6.734   4.564   8.361  0.6120  0.0216  1.1218
  128OSM      N13646   6.315   2.342   5.954 -0.5321 -0.3652  0.4370
  128OSM    C1513647   6.287   2.198   5.905  0.0892 -0.7740 -0.1990
  128OSM   H15A13648   6.184   2.184   5.875  0.3957 -1.4827 -0.9671
  128OSM   H15B13649   6.314   2.129   5.983 -0.7894 -1.8496 -0.8030
  128OSM   H15C13650   6.349   2.177   5.820  0.9576  0.9076 -0.0150
  128OSM    C1413651   6.459   2.357   5.966 -0.8782 -0.3626 -0.8780
  128OSM   H14A13652   6.506   2.290   6.036  0.1457  1.7058  0.5302
  128OSM   H14B13653   6.488   2.451   6.012  1.2469 -1.2824 -0.2106
  128OSM   H14C13654   6.513   2.349   5.873  3.2805  0.6634  1.2189
  128OSM    C1313655   6.265   2.432   5.838 -0.6246  0.3168 -0.1001
  128OSM   H13A13656   6.159   2.412   5.829 -1.2446  1.7911  2.7538
  128OSM   H13B13657   6.312   2.422   5.741 -0.0805  0.3100  0.1633
  128OSM   H13C13658   6.261   2.536   5.865 -0.0097  0.0527  1.0164
  128OSM    C1213659   6.256   2.379   6.093 -0.5526 -0.2976  0.2961
  128OSM   H12A13660   6.289   2.477   6.124  0.4495 -0.6887  0.5017
  128OSM   H12B13661   6.302   2.316   6.167  0.7626  1.9179  1.4566
  128OSM    C1113662   6.101   2.372   6.098 -0.6384  0.1609 -0.0202
  128OSM   H11A13663   6.061   2.420   6.006  1.0635 -0.6394 -1.2273
  128OSM   H11B13664   6.055   2.433   6.179 -0.6259  1.0113 -0.6392
  128OSM      P13665   6.093   2.147   6.232  0.0620 -0.3348  0.1677
  128OSM    O1313666   5.984   2.050   6.249 -0.2142 -0.3400 -0.0721
  128OSM    O1413667   6.226   2.097   6.198 -0.1856  0.8440 -0.1383
  128OSM    O1113668   6.115   2.249   6.348 -0.4135  0.0251 -0.1699
  128OSM    O1213669   6.052   2.236   6.108 -0.8873  0.2186  0.1336
  128OSM    C1S13670   6.014   2.318   6.425 -0.3134 -0.8705  0.0747
  128OSM    H1S13671   5.912   2.307   6.382 -1.2089  1.0214  1.5825
  128OSM    H1T13672   6.041   2.425   6.421  0.3496 -1.0332  0.1857
  128OSM     NF13673   5.906   2.343   6.648  0.0037 -1.4477  0.1011
  128OSM    HNF13674   5.929   2.431   6.689 -2.0797 -0.3821 -0.8560
  128OSM    C2S13675   6.006   2.273   6.574  0.3075  0.4315 -0.3068
  128OSM    H2S13676   5.983   2.164   6.581  0.0007  0.2360 -3.0318
  128OSM    C3S13677   6.152   2.293   6.630  0.1807 -0.6503 -0.3592
  128OSM    H3S13678   6.188   2.397   6.639 -0.5003 -0.2092 -2.3354
  128OSM     O313679   6.258   2.238   6.561  0.0745  0.5456 -0.1231
  128OSM    HO313680   6.226   2.213   6.473  1.2781 -1.8955  0.0603
  128OSM    C4S13681   6.164   2.242   6.784 -0.1969  0.5520  0.7149
  128OSM    H4S13682   6.137   2.139   6.812 -1.5467  1.2263  2.0049
  128OSM    C5S13683   6.205   2.312   6.889  0.5281  0.1120 -0.3208
  128OSM    H5S13684   6.240   2.415   6.870 -4.0887  1.5391 -2.6018
  128OSM    C6S13685   6.217   2.276   7.039  0.3341 -0.0174 -0.0887
  128OSM    H6S13686   6.316   2.237   7.070  0.4156  0.6450  0.5092
  128OSM    H6T13687   6.138   2.199   7.048  1.1055 -0.7961  0.0917
  128OSM    C7S13688   6.178   2.383   7.140 -0.5533 -1.4250 -0.6769
  128OSM    H7S13689   6.081   2.424   7.104 -2.2700 -3.3835  1.4369
  128OSM    H7T13690   6.257   2.461   7.137 -1.2191 -0.6121  1.3098
  128OSM    C8S13691   6.163   2.332   7.289 -0.0675 -0.1284  0.4868
  128OSM    H8S13692   6.247   2.268   7.324 -2.1779 -3.5245 -0.2041
  128OSM    H8T13693   6.076   2.264   7.299 -2.1776  2.4336  0.5446
  128OSM    C9S13694   6.157   2.448   7.383  0.5656 -0.8583 -0.8909
  128OSM    H9S13695   6.077   2.521   7.357  1.3865  0.0166 -0.9907
  128OSM    H9T13696   6.252   2.500   7.358 -0.3226  0.7676 -1.0002
  128OSM   C10S13697   6.153   2.417   7.530 -0.3468  0.4991  0.5302
  128OSM   H10S13698   6.246   2.363   7.557  0.0631 -0.1469 -1.9116
  128OSM   H10T13699   6.077   2.343   7.563  0.4748  0.1066  1.5816
  128OSM   C11S13700   6.168   2.541   7.619  0.2280 -0.0714 -0.7713
  128OSM   H11S13701   6.128   2.631   7.569  2.0258  1.1089 -0.1918
  128OSM   H11T13702   6.274   2.566   7.639  0.4426 -0.4012 -1.4749
  128OSM   C12S13703   6.069   2.519   7.743  0.0390  0.5747  0.2694
  128OSM   H12S13704   5.961   2.516   7.716 -0.0004 -0.4036  0.4713
  128OSM   H12T13705   6.079   2.614   7.799 -3.3722  0.8607  0.6054
  128OSM   C13S13706   6.114   2.400   7.834  0.0045  0.3345 -0.0106
  128OSM   H13S13707   6.223   2.412   7.850 -0.0175 -0.6809  0.9792
  128OSM   H13T13708   6.095   2.308   7.774 -0.7124  0.3110  0.2341
  128OSM   C14S13709   6.040   2.419   7.969  0.0843  0.6760 -0.1349
  128OSM   H14S13710   5.932   2.438   7.949 -0.1988  2.3424  2.5354
  128OSM   H14T13711   6.086   2.509   8.015  0.7277  0.0612  0.4381
  128OSM   C15S13712   6.058   2.298   8.061 -0.2371  0.7823 -0.1861
  128OSM   H15S13713   6.166   2.293   8.084 -0.0825  2.8246 -0.2658
  128OSM   H15T13714   6.022   2.212   8.000 -0.5777 -0.4413  1.6544
  128OSM   C16S13715   5.985   2.306   8.196 -0.4167 -0.2335  0.5029
  128OSM   H16S13716   5.993   2.204   8.240 -0.1751 -0.4811 -0.0968
  128OSM   H16T13717   5.876   2.324   8.193 -0.2842  0.9918  1.9811
  128OSM   C17S13718   6.051   2.408   8.291 -0.2096  0.8924 -0.2712
  128OSM   H17S13719   6.032   2.505   8.241 -0.8172  1.0299  0.2173
  128OSM   H17T13720   6.159   2.383   8.279  0.1396  0.7652  2.4550
  128OSM   C18S13721   6.018   2.403   8.438  0.2002  0.6541 -0.0251
  128OSM   H18S13722   6.035   2.504   8.482 -3.5713  3.1069 -3.4548
  128OSM   H18T13723   6.067   2.319   8.492  0.2526  1.2843  0.9281
  128OSM   H18U13724   5.910   2.392   8.460 -0.2478 -0.3018 -2.4179
  128OSM    C1F13725   5.778   2.322   6.636 -0.1865  0.8468 -0.3076
  128OSM     OF13726   5.733   2.251   6.542 -0.2616  0.3159 -0.4109
  128OSM    C2F13727   5.686   2.406   6.724 -0.8107 -0.2128 -0.2170
  128OSM    H2F13728   5.643   2.491   6.667 -1.6384  0.2208  1.0143
  128OSM    H2G13729   5.739   2.442   6.815 -0.6492  0.2865 -0.5025
  128OSM    C3F13730   5.562   2.316   6.769 -0.1728 -0.0668  0.7266
  128OSM    H3F13731   5.522   2.276   6.674 -0.5909  0.1097  0.8216
  128OSM    H3G13732   5.479   2.382   6.803 -0.7313  0.9552 -2.3143
  128OSM    C4F13733   5.586   2.199   6.866 -0.4794  0.0769 -0.1376
  128OSM    H4F13734   5.623   2.116   6.802 -1.7302 -0.5022 -0.1154
  128OSM    H4G13735   5.483   2.168   6.892 -1.5954 -0.0859 -4.1136
  128OSM    C5F13736   5.669   2.249   6.990  0.4703 -0.2832 -0.3846
  128OSM    H5F13737   5.619   2.338   7.033 -0.2441 -1.0208  0.3438
  128OSM    H5G13738   5.764   2.298   6.958  1.0281 -1.3190 -0.3354
  128OSM    C6F13739   5.684   2.145   7.102  0.3247 -0.2556  0.2621
  128OSM    H6F13740   5.747   2.064   7.059 -0.2677 -0.9712  0.7189
  128OSM    H6G13741   5.585   2.116   7.144  0.7765 -0.5995  1.1324
  128OSM    C7F13742   5.760   2.192   7.232  0.3906 -0.5738  0.9895
  128OSM    H7F13743   5.712   2.288   7.259  0.6143  0.0677 -0.7786
  128OSM    H7G13744   5.864   2.195   7.193  0.1915  0.4929  0.5293
  128OSM    C8F13745   5.755   2.084   7.342 -0.6594 -0.3683 -0.5094
  128OSM    H8F13746   5.805   1.994   7.299 -1.4154 -1.1686  0.2638
  128OSM    H8G13747   5.650   2.063   7.370 -0.7407  1.3733  0.6702
  128OSM    C9F13748   5.836   2.121   7.465 -1.3013  0.6060 -0.2393
  128OSM    H9F13749   5.922   2.187   7.447  0.6392 -1.4088  1.1010
  128OSM   C10F13750   5.818   2.066   7.581 -0.3687 -0.3983 -0.5704
  128OSM   H10F13751   5.863   2.118   7.667 -1.3772 -0.7674  0.1929
  128OSM   C11F13752   5.709   1.965   7.618 -0.0010 -0.0805 -0.1625
  128OSM   H11F13753   5.689   1.900   7.530 -0.4546 -0.4589  0.2182
  128OSM   H11G13754   5.617   2.017   7.652  1.2179  0.6502  2.2361
  128OSM   C12F13755   5.765   1.866   7.727 -0.2038 -0.4909  0.5024
  128OSM   H12F13756   5.851   1.805   7.692 -0.6184 -0.5633 -0.4073
  128OSM   H12G13757   5.679   1.797   7.735 -2.7726  2.1729 -1.9109
  128OSM   C13F13758   5.797   1.916   7.868  0.4385  0.2388 -0.2335
  128OSM   H13F13759   5.728   1.998   7.895  0.5205  0.5084 -0.8288
  128OSM   H13G13760   5.902   1.952   7.873  0.0667  1.3901 -0.5784
  128OSM   C14F13761   5.770   1.806   7.982  0.5572 -0.4293 -0.2027
  128OSM   H14F13762   5.835   1.729   7.935  1.8459  1.8357 -2.4317
  128OSM   H14G13763   5.666   1.769   7.976  0.0977 -0.2324  3.6858
  128OSM   C15F13764   5.816   1.842   8.123 -0.2561 -0.2176  0.0365
  128OSM   H15F13765   5.762   1.937   8.142 -2.3267 -0.1682 -4.7123
  128OSM   H15G13766   5.925   1.864   8.117 -0.2943 -0.2247 -0.9631
  128OSM   C16F13767   5.787   1.745   8.236  0.7645 -0.3729  0.3979
  128OSM   H16F13768   5.707   1.679   8.196  0.7818 -1.4349  2.0309
  128OSM   H16G13769   5.743   1.792   8.326  1.6284 -2.3183  1.8951
  128OSM   C17F13770   5.915   1.661   8.266  0.5821 -0.0290 -0.3413
  128OSM   H17F13771   5.964   1.722   8.345  1.8373 -1.9904  0.4618
  128OSM   H17G13772   5.990   1.635   8.188  1.1519  2.0751 -0.5646
  128OSM   C18F13773   5.875   1.525   8.333  0.2332  0.7836 -0.2051
  128OSM   H18F13774   5.961   1.454   8.329  1.0900  1.8375 -2.8120
  128OSM   H18G13775   5.793   1.481   8.272  0.5323 -0.5065  0.2894
  128OSM   H18H13776   5.849   1.543   8.439 -0.9210 -0.8225 -0.1763
  129OSM      N13777   5.072   2.796   6.429  0.7396 -0.1261 -0.0777
  129OSM    C1513778   5.083   2.738   6.286  0.0243  0.1152 -0.7235
  129OSM   H15A13779   4.993   2.690   6.252  0.9769  0.1081 -3.4834
  129OSM   H15B13780   5.166   2.669   6.294 -0.0627  0.1637  0.8136
  129OSM   H15C13781   5.107   2.821   6.221 -0.3126  0.6871 -0.1288
  129OSM    C1413782   4.965   2.902   6.411 -0.6728  0.1815  0.2506
  129OSM   H14A13783   5.017   2.979   6.356  0.2638 -0.8806 -0.3933
  129OSM   H14B13784   4.935   2.941   6.507 -0.4863 -2.6233  1.5574
  129OSM   H14C13785   4.885   2.860   6.351 -0.4328  0.9572 -0.6362
  129OSM    C1313786   5.028   2.687   6.517 -0.8899  0.1166  0.4276
  129OSM   H13A13787   5.022   2.731   6.615  2.8743 -0.0220  0.8661
  129OSM   H13B13788   5.102   2.608   6.513 -0.5666  0.4671 -1.9614
  129OSM   H13C13789   4.936   2.638   6.487 -0.2091 -0.7096 -0.3745
  129OSM    C1213790   5.207   2.848   6.480 -0.2881 -0.1452 -1.1532
  129OSM   H12A13791   5.269   2.763   6.504 -2.6897 -1.0997  2.4549
  129OSM   H12B13792   5.191   2.889   6.579 -0.5904  0.5334 -1.4801
  129OSM    C1113793   5.290   2.946   6.392 -0.1764 -0.5028  0.4128
  129OSM   H11A13794   5.335   2.892   6.306  1.1980  0.8712  0.2401
  129OSM   H11B13795   5.366   2.977   6.467 -3.5395  3.0166  2.7598
  129OSM      P13796   5.261   3.204   6.344  0.1301 -0.2249  0.0314
  129OSM    O1313797   5.403   3.205   6.297 -0.3084  0.6182 -0.3347
  129OSM    O1413798   5.169   3.287   6.256  0.6311 -0.2534  0.1827
  129OSM    O1113799   5.243   3.261   6.490  0.5783  0.3802 -0.2615
  129OSM    O1213800   5.204   3.054   6.352  0.3692  0.0646  0.3501
  129OSM    C1S13801   5.112   3.236   6.550 -0.3822  0.5089 -0.4356
  129OSM    H1S13802   5.079   3.130   6.545  0.1647  0.1851  1.8421
  129OSM    H1T13803   5.028   3.295   6.508 -0.1212  0.8678 -0.4611
  129OSM     NF13804   5.032   3.193   6.776  0.0799  0.4242 -0.4343
  129OSM    HNF13805   4.943   3.234   6.796  0.3054 -0.5075  3.1003
  129OSM    C2S13806   5.123   3.267   6.703 -0.1870  0.0464 -0.7938
  129OSM    H2S13807   5.223   3.236   6.741 -0.1128  0.0512 -0.9843
  129OSM    C3S13808   5.109   3.418   6.722 -0.8694  0.2419 -0.1321
  129OSM    H3S13809   5.010   3.455   6.687 -0.2394  1.4124 -0.7134
  129OSM     O313810   5.201   3.491   6.634 -0.6987  0.1021 -0.2444
  129OSM    HO313811   5.241   3.421   6.582 -0.9550 -0.2035 -0.0346
  129OSM    C4S13812   5.141   3.441   6.869  0.2742 -0.5384  0.7068
  129OSM    H4S13813   5.058   3.487   6.926  0.2372 -2.3861  2.2566
  129OSM    C5S13814   5.245   3.421   6.952  0.1893  0.0108 -0.5589
  129OSM    H5S13815   5.332   3.363   6.915 -1.2399 -1.3112 -1.9959
  129OSM    C6S13816   5.243   3.449   7.101 -0.2985 -0.8116 -0.4207
  129OSM    H6S13817   5.345   3.467   7.141 -0.8111 -0.2474  0.6678
  129OSM    H6T13818   5.207   3.361   7.158 -3.9637  1.0522  0.4388
  129OSM    C7S13819   5.172   3.576   7.159  0.7370 -0.1315 -0.2418
  129OSM    H7S13820   5.062   3.568   7.149  0.5928  1.1020  0.1105
  129OSM    H7T13821   5.203   3.654   7.086 -0.2197 -0.4033 -0.9451
  129OSM    C8S13822   5.213   3.614   7.299 -0.3112  0.0803  0.5155
  129OSM    H8S13823   5.203   3.723   7.316 -0.2583  0.1406  0.1665
  129OSM    H8T13824   5.321   3.593   7.310 -0.7377 -1.6262  2.0013
  129OSM    C9S13825   5.122   3.526   7.385  0.1812 -0.4139 -0.3899
  129OSM    H9S13826   5.134   3.418   7.359 -0.9506  0.0103 -2.9824
  129OSM    H9T13827   5.020   3.550   7.348  0.7154  0.9868 -1.0175
  129OSM   C10S13828   5.155   3.551   7.530 -0.5817 -0.1626 -0.1938
  129OSM   H10S13829   5.076   3.522   7.602 -1.7410  0.1181 -1.3288
  129OSM   H10T13830   5.160   3.662   7.535  1.8420 -0.1692 -1.0993
  129OSM   C11S13831   5.292   3.512   7.578  0.0273  0.5578 -0.0404
  129OSM   H11S13832   5.366   3.550   7.506 -2.4441  1.5703 -2.1889
  129OSM   H11T13833   5.298   3.401   7.579  0.2762  0.5712  0.3449
  129OSM   C12S13834   5.341   3.578   7.716 -0.2375 -0.1054  0.7327
  129OSM   H12S13835   5.335   3.688   7.706  0.7479 -0.1421 -0.5162
  129OSM   H12T13836   5.452   3.567   7.723 -0.1265  0.3258 -0.2328
  129OSM   C13S13837   5.276   3.521   7.838  0.2711 -0.4956 -0.1890
  129OSM   H13S13838   5.168   3.549   7.832  0.7162  1.2502 -0.7380
  129OSM   H13T13839   5.314   3.566   7.932  0.0645  0.6096 -0.6182
  129OSM   C14S13840   5.299   3.370   7.860 -0.1631  0.1610 -0.3184
  129OSM   H14S13841   5.408   3.354   7.849 -0.2975  0.0797 -1.6049
  129OSM   H14T13842   5.250   3.310   7.780  0.4639  1.5707 -1.8082
  129OSM   C15S13843   5.255   3.324   7.998  0.6853  0.1189  0.5139
  129OSM   H15S13844   5.262   3.213   7.990  0.0138  0.1932 -2.4005
  129OSM   H15T13845   5.148   3.347   8.017  1.3416  1.7269  2.6696
  129OSM   C16S13846   5.336   3.378   8.111  0.7715  0.4513 -0.1633
  129OSM   H16S13847   5.285   3.466   8.155  1.5315  0.7816  0.0792
  129OSM   H16T13848   5.426   3.433   8.075  1.1650  1.8558  2.6718
  129OSM   C17S13849   5.351   3.278   8.222 -0.2572 -0.1704 -0.0110
  129OSM   H17S13850   5.406   3.194   8.174 -0.5713 -0.5865  0.3443
  129OSM   H17T13851   5.253   3.235   8.251 -0.1854 -0.1862  0.2098
  129OSM   C18S13852   5.425   3.329   8.353  0.0244  0.1534 -0.0460
  129OSM   H18S13853   5.462   3.241   8.410 -2.2601  0.5426  2.2177
  129OSM   H18T13854   5.363   3.385   8.426 -0.3769  0.6575 -0.7516
  129OSM   H18U13855   5.514   3.386   8.318  0.4161 -1.5078 -1.9686
  129OSM    C1F13856   5.048   3.060   6.793  0.4282  0.6925 -0.5237
  129OSM     OF13857   5.147   2.997   6.756  0.1948  0.3493  0.2069
  129OSM    C2F13858   4.923   2.987   6.843 -0.5230 -0.1083  0.4386
  129OSM    H2F13859   4.958   2.882   6.850  1.4400  0.3196 -1.6149
  129OSM    H2G13860   4.850   2.991   6.759  0.8387  0.5362 -0.7607
  129OSM    C3F13861   4.867   3.040   6.974 -0.6337  0.2687  0.2634
  129OSM    H3F13862   4.771   2.991   7.000 -0.1145  0.9791  4.1011
  129OSM    H3G13863   4.849   3.149   6.956 -1.6797  0.0961  0.2184
  129OSM    C4F13864   4.969   3.017   7.092 -0.6431  0.1724  0.4662
  129OSM    H4F13865   5.070   3.059   7.074 -0.8450  0.5140  0.1106
  129OSM    H4G13866   4.980   2.907   7.103 -1.7705  0.1627  1.7485
  129OSM    C5F13867   4.911   3.081   7.222  0.1397  0.0749  0.1275
  129OSM    H5F13868   4.828   3.013   7.250 -0.2013  1.1805  1.9715
  129OSM    H5G13869   4.867   3.181   7.208  1.6852  1.2591  2.9092
  129OSM    C6F13870   5.004   3.086   7.341 -0.4758  0.0111 -0.1762
  129OSM    H6F13871   5.097   3.143   7.318 -1.8227  1.5269 -2.1401
  129OSM    H6G13872   5.031   2.983   7.374  0.2562  0.4727  0.7222
  129OSM    C7F13873   4.939   3.159   7.461  0.1836  0.1376  1.1301
  129OSM    H7F13874   4.842   3.110   7.483  0.7444 -1.5846 -0.0185
  129OSM    H7G13875   4.916   3.264   7.434  0.7399  0.1257  0.5841
  129OSM    C8F13876   5.031   3.169   7.578  0.5797  0.0066  0.1094
  129OSM    H8F13877   5.120   3.226   7.546  0.6596 -0.4929 -0.5737
  129OSM    H8G13878   5.054   3.066   7.613  0.5765  0.1805  0.6371
  129OSM    C9F13879   4.965   3.247   7.692 -0.3524 -0.0054 -0.1627
  129OSM    H9F13880   4.937   3.350   7.669 -0.7768 -0.6224 -2.7128
  129OSM   C10F13881   4.908   3.199   7.805  0.3214  0.1866 -0.2659
  129OSM   H10F13882   4.881   3.271   7.884 -1.2618 -0.4672 -0.1739
  129OSM   C11F13883   4.913   3.052   7.859 -0.2792 -0.5178 -0.1062
  129OSM   H11F13884   5.011   3.028   7.906 -1.0754 -2.0420  0.8452
  129OSM   H11G13885   4.890   2.978   7.780 -4.1008 -2.2293  2.3478
  129OSM   C12F13886   4.816   3.049   7.980  0.2285 -0.3115  1.0815
  129OSM   H12F13887   4.844   3.133   8.046 -1.9864  3.1623 -2.0147
  129OSM   H12G13888   4.813   2.947   8.026 -2.7064 -1.6086 -1.5924
  129OSM   C13F13889   4.668   3.071   7.943  0.4219  0.9132  0.3214
  129OSM   H13F13890   4.660   3.022   7.843 -2.6522  0.3936  0.7138
  129OSM   H13G13891   4.660   3.180   7.923  1.4518  1.4286  2.4667
  129OSM   C14F13892   4.569   3.030   8.044 -0.2941  0.1255 -0.5087
  129OSM   H14F13893   4.573   2.919   8.058  1.0613  0.3218  0.9765
  129OSM   H14G13894   4.470   3.066   8.007 -0.7391 -0.5348 -0.0077
  129OSM   C15F13895   4.598   3.088   8.185  0.0148  1.1693  0.1068
  129OSM   H15F13896   4.627   3.195   8.179  0.3575  0.9964 -1.7278
  129OSM   H15G13897   4.686   3.046   8.238 -0.9558  1.4220  2.0104
  129OSM   C16F13898   4.472   3.097   8.275 -0.6938  0.2432 -0.0289
  129OSM   H16F13899   4.420   3.001   8.299 -1.2963  0.5054 -0.2594
  129OSM   H16G13900   4.403   3.163   8.219 -1.6645 -0.6445  0.0869
  129OSM   C17F13901   4.509   3.161   8.407 -0.3050 -0.0054  0.3502
  129OSM   H17F13902   4.539   3.267   8.389  1.4703 -0.3321  1.2082
  129OSM   H17G13903   4.605   3.119   8.441 -0.0433 -0.9502 -1.4265
  129OSM   C18F13904   4.397   3.149   8.508 -0.0487 -0.2969 -0.1056
  129OSM   H18F13905   4.371   3.042   8.519 -4.1796  0.7576  2.2838
  129OSM   H18G13906   4.300   3.200   8.488  0.9570  1.2041 -1.4331
  129OSM   H18H13907   4.427   3.178   8.611  0.2763  2.0461 -0.8008
  130OSM      N13908   5.449   6.407   6.045 -0.2508  0.0824 -0.3446
  130OSM    C1513909   5.474   6.333   5.920  0.1591 -0.6410 -0.6370
  130OSM   H15A13910   5.578   6.311   5.899 -0.1854 -1.3656 -1.6918
  130OSM   H15B13911   5.436   6.382   5.832  1.3803  1.4972 -0.0392
  130OSM   H15C13912   5.426   6.236   5.923 -1.9612  0.3637 -0.3664
  130OSM    C1413913   5.511   6.539   6.032 -0.4103 -0.0797 -0.1409
  130OSM   H14A13914   5.479   6.606   5.953 -2.0197 -0.6031  0.0293
  130OSM   H14B13915   5.616   6.523   6.011 -0.6125 -0.7302 -0.7077
  130OSM   H14C13916   5.508   6.599   6.121 -1.7276  1.1605 -0.9754
  130OSM    C1313917   5.304   6.427   6.059  0.3790  0.3076  0.3786
  130OSM   H13A13918   5.281   6.500   5.983  1.6829  1.2284  0.8243
  130OSM   H13B13919   5.281   6.468   6.156 -1.6200 -0.2583  0.1950
  130OSM   H13C13920   5.251   6.336   6.032  2.7360 -0.4280 -2.2647
  130OSM    C1213921   5.503   6.334   6.166  0.0373 -0.2667  0.1369
  130OSM   H12A13922   5.610   6.335   6.147  0.0762 -2.3163  0.0584
  130OSM   H12B13923   5.472   6.231   6.157 -2.1263  0.2352  1.1885
  130OSM    C1113924   5.468   6.371   6.307  0.9585  0.1248  0.5317
  130OSM   H11A13925   5.454   6.481   6.319  1.2032  0.1815  0.2939
  130OSM   H11B13926   5.551   6.344   6.376 -0.3830 -2.3482  1.3095
  130OSM      P13927   5.349   6.138   6.360  0.2632 -0.4650  0.0647
  130OSM    O1313928   5.206   6.099   6.371 -0.6193  0.4170  0.2419
  130OSM    O1413929   5.431   6.074   6.259 -0.2753  0.1919 -0.2835
  130OSM    O1113930   5.425   6.121   6.493  0.6075 -0.0040 -0.2417
  130OSM    O1213931   5.351   6.299   6.335 -0.3688  0.5989 -0.1393
  130OSM    C1S13932   5.433   6.225   6.591 -0.7476 -0.0149 -0.5519
  130OSM    H1S13933   5.352   6.301   6.585 -0.8902  0.0222  1.3535
  130OSM    H1T13934   5.529   6.281   6.583 -0.9757  0.4819  0.0889
  130OSM     NF13935   5.425   6.262   6.828 -0.0884 -0.9099  0.0704
  130OSM    HNF13936   5.503   6.281   6.886 -0.9437  1.7112  0.4777
  130OSM    C2S13937   5.441   6.162   6.729  0.0257  0.8204  0.1862
  130OSM    H2S13938   5.355   6.094   6.747  0.2529  0.6673  0.7390
  130OSM    C3S13939   5.572   6.085   6.749  0.2984 -0.2602  0.4521
  130OSM    H3S13940   5.656   6.156   6.734 -2.2874  3.5732  2.3903
  130OSM     O313941   5.592   5.988   6.648  0.0010  0.1144 -0.5845
  130OSM    HO313942   5.534   6.014   6.576 -0.0389  2.1993  0.1351
  130OSM    C4S13943   5.571   6.026   6.886 -0.5770  0.2911  0.9930
  130OSM    H4S13944   5.482   5.967   6.909  0.1977 -1.2955  0.0569
  130OSM    C5S13945   5.676   6.028   6.973  0.1510  0.8030 -0.1633
  130OSM    H5S13946   5.774   6.074   6.953  1.5283 -2.3857 -1.5070
  130OSM    C6S13947   5.672   5.965   7.115 -0.1094 -0.4312  0.4198
  130OSM    H6S13948   5.759   5.896   7.121 -0.4634 -0.8374  0.9326
  130OSM    H6T13949   5.579   5.908   7.136 -0.3962 -0.4406 -0.8573
  130OSM    C7S13950   5.671   6.074   7.222  0.3124  0.5855 -0.7958
  130OSM    H7S13951   5.589   6.145   7.201  0.0408  0.5650  0.1407
  130OSM    H7T13952   5.764   6.131   7.200  1.0155  0.0421  0.6321
  130OSM    C8S13953   5.663   6.017   7.365  0.1085 -0.3023  0.6866
  130OSM    H8S13954   5.742   5.941   7.383  1.2960  1.5631  4.3362
  130OSM    H8T13955   5.559   5.989   7.394 -0.3006  0.5898  0.1342
  130OSM    C9S13956   5.711   6.119   7.475  1.6784 -0.7585 -0.1222
  130OSM    H9S13957   5.624   6.188   7.481  0.3993 -1.6740 -4.4624
  130OSM    H9T13958   5.797   6.184   7.446  2.0331 -1.0890  0.1880
  130OSM   C10S13959   5.747   6.048   7.608  0.0120 -0.0124  0.0351
  130OSM   H10S13960   5.775   6.124   7.683 -0.2591  1.3393 -1.1679
  130OSM   H10T13961   5.840   5.988   7.603 -0.8130 -1.6723  2.9861
  130OSM   C11S13962   5.629   5.969   7.664  0.8668 -0.2889  0.0039
  130OSM   H11S13963   5.626   5.871   7.612  1.6641 -0.6020  0.5299
  130OSM   H11T13964   5.542   6.033   7.637  0.8251  2.2041  4.9507
  130OSM   C12S13965   5.618   5.953   7.815  0.1630  0.2263  0.1875
  130OSM   H12S13966   5.588   6.049   7.862 -3.4425 -1.0707  0.8497
  130OSM   H12T13967   5.708   5.913   7.867  0.5012 -0.2306 -0.7406
  130OSM   C13S13968   5.507   5.865   7.879  0.3538 -0.0102 -0.1313
  130OSM   H13S13969   5.537   5.760   7.897  0.2049 -0.2388 -1.1394
  130OSM   H13T13970   5.426   5.863   7.803  0.1324 -0.2978  0.1094
  130OSM   C14S13971   5.438   5.931   8.003  0.1252 -0.5717 -0.2138
  130OSM   H14S13972   5.405   6.031   7.968 -0.3123 -0.3501  0.7925
  130OSM   H14T13973   5.514   5.962   8.078 -2.6863 -2.5143  3.7488
  130OSM   C15S13974   5.317   5.844   8.053 -0.7636  0.2983  0.4067
  130OSM   H15S13975   5.236   5.812   7.984 -0.5937 -2.9443  1.4987
  130OSM   H15T13976   5.268   5.911   8.125 -1.0699 -0.5867  1.0386
  130OSM   C16S13977   5.372   5.720   8.127 -0.0765 -0.2201  0.1982
  130OSM   H16S13978   5.454   5.754   8.193 -1.4045  2.0355  0.7810
  130OSM   H16T13979   5.422   5.650   8.057  2.7083  1.2523  0.5658
  130OSM   C17S13980   5.268   5.655   8.224 -0.1176  1.0623 -0.0856
  130OSM   H17S13981   5.308   5.558   8.262  1.0416  1.8146  0.6634
  130OSM   H17T13982   5.184   5.628   8.156  1.1387 -2.9259 -0.3093
  130OSM   C18S13983   5.216   5.736   8.348  0.0802  0.1114  0.0898
  130OSM   H18S13984   5.137   5.680   8.403  1.5569 -1.3517  0.8189
  130OSM   H18T13985   5.184   5.838   8.317 -1.6730  0.3378  2.3526
  130OSM   H18U13986   5.304   5.760   8.413 -0.9137 -1.5338  2.1832
  130OSM    C1F13987   5.317   6.330   6.841  0.3024  0.3386  0.6996
  130OSM     OF13988   5.215   6.282   6.789  0.7884  0.3879 -0.2164
  130OSM    C2F13989   5.333   6.467   6.911 -0.7516  0.3801  0.3908
  130OSM    H2F13990   5.233   6.513   6.892 -1.2644 -0.4709  0.9681
  130OSM    H2G13991   5.398   6.534   6.851 -0.9797  0.0101 -0.2820
  130OSM    C3F13992   5.353   6.466   7.060 -0.3364  0.6152  0.0053
  130OSM    H3F13993   5.370   6.569   7.099  2.0905 -0.1474  1.1646
  130OSM    H3G13994   5.451   6.421   7.087 -0.7944  1.5461  3.8851
  130OSM    C4F13995   5.231   6.422   7.138 -0.2515 -0.0792 -0.6105
  130OSM    H4F13996   5.266   6.385   7.237 -1.9801  1.4807  0.6566
  130OSM    H4G13997   5.183   6.333   7.091 -0.7956 -0.3826  0.4786
  130OSM    C5F13998   5.127   6.532   7.149 -0.5833 -0.3765 -0.0652
  130OSM    H5F13999   5.077   6.559   7.053 -1.2149  0.6285  0.5273
  130OSM    H5G14000   5.183   6.622   7.184 -0.2589 -0.0908 -1.2578
  130OSM    C6F14001   5.019   6.489   7.244 -0.7339 -0.0374  0.8341
  130OSM    H6F14002   5.056   6.458   7.344 -0.5164  0.5169  0.9305
  130OSM    H6G14003   4.971   6.399   7.201  1.4669 -1.7950  1.8883
  130OSM    C7F14004   4.910   6.593   7.263  0.7885 -0.4211 -0.6457
  130OSM    H7F14005   4.831   6.567   7.190 -0.2574  1.6175 -0.3182
  130OSM    H7G14006   4.953   6.696   7.268  0.7912 -0.4548  0.2300
  130OSM    C8F14007   4.847   6.571   7.406  0.0416  0.1391 -0.2006
  130OSM    H8F14008   4.770   6.651   7.408 -0.2960 -0.1691 -0.6963
  130OSM    H8G14009   4.926   6.589   7.481 -0.8413 -0.4486  0.8985
  130OSM    C9F14010   4.793   6.433   7.422 -0.2230 -1.0723  0.1760
  130OSM    H9F14011   4.740   6.417   7.326 -0.2331  0.5489 -0.1191
  130OSM   C10F14012   4.776   6.351   7.526 -0.1110 -0.3549 -0.4812
  130OSM   H10F14013   4.726   6.254   7.508  1.1333 -1.0714 -0.2027
  130OSM   C11F14014   4.815   6.378   7.668 -0.2718 -0.6795 -0.1978
  130OSM   H11F14015   4.844   6.485   7.671  2.0036 -1.2711  1.5068
  130OSM   H11G14016   4.909   6.324   7.693  1.0210  2.6099  2.8973
  130OSM   C12F14017   4.715   6.343   7.778 -0.3959 -0.4801 -0.0714
  130OSM   H12F14018   4.667   6.244   7.764  0.6894 -1.1482  0.7951
  130OSM   H12G14019   4.628   6.409   7.759 -1.1914 -1.8704 -1.4960
  130OSM   C13F14020   4.763   6.358   7.924  0.0745 -0.4544 -0.7662
  130OSM   H13F14021   4.829   6.272   7.949  0.6903  0.0545 -0.6183
  130OSM   H13G14022   4.664   6.352   7.973 -0.8120 -0.0675 -2.4450
  130OSM   C14F14023   4.848   6.484   7.959 -0.1117  0.2612 -0.0005
  130OSM   H14F14024   4.931   6.484   7.886 -0.3489 -0.4734 -0.2806
  130OSM   H14G14025   4.870   6.482   8.068 -1.7468  1.8859  0.4170
  130OSM   C15F14026   4.770   6.614   7.946  0.5041  0.5967  0.6686
  130OSM   H15F14027   4.662   6.599   7.969 -0.2321 -0.4850 -2.8472
  130OSM   H15G14028   4.761   6.636   7.838  0.6728 -0.7222  0.3661
  130OSM   C16F14029   4.816   6.734   8.028 -0.0155 -0.0931  0.1174
  130OSM   H16F14030   4.925   6.750   8.013  0.0596  0.1242  0.8513
  130OSM   H16G14031   4.805   6.709   8.135  0.1956  0.4574  0.2682
  130OSM   C17F14032   4.749   6.872   8.004  0.1285  0.1835  0.0146
  130OSM   H17F14033   4.782   6.949   8.077  1.1563  0.6310 -0.8949
  130OSM   H17G14034   4.640   6.855   8.015  0.3684 -0.6235  1.4160
  130OSM   C18F14035   4.793   6.920   7.864  0.1636  0.0905 -0.6980
  130OSM   H18F14036   4.903   6.928   7.851  0.2775 -2.8141 -2.2171
  130OSM   H18G14037   4.752   7.023   7.850  0.3852  0.2001 -0.5579
  130OSM   H18H14038   4.751   6.843   7.796  0.5557 -0.1897 -0.6208
  131OSM      N14039   5.181   4.563   6.167 -0.2061  0.3351  0.2570
  131OSM    C1514040   5.138   4.704   6.139  0.1949  0.1207  0.2751
  131OSM   H15A14041   5.217   4.768   6.175 -0.6060 -0.2369  2.8424
  131OSM   H15B14042   5.042   4.720   6.187 -1.4042 -0.3443 -2.5201
  131OSM   H15C14043   5.116   4.723   6.035 -1.1721  2.8713  0.9625
  131OSM    C1414044   5.310   4.536   6.099 -0.0000  0.1874  0.3771
  131OSM   H14A14045   5.297   4.544   5.992 -1.5798 -0.2674  0.5126
  131OSM   H14B14046   5.345   4.437   6.125 -1.7192 -0.6274 -0.2389
  131OSM   H14C14047   5.392   4.599   6.132  0.8937 -0.2945 -0.8269
  131OSM    C1314048   5.208   4.548   6.312 -0.1636  0.1130  0.0941
  131OSM   H13A14049   5.224   4.447   6.346 -0.0668  0.0954 -0.0029
  131OSM   H13B14050   5.125   4.588   6.368  2.2307  3.4547  1.6450
  131OSM   H13C14051   5.295   4.607   6.338 -0.7493  0.4346  1.4116
  131OSM    C1214052   5.072   4.465   6.120  0.1035 -0.5779 -0.8120
  131OSM   H12A14053   5.064   4.489   6.015  1.0297 -1.5169 -1.1076
  131OSM   H12B14054   4.983   4.499   6.171  0.3780  0.4239 -0.9856
  131OSM    C1114055   5.094   4.311   6.124 -0.2974  0.2746 -0.1761
  131OSM   H11A14056   5.190   4.292   6.070 -1.9142 -1.1983 -2.7735
  131OSM   H11B14057   5.009   4.270   6.065 -1.2854 -0.4723  1.6747
  131OSM      P14058   4.960   4.215   6.327  0.0491  0.3174  0.2910
  131OSM    O1314059   4.845   4.270   6.248  0.0343  0.7813  0.4085
  131OSM    O1414060   4.971   4.067   6.354  0.5335 -0.1614 -0.2659
  131OSM    O1114061   4.967   4.302   6.456 -0.2890  0.1230  0.2446
  131OSM    O1214062   5.101   4.260   6.257  0.3003 -0.1452 -0.5584
  131OSM    C1S14063   5.084   4.275   6.541  0.7140  0.5624  0.6203
  131OSM    H1S14064   5.178   4.329   6.514 -0.6542  2.7745  0.0623
  131OSM    H1T14065   5.107   4.167   6.554 -1.0414  0.0530 -0.2176
  131OSM     NF14066   5.152   4.316   6.770 -0.4500 -0.3819  0.0732
  131OSM    HNF14067   5.172   4.225   6.804 -0.2293  0.4805  2.3969
  131OSM    C2S14068   5.041   4.321   6.685  0.1621  0.5562  0.7113
  131OSM    H2S14069   5.006   4.425   6.670  0.2236  0.4073 -0.5281
  131OSM    C3S14070   4.921   4.230   6.733  0.1028 -0.5793 -0.3052
  131OSM    H3S14071   4.967   4.129   6.731  1.2698 -0.1007  1.1900
  131OSM     O314072   4.808   4.216   6.642 -0.0690 -0.4556 -0.4747
  131OSM    HO314073   4.845   4.256   6.563  3.0392  1.2222  1.6241
  131OSM    C4S14074   4.888   4.268   6.874  0.0907  0.1937  0.1889
  131OSM    H4S14075   4.923   4.196   6.949 -0.1593 -2.2361 -1.8814
  131OSM    C5S14076   4.810   4.374   6.910 -0.1676 -0.2236  0.2107
  131OSM    H5S14077   4.756   4.425   6.828  0.4548 -0.3777 -0.3014
  131OSM    C6S14078   4.771   4.412   7.049 -0.0263 -0.3787  0.1477
  131OSM    H6S14079   4.660   4.408   7.061 -0.2495  1.7521 -0.8663
  131OSM    H6T14080   4.805   4.513   7.080  1.0991 -0.7363  0.1339
  131OSM    C7S14081   4.835   4.319   7.157 -0.5124 -0.1751 -0.1519
  131OSM    H7S14082   4.945   4.316   7.169 -0.7649 -0.6246  2.4339
  131OSM    H7T14083   4.812   4.214   7.130  1.1385 -0.4458 -0.6287
  131OSM    C8S14084   4.782   4.355   7.303 -0.7856 -0.2209  0.0544
  131OSM    H8S14085   4.835   4.274   7.357  1.0175  0.2844 -0.8792
  131OSM    H8T14086   4.676   4.321   7.309 -0.2190 -2.5989 -1.7096
  131OSM    C9S14087   4.812   4.501   7.331 -0.7787  0.3058 -0.4853
  131OSM    H9S14088   4.746   4.571   7.276 -1.1924  0.6530  0.4339
  131OSM    H9T14089   4.919   4.522   7.307 -0.7002  1.4259  0.7420
  131OSM   C10S14090   4.799   4.539   7.475 -0.1617  0.8369  0.6112
  131OSM   H10S14091   4.699   4.512   7.515  0.4665 -2.5431  0.1646
  131OSM   H10T14092   4.811   4.649   7.484  1.6200  0.8047 -0.7793
  131OSM   C11S14093   4.900   4.471   7.564 -0.0539 -0.0805 -0.2464
  131OSM   H11S14094   4.995   4.470   7.508 -0.6449  0.0268 -1.2830
  131OSM   H11T14095   4.874   4.363   7.566 -0.4936 -0.0913 -3.0700
  131OSM   C12S14096   4.910   4.530   7.706 -1.2958 -1.0804 -0.2712
  131OSM   H12S14097   4.935   4.638   7.692  2.7602 -1.8346 -0.0291
  131OSM   H12T14098   4.998   4.481   7.752 -0.9888 -0.1511  0.1713
  131OSM   C13S14099   4.790   4.518   7.794  0.5812 -0.0141 -0.4828
  131OSM   H13S14100   4.729   4.427   7.774  1.6052 -0.1271 -3.7025
  131OSM   H13T14101   4.712   4.595   7.777 -0.1521 -0.5635  0.2938
  131OSM   C14S14102   4.820   4.516   7.946  1.4718  0.0754  0.0993
  131OSM   H14S14103   4.850   4.621   7.965 -2.8938  1.5382 -0.0649
  131OSM   H14T14104   4.910   4.453   7.964  1.3073 -0.3230 -0.4392
  131OSM   C15S14105   4.694   4.492   8.032  0.4861 -0.1340  0.5426
  131OSM   H15S14106   4.656   4.395   7.995  1.6394 -0.8826  1.2615
  131OSM   H15T14107   4.612   4.558   7.995 -0.2242 -2.7093 -3.0116
  131OSM   C16S14108   4.708   4.486   8.177  0.1931 -0.4651 -0.1521
  131OSM   H16S14109   4.741   4.584   8.219 -3.0092  0.7576 -0.2363
  131OSM   H16T14110   4.790   4.414   8.196  0.1347 -0.0954  1.7172
  131OSM   C17S14111   4.586   4.448   8.258  0.5313  1.2225 -0.2286
  131OSM   H17S14112   4.546   4.353   8.217 -1.9508  1.3224  1.7026
  131OSM   H17T14113   4.505   4.523   8.250 -0.3529  0.3163  0.0440
  131OSM   C18S14114   4.622   4.417   8.408 -0.0121  0.3830 -0.2557
  131OSM   H18S14115   4.684   4.326   8.422  0.6393  0.8448 -0.1004
  131OSM   H18T14116   4.528   4.403   8.466  0.0729  3.7765  0.9185
  131OSM   H18U14117   4.677   4.497   8.461 -0.7588 -0.8157  2.5578
  131OSM    C1F14118   5.254   4.396   6.769 -0.5001  0.2125  0.9904
  131OSM     OF14119   5.242   4.503   6.707 -0.3089 -0.1648  0.3759
  131OSM    C2F14120   5.384   4.355   6.831  0.0342  0.2460 -0.6211
  131OSM    H2F14121   5.461   4.331   6.756 -0.7235 -1.5548 -0.8737
  131OSM    H2G14122   5.374   4.260   6.887 -1.1158  0.6003 -0.1938
  131OSM    C3F14123   5.439   4.477   6.908  0.2546  0.0308 -0.0553
  131OSM    H3F14124   5.458   4.567   6.846  1.2694  0.6440  1.0841
  131OSM    H3G14125   5.538   4.453   6.954 -0.5275 -0.3704  1.4836
  131OSM    C4F14126   5.343   4.522   7.018 -1.1521  0.0579 -1.1142
  131OSM    H4F14127   5.242   4.542   6.976 -1.5749 -1.4009 -0.8493
  131OSM    H4G14128   5.378   4.618   7.060  0.9587 -1.5369  1.0750
  131OSM    C5F14129   5.334   4.427   7.142 -0.3143  0.1049  0.2430
  131OSM    H5F14130   5.436   4.388   7.166 -0.0216  0.2980 -0.6556
  131OSM    H5G14131   5.269   4.341   7.116 -0.9256  0.2598  1.2150
  131OSM    C6F14132   5.286   4.500   7.279  0.2041 -0.1940 -0.2977
  131OSM    H6F14133   5.282   4.420   7.356  1.1792 -1.4718 -1.5225
  131OSM    H6G14134   5.184   4.538   7.257 -0.7527 -2.2595  0.2709
  131OSM    C7F14135   5.371   4.621   7.319 -0.4658  0.1226  0.0408
  131OSM    H7F14136   5.337   4.709   7.260  0.4625  0.5544  0.1299
  131OSM    H7G14137   5.473   4.584   7.298 -0.8691 -0.5413 -0.7804
  131OSM    C8F14138   5.354   4.637   7.467 -0.2289  0.0834 -0.0041
  131OSM    H8F14139   5.449   4.670   7.513  0.2354 -1.8582  0.4997
  131OSM    H8G14140   5.341   4.547   7.530  1.3491  0.7318  1.3125
  131OSM    C9F14141   5.250   4.741   7.501  0.8426  0.1980 -0.2776
  131OSM    H9F14142   5.201   4.789   7.416  0.5279 -1.5060 -1.0972
  131OSM   C10F14143   5.201   4.768   7.621 -0.0566 -0.3906 -0.0835
  131OSM   H10F14144   5.120   4.840   7.641 -2.6095 -2.8291 -0.9467
  131OSM   C11F14145   5.239   4.688   7.744  0.2695  0.1538 -0.6551
  131OSM   H11F14146   5.348   4.668   7.750  0.8412  3.2639  2.2804
  131OSM   H11G14147   5.182   4.592   7.742  0.5002  0.0291 -1.5564
  131OSM   C12F14148   5.214   4.771   7.877 -0.9672  0.0703  0.4936
  131OSM   H12F14149   5.139   4.852   7.866 -1.7864 -0.9764 -3.0375
  131OSM   H12G14150   5.309   4.821   7.904 -0.3752 -0.4241 -0.5756
  131OSM   C13F14151   5.175   4.676   7.987 -0.0596  0.6161 -0.1917
  131OSM   H13F14152   5.246   4.590   7.977 -0.1769  0.3747  0.8898
  131OSM   H13G14153   5.068   4.648   7.972 -0.1749  0.9305  0.0532
  131OSM   C14F14154   5.187   4.736   8.128  0.7441  0.5821 -0.0755
  131OSM   H14F14155   5.144   4.839   8.135  2.3949  1.2063  2.0345
  131OSM   H14G14156   5.296   4.749   8.149  0.6416  1.3676  0.0300
  131OSM   C15F14157   5.146   4.632   8.234  0.3793 -0.8309 -0.7854
  131OSM   H15F14158   5.182   4.529   8.213 -2.9081 -2.3546  0.4652
  131OSM   H15G14159   5.035   4.636   8.234  0.4047  1.5778  0.6783
  131OSM   C16F14160   5.206   4.678   8.365  0.1523  0.3315 -0.2882
  131OSM   H16F14161   5.317   4.675   8.358  0.2737  1.6972  0.5731
  131OSM   H16G14162   5.163   4.613   8.444 -1.7620 -1.1037 -2.3946
  131OSM   C17F14163   5.169   4.822   8.410 -0.0314  0.6560  0.1678
  131OSM   H17F14164   5.159   4.897   8.329 -0.2766  0.3376 -0.0990
  131OSM   H17G14165   5.253   4.861   8.472 -0.2744 -1.5731  2.0515
  131OSM   C18F14166   5.050   4.829   8.511  0.3773 -0.5597  0.1483
  131OSM   H18F14167   4.952   4.783   8.483 -0.2374 -0.2228  1.6728
  131OSM   H18G14168   5.036   4.933   8.546 -1.4206  0.2403 -2.6147
  131OSM   H18H14169   5.077   4.771   8.602  2.0819  0.9424  0.6473
  132OSM      N14170   1.234   1.627   6.429  0.1209 -0.4564  0.4449
  132OSM    C1514171   1.174   1.728   6.330 -0.2548 -0.2668  0.2495
  132OSM   H15A14172   1.129   1.811   6.384  0.7992 -0.7136  1.9018
  132OSM   H15B14173   1.105   1.680   6.263  0.1545 -0.4151 -0.0719
  132OSM   H15C14174   1.245   1.777   6.265 -0.7966 -0.3096 -0.3791
  132OSM    C1414175   1.315   1.703   6.522 -0.3082 -0.2576 -0.4439
  132OSM   H14A14176   1.373   1.626   6.572  2.1912 -0.5568 -3.4907
  132OSM   H14B14177   1.261   1.771   6.585  0.1439 -0.0819 -0.2426
  132OSM   H14C14178   1.397   1.761   6.481  0.6299  0.2794  2.0143
  132OSM    C1314179   1.126   1.558   6.505 -0.1298  0.0333  0.5041
  132OSM   H13A14180   1.052   1.629   6.538 -0.3566  0.0868 -0.1016
  132OSM   H13B14181   1.160   1.508   6.595  1.9409 -0.1113 -0.3090
  132OSM   H13C14182   1.068   1.493   6.441 -3.2715  0.3359  2.8031
  132OSM    C1214183   1.317   1.530   6.345 -0.3138 -0.1497  0.1181
  132OSM   H12A14184   1.398   1.579   6.292 -0.8870  2.1082  1.2237
  132OSM   H12B14185   1.245   1.482   6.280  0.3655 -1.7294  0.4863
  132OSM    C1114186   1.386   1.423   6.425  0.5201 -0.9269 -0.4276
  132OSM   H11A14187   1.427   1.355   6.348  1.6925 -1.5900  0.7353
  132OSM   H11B14188   1.307   1.369   6.483 -2.0409  1.3711 -1.5546
  132OSM      P14189   1.630   1.494   6.461 -0.0829 -0.3523  0.3087
  132OSM    O1314190   1.655   1.389   6.359 -0.2823 -0.0993  0.0565
  132OSM    O1414191   1.644   1.633   6.416  0.0168  0.2884  0.3220
  132OSM    O1114192   1.709   1.459   6.593 -0.5403 -0.5375 -0.4856
  132OSM    O1214193   1.483   1.483   6.512  0.1169 -0.4883  0.3300
  132OSM    C1S14194   1.685   1.520   6.720 -0.8671  0.4170 -0.5537
  132OSM    H1S14195   1.575   1.527   6.737 -0.6237  0.7208  1.0411
  132OSM    H1T14196   1.716   1.626   6.735 -2.2918  0.5771  1.8079
  132OSM     NF14197   1.693   1.479   6.963  0.0149 -0.4363  0.1461
  132OSM    HNF14198   1.764   1.503   7.029 -0.2332 -0.4881  0.4338
  132OSM    C2S14199   1.740   1.432   6.835 -0.0695  0.0387  0.5412
  132OSM    H2S14200   1.695   1.332   6.815  0.2485 -0.3611  1.7470
  132OSM    C3S14201   1.888   1.420   6.831 -0.7594  0.0435 -0.0270
  132OSM    H3S14202   1.945   1.509   6.865 -0.6218 -0.2613  0.5538
  132OSM     O314203   1.952   1.397   6.703  0.8445  0.5290 -0.3980
  132OSM    HO314204   1.880   1.428   6.648  0.2362  1.4244  0.8349
  132OSM    C4S14205   1.928   1.309   6.927  0.0985 -0.2750  0.2365
  132OSM    H4S14206   1.913   1.355   7.026  0.5587  1.7942 -0.5975
  132OSM    C5S14207   1.965   1.182   6.916 -0.5930  0.0713  0.1898
  132OSM    H5S14208   1.998   1.139   6.820 -0.6876 -1.1871  0.7086
  132OSM    C6S14209   1.981   1.084   7.024 -0.2700  0.2143  0.1694
  132OSM    H6S14210   2.087   1.049   7.030 -0.2841  0.1996  0.3262
  132OSM    H6T14211   1.933   0.987   7.000  1.1394 -0.2531 -0.8980
  132OSM    C7S14212   1.931   1.131   7.163  0.1211 -0.1195 -0.4668
  132OSM    H7S14213   1.821   1.148   7.156  0.3509  1.9037  0.2033
  132OSM    H7T14214   1.985   1.224   7.191  0.5500  0.0204 -1.6885
  132OSM    C8S14215   1.955   1.040   7.283 -0.3317 -0.0614  0.0105
  132OSM    H8S14216   2.064   1.023   7.292 -0.2303  1.2720  2.0302
  132OSM    H8T14217   1.914   0.940   7.262 -0.6454  0.4750 -2.1684
  132OSM    C9S14218   1.877   1.100   7.405 -0.0211  0.2405  0.2123
  132OSM    H9S14219   1.767   1.096   7.388 -0.2733  0.0826  1.7125
  132OSM    H9T14220   1.892   1.207   7.433 -0.6454  0.3460  0.1740
  132OSM   C10S14221   1.891   1.028   7.536 -0.3753 -0.4241  0.0135
  132OSM   H10S14222   1.907   0.920   7.512  0.8725 -0.0801 -0.7712
  132OSM   H10T14223   1.799   1.049   7.595 -1.5828  2.6357 -2.6759
  132OSM   C11S14224   2.007   1.082   7.625 -0.4984  0.1151 -0.7042
  132OSM   H11S14225   1.991   1.192   7.629 -1.7574 -0.0846  0.8133
  132OSM   H11T14226   2.103   1.056   7.576  0.4813  2.8163 -0.4023
  132OSM   C12S14227   2.012   1.020   7.760  0.2424  0.2427 -0.4980
  132OSM   H12S14228   1.924   1.036   7.825 -0.4583  0.7925 -1.5544
  132OSM   H12T14229   2.096   1.069   7.814  0.2613 -1.1120  0.7908
  132OSM   C13S14230   2.033   0.867   7.754 -0.1748  0.3648  0.3826
  132OSM   H13S14231   2.120   0.835   7.693 -0.2483 -0.1206  0.5213
  132OSM   H13T14232   1.946   0.805   7.721 -0.2005  0.5829  0.0431
  132OSM   C14S14233   2.070   0.826   7.898 -0.3113  0.4524 -0.0178
  132OSM   H14S14234   1.985   0.809   7.967 -0.2931  1.5248  0.2963
  132OSM   H14T14235   2.128   0.914   7.936  2.6997  0.3890 -3.8404
  132OSM   C15S14236   2.157   0.708   7.906 -0.7359 -0.0903  0.0944
  132OSM   H15S14237   2.250   0.726   7.848 -0.2037 -1.6054  0.4235
  132OSM   H15T14238   2.107   0.620   7.860  0.8458 -1.9164  1.6973
  132OSM   C16S14239   2.196   0.665   8.053 -0.4964  0.4371  0.3461
  132OSM   H16S14240   2.262   0.575   8.044  1.0680  1.0906  3.7171
  132OSM   H16T14241   2.110   0.629   8.113  0.2616 -1.6003  0.3195
  132OSM   C17S14242   2.266   0.772   8.138 -0.9684 -0.5268 -0.1300
  132OSM   H17S14243   2.276   0.735   8.243  1.1061 -1.3936 -0.5783
  132OSM   H17T14244   2.204   0.864   8.148  1.5832  1.4830 -1.4041
  132OSM   C18S14245   2.400   0.831   8.088 -0.1025 -0.2300 -0.4369
  132OSM   H18S14246   2.467   0.748   8.057 -0.1355 -0.4210  0.0044
  132OSM   H18T14247   2.456   0.880   8.170  0.3056 -2.0959  0.4715
  132OSM   H18U14248   2.397   0.901   8.002  1.1729  0.4562  0.0526
  132OSM    C1F14249   1.561   1.494   7.005 -0.7695  0.3149  0.1085
  132OSM     OF14250   1.474   1.472   6.927  0.6305 -0.4609 -0.1098
  132OSM    C2F14251   1.543   1.542   7.142 -0.2877 -0.2761 -0.2440
  132OSM    H2F14252   1.613   1.482   7.203 -1.4245 -2.5512 -1.0519
  132OSM    H2G14253   1.439   1.511   7.166 -0.2512 -1.3667 -1.4192
  132OSM    C3F14254   1.563   1.695   7.155 -0.3192 -0.6214 -0.6066
  132OSM    H3F14255   1.495   1.746   7.083  0.5979  1.7218  0.1029
  132OSM    H3G14256   1.661   1.720   7.109  0.0610 -0.4721  0.2823
  132OSM    C4F14257   1.555   1.752   7.302  0.5584  0.3204 -0.3748
  132OSM    H4F14258   1.495   1.845   7.302  0.1451  0.1367  2.5817
  132OSM    H4G14259   1.658   1.765   7.340 -0.5623 -0.6897  3.4388
  132OSM    C5F14260   1.480   1.653   7.394 -0.6456 -0.5023 -0.0797
  132OSM    H5F14261   1.546   1.566   7.415  1.0669  0.9894  1.0446
  132OSM    H5G14262   1.377   1.637   7.356 -0.5555  0.6272 -0.8587
  132OSM    C6F14263   1.449   1.718   7.531 -0.2898  0.5895  0.0335
  132OSM    H6F14264   1.381   1.801   7.504 -0.7092 -0.1656 -1.3391
  132OSM    H6G14265   1.543   1.754   7.577 -1.3661  0.7065  2.2433
  132OSM    C7F14266   1.387   1.622   7.630  0.5347 -0.6151  0.5824
  132OSM    H7F14267   1.451   1.541   7.672 -1.1889 -1.1587  2.2622
  132OSM    H7G14268   1.295   1.589   7.578 -1.2993  2.9584  1.2439
  132OSM    C8F14269   1.346   1.695   7.762  0.5658 -0.2400 -0.5882
  132OSM    H8F14270   1.439   1.732   7.811  1.3776 -0.8048 -1.6469
  132OSM    H8G14271   1.298   1.612   7.817 -3.1595  1.5926 -0.7893
  132OSM    C9F14272   1.239   1.801   7.755  0.6354 -0.4981 -0.1969
  132OSM    H9F14273   1.225   1.853   7.659 -0.4620 -0.8398 -0.2372
  132OSM   C10F14274   1.162   1.838   7.856  0.2351 -0.3462 -0.1100
  132OSM   H10F14275   1.079   1.909   7.843 -0.3702 -0.5291  2.1662
  132OSM   C11F14276   1.166   1.780   7.998 -0.1994 -0.4040  0.4854
  132OSM   H11F14277   1.265   1.732   8.016 -0.3728 -1.1945 -0.5444
  132OSM   H11G14278   1.092   1.697   8.005 -1.8389  1.1569  4.4156
  132OSM   C12F14279   1.154   1.882   8.110 -0.2079 -0.0523  0.3057
  132OSM   H12F14280   1.214   1.975   8.099  0.3442 -0.4695 -0.2239
  132OSM   H12G14281   1.183   1.818   8.196 -1.2375 -1.1239 -0.1328
  132OSM   C13F14282   1.005   1.922   8.125  0.1724 -0.2323  0.1104
  132OSM   H13F14283   0.927   1.844   8.136  0.0638 -0.0554  0.6744
  132OSM   H13G14284   0.981   1.994   8.044  1.2196  1.2020  1.0160
  132OSM   C14F14285   0.991   2.016   8.255  0.0085 -0.1346  0.3837
  132OSM   H14F14286   1.023   2.119   8.227 -0.0955 -0.3052 -0.4000
  132OSM   H14G14287   1.055   1.973   8.334  1.4681  1.0865 -0.0859
  132OSM   C15F14288   0.845   2.045   8.312  0.0898  0.0356  0.3621
  132OSM   H15F14289   0.784   2.090   8.231  2.0156  3.3783  0.5737
  132OSM   H15G14290   0.860   2.124   8.389 -0.3777 -0.2690  0.7682
  132OSM   C16F14291   0.781   1.926   8.376  0.3243  0.0952  0.6071
  132OSM   H16F14292   0.855   1.866   8.434 -1.0746 -2.2878  0.0785
  132OSM   H16G14293   0.735   1.859   8.300 -2.2799 -0.6674  2.6881
  132OSM   C17F14294   0.664   1.962   8.469 -0.3050  0.3499  0.4136
  132OSM   H17F14295   0.583   2.016   8.414  1.6602  1.5210 -1.5038
  132OSM   H17G14296   0.714   2.020   8.549 -0.6645 -0.1572  1.0201
  132OSM   C18F14297   0.587   1.838   8.532 -0.0860 -0.0320 -0.5255
  132OSM   H18F14298   0.660   1.765   8.574  0.4436 -0.6776 -2.4557
  132OSM   H18G14299   0.541   1.786   8.446 -0.3179 -2.0130  0.7175
  132OSM   H18H14300   0.497   1.863   8.593 -0.0673  0.0391 -0.5278
  133SAPE     N14301   3.361   6.785  10.715  0.5380 -0.4696 -0.4210
  133SAPE   HN114302   3.297   6.857  10.753 -0.1120 -1.4122  0.3068
  133SAPE   HN214303   3.334   6.786  10.615 -0.6359  0.4962 -0.1232
  133SAPE   HN314304   3.339   6.693  10.758 -2.2363  1.1719  2.0436
  133SAPE   C1214305   3.508   6.819  10.732 -0.7882 -0.3905 -0.1508
  133SAPE  H12A14306   3.514   6.927  10.759 -1.5825 -0.8691  2.2526
  133SAPE  H12B14307   3.561   6.810  10.635 -0.3160  0.2977  0.0386
  133SAPE   C1114308   3.564   6.731  10.846  0.1701 -0.1375  0.2093
  133SAPE  H11A14309   3.517   6.753  10.944 -0.2154  0.7861 -0.1713
  133SAPE  H11B14310   3.673   6.750  10.856  0.6133 -1.9834 -0.6914
  133SAPE     P14311   3.582   6.483  10.893 -0.1188  0.5636 -0.1707
  133SAPE   O1314312   3.610   6.527  11.030 -0.4772  0.3546  0.0840
  133SAPE   O1414313   3.496   6.363  10.880 -0.5197  0.1718  0.3146
  133SAPE   O1214314   3.527   6.597  10.811 -0.3760 -0.0354 -0.3469
  133SAPE   O1114315   3.728   6.458  10.830 -0.5885 -0.3377 -0.3937
  133SAPE    C114316   3.789   6.522  10.718 -0.2935 -1.0616 -0.7918
  133SAPE    HA14317   3.783   6.631  10.739 -0.5252 -1.3997  1.0477
  133SAPE    HB14318   3.897   6.498  10.719 -0.5520 -2.4095 -1.9254
  133SAPE    C214319   3.719   6.490  10.584  0.4284  0.4442  0.3383
  133SAPE    HS14320   3.610   6.508  10.590  0.6681  2.1967  0.0511
  133SAPE   O2114321   3.765   6.357  10.554 -0.0504  0.2580 -0.0903
  133SAPE   C2114322   3.671   6.275  10.512  0.0703  0.3239 -0.6150
  133SAPE   O2214323   3.553   6.296  10.511  0.1781 -0.4603  0.1640
  133SAPE   C2214324   3.738   6.147  10.441  0.1081 -0.3321 -0.4606
  133SAPE   H2R14325   3.767   6.089  10.531 -3.3268  0.1086  1.0696
  133SAPE   H2S14326   3.651   6.101  10.391 -1.9509 -0.3443  2.8728
  133SAPE    C314327   3.769   6.574  10.464  0.2688 -0.2287  0.3050
  133SAPE    HX14328   3.879   6.592  10.473  0.3516 -1.4720  2.5350
  133SAPE    HY14329   3.725   6.675  10.473  0.2518 -0.1225 -0.8600
  133SAPE   O3114330   3.737   6.512  10.336 -0.3227  0.5635  0.2489
  133SAPE   C3114331   3.622   6.554  10.279  0.2506  0.8553 -0.0288
  133SAPE   O3214332   3.544   6.634  10.329  0.5732  0.1372 -0.2698
  133SAPE   C3214333   3.586   6.462  10.160  0.4820 -0.3585 -0.0455
  133SAPE   H2X14334   3.476   6.450  10.154  0.0723  2.7947 -0.2489
  133SAPE   H2Y14335   3.633   6.363  10.178  0.6918 -0.5286 -1.4467
  133SAPE   C2314336   3.849   6.179  10.343  0.1898 -0.5617 -0.4695
  133SAPE   H3R14337   3.916   6.264  10.368  0.1949 -0.6476 -0.1959
  133SAPE   H3S14338   3.812   6.203  10.241 -0.6367  0.1204 -0.0285
  133SAPE   C2414339   3.934   6.057  10.314 -0.8049 -0.3696 -0.3129
  133SAPE   H4R14340   3.999   6.034  10.401  0.2743  4.3957  0.4080
  133SAPE   H4S14341   4.002   6.100  10.238 -0.8544  0.6288  0.1887
  133SAPE   C2514342   3.868   5.932  10.262 -0.1771 -0.1611 -0.2751
  133SAPE   H5R14343   3.851   5.869  10.351  2.9175 -0.0652  0.5039
  133SAPE   C2614344   3.868   5.882  10.134  0.9427 -0.1496 -0.6551
  133SAPE   H6R14345   3.818   5.784  10.123  0.3566 -0.0152  0.5893
  133SAPE   C2714346   3.914   5.952  10.007  0.0965 -0.3986 -0.7154
  133SAPE   H7R14347   3.990   6.030  10.026 -0.8622  0.2899  0.3769
  133SAPE   H7S14348   3.830   6.016   9.973  0.2005  0.1520  0.0572
  133SAPE   C2814349   3.964   5.862   9.902  0.4652  0.4403 -0.6023
  133SAPE   H8R14350   4.052   5.807   9.939 -1.0888 -1.8062 -0.0862
  133SAPE   C2914351   3.921   5.843   9.773 -0.2516  0.0954 -0.7930
  133SAPE   H9R14352   3.974   5.771   9.709  1.8261  2.1478 -1.5157
  133SAPE  C21014353   3.804   5.912   9.705 -0.1030  0.5053 -0.3895
  133SAPE  H10R14354   3.783   6.010   9.752 -0.0804  0.2691  0.1207
  133SAPE  H10S14355   3.714   5.849   9.722 -1.4531  1.6998 -2.6811
  133SAPE  C21114356   3.835   5.948   9.558 -0.2232  0.6851 -0.1766
  133SAPE  H11R14357   3.907   6.029   9.538 -1.2922  0.7031 -5.4618
  133SAPE  C21214358   3.786   5.886   9.447  0.6931  0.1956  0.7987
  133SAPE  H12R14359   3.827   5.934   9.357  1.2550  0.8673  1.3983
  133SAPE  C21314360   3.681   5.776   9.434 -1.3220 -0.1469  0.1892
  133SAPE  H13R14361   3.693   5.701   9.515  4.2991  1.1542  1.0148
  133SAPE  H13S14362   3.694   5.713   9.344 -1.2781 -2.4920  1.7519
  133SAPE  C21414363   3.546   5.837   9.446  0.3565 -0.0069 -0.1844
  133SAPE  H14R14364   3.531   5.892   9.541  1.7067 -1.7519  1.0824
  133SAPE  C21514365   3.439   5.822   9.376 -0.0045 -0.0302 -0.0279
  133SAPE  H15R14366   3.347   5.863   9.422  0.3557  0.9205 -0.1293
  133SAPE  C21614367   3.413   5.751   9.249  0.3918  0.0396 -0.9814
  133SAPE  H16R14368   3.335   5.679   9.283 -1.2173  1.8717 -0.6325
  133SAPE  H16S14369   3.502   5.695   9.213  0.2228  1.5774 -4.0583
  133SAPE  C21714370   3.338   5.835   9.142 -0.6031  0.8720  0.1054
  133SAPE  H17R14371   3.402   5.921   9.112  0.2069  0.1080 -0.4192
  133SAPE  H17S14372   3.247   5.882   9.186 -1.1597 -1.4901  1.6796
  133SAPE  C21814373   3.315   5.749   9.019 -0.3756 -0.8023 -0.3110
  133SAPE  H18R14374   3.410   5.717   8.970 -0.9132 -1.1361 -1.1671
  133SAPE  H18S14375   3.254   5.810   8.950 -3.1816 -1.4386  1.4500
  133SAPE  C21914376   3.226   5.625   9.045  0.2377 -1.3187 -0.6313
  133SAPE  H19R14377   3.289   5.549   9.096  0.5618  1.0574  2.8725
  133SAPE  H19S14378   3.209   5.594   8.940 -3.3611  1.1761 -1.0119
  133SAPE  C22014379   3.095   5.637   9.121 -0.2712  0.0185 -0.3114
  133SAPE  H20R14380   3.125   5.642   9.228  0.3004 -0.1799 -0.4562
  133SAPE  H20S14381   3.036   5.543   9.116 -1.2605  0.4527  1.8842
  133SAPE  H20T14382   3.027   5.721   9.097 -2.2020 -1.2697  0.4446
  133SAPE   C3314383   3.645   6.516  10.026 -0.2865 -0.1191 -0.3263
  133SAPE   H3X14384   3.645   6.432   9.953 -2.2859  0.3433 -0.9247
  133SAPE   H3Y14385   3.747   6.554  10.047 -0.7390  0.0498  1.8085
  133SAPE   C3414386   3.571   6.633   9.948 -0.1817 -0.1819 -0.4399
  133SAPE   H4X14387   3.556   6.724  10.010 -3.4690 -0.8238 -0.1450
  133SAPE   H4Y14388   3.471   6.600   9.913 -1.4233  1.3830  1.4859
  133SAPE   C3514389   3.650   6.650   9.816 -0.6772 -0.3755  0.0148
  133SAPE   H5X14390   3.653   6.552   9.764 -0.2383 -0.1571 -0.3767
  133SAPE   H5Y14391   3.758   6.677   9.822 -1.1932  1.9649 -0.3231
  133SAPE   C3614392   3.579   6.743   9.717 -0.5515 -0.3029  0.3736
  133SAPE   H6X14393   3.571   6.847   9.753 -1.9119 -0.6202  1.0329
  133SAPE   H6Y14394   3.472   6.722   9.696  0.0005 -1.9162 -1.1148
  133SAPE   C3714395   3.667   6.748   9.593  0.0576  0.4910  0.0285
  133SAPE   H7X14396   3.673   6.640   9.566  1.3839  0.4699  0.3409
  133SAPE   H7Y14397   3.771   6.782   9.615  0.7109 -3.0759  3.6642
  133SAPE   C3814398   3.618   6.813   9.466  1.2816 -0.5531 -0.8493
  133SAPE   H8X14399   3.713   6.842   9.416  1.6728  0.0393  0.2159
  133SAPE   H8Y14400   3.556   6.905   9.477  0.0607 -1.3973 -0.3946
  133SAPE   C3914401   3.561   6.728   9.352  0.1599  0.3657 -0.3271
  133SAPE   H9X14402   3.461   6.697   9.389  0.7489  0.2562  1.2526
  133SAPE   H9Y14403   3.621   6.636   9.337 -3.3554 -2.1439 -0.2605
  133SAPE  C31014404   3.550   6.817   9.225 -0.0320  0.4078 -0.1552
  133SAPE  H10X14405   3.644   6.874   9.207  1.2923 -1.3371  0.8778
  133SAPE  H10Y14406   3.475   6.898   9.239 -0.8758 -0.3517 -0.2546
  133SAPE  C31114407   3.531   6.732   9.100 -0.7479  0.6774 -0.2600
  133SAPE  H11X14408   3.431   6.685   9.089 -0.8722  1.3134 -2.2791
  133SAPE  H11Y14409   3.597   6.644   9.106 -1.8609 -0.4234 -2.7222
  133SAPE  C31214410   3.574   6.802   8.964  0.5637  0.0326  0.1980
  133SAPE  H12X14411   3.676   6.841   8.984  0.6754  0.3993 -0.9750
  133SAPE  H12Y14412   3.498   6.883   8.953 -1.5578 -1.8970 -0.1591
  133SAPE  C31314413   3.579   6.700   8.850 -0.1910 -0.1559 -0.7252
  133SAPE  H13X14414   3.477   6.658   8.834  0.3797 -1.9344  0.0505
  133SAPE  H13Y14415   3.644   6.614   8.876 -2.3250 -1.8409 -0.6737
  133SAPE  C31414416   3.623   6.759   8.710 -0.2807  0.4684  0.2062
  133SAPE  H14X14417   3.726   6.800   8.708 -0.1457  0.0991 -0.7312
  133SAPE  H14Y14418   3.558   6.849   8.705  0.8261  1.2218 -1.0241
  133SAPE  C31514419   3.609   6.660   8.593 -0.5111  1.0243 -1.0543
  133SAPE  H15X14420   3.616   6.554   8.624  1.7655  0.7936 -2.2005
  133SAPE  H15Y14421   3.681   6.687   8.513 -0.4593  0.9672 -1.0268
  133SAPE  C31614422   3.483   6.696   8.522 -0.1216 -0.0909  0.3260
  133SAPE  H16X14423   3.474   6.792   8.469 -4.2210 -0.5796 -0.2367
  133SAPE  H16Y14424   3.406   6.691   8.603 -0.6200  1.6072 -0.0067
  133SAPE  C31714425   3.451   6.581   8.416  0.2048  0.5481 -0.5609
  133SAPE  H17X14426   3.464   6.484   8.467 -1.7019  1.3547  1.6334
  133SAPE  H17Y14427   3.536   6.589   8.345  0.8282 -0.6229  0.0289
  133SAPE  C31814428   3.326   6.567   8.341  1.2837 -0.0459  0.1004
  133SAPE  H18X14429   3.238   6.548   8.406  1.7559  4.0081  2.1792
  133SAPE  H18Y14430   3.325   6.502   8.250 -1.5324  0.4646 -0.3418
  133SAPE  H18Z14431   3.302   6.664   8.293  1.6374 -0.0179 -0.0270
  134SAPE     N14432   5.656   6.633  10.467 -0.2705 -0.7953  0.1604
  134SAPE   HN114433   5.570   6.675  10.509 -1.0039 -0.6362 -1.4316
  134SAPE   HN214434   5.645   6.641  10.364 -0.2144 -1.1716  0.1232
  134SAPE   HN314435   5.667   6.534  10.498  1.3963 -0.0412  2.2185
  134SAPE   C1214436   5.772   6.728  10.510 -0.6372 -0.0483 -0.2233
  134SAPE  H12A14437   5.742   6.832  10.486  0.3612  0.5179  0.8468
  134SAPE  H12B14438   5.857   6.704  10.442 -1.3236 -0.8825 -0.8020
  134SAPE   C1114439   5.810   6.722  10.662  0.9522 -0.0407 -0.2889
  134SAPE  H11A14440   5.720   6.767  10.709 -0.9159 -2.4979 -1.2699
  134SAPE  H11B14441   5.902   6.782  10.678  0.7975  0.8584 -2.4748
  134SAPE     P14442   5.931   6.497  10.686 -0.1183 -0.2278 -0.4956
  134SAPE   O1314443   6.033   6.542  10.781  0.5943  0.3594 -0.0375
  134SAPE   O1414444   5.884   6.356  10.694 -0.2986  0.2190 -0.4226
  134SAPE   O1214445   5.808   6.592  10.708 -0.1472 -0.4286  0.4963
  134SAPE   O1114446   5.980   6.542  10.545  0.6876  0.2219 -0.4523
  134SAPE    C114447   6.109   6.498  10.498 -0.0249  0.2184  0.0074
  134SAPE    HA14448   6.184   6.559  10.551 -1.6550  1.9784  0.4134
  134SAPE    HB14449   6.140   6.395  10.524  1.2907  0.8470  1.0407
  134SAPE    C214450   6.123   6.504  10.340 -0.1141 -0.5638 -0.7522
  134SAPE    HS14451   6.227   6.482  10.308 -0.9345 -1.8782 -2.7191
  134SAPE   O2114452   6.078   6.627  10.287  0.7467  0.0136 -0.0489
  134SAPE   C2114453   6.162   6.733  10.304 -0.5002 -0.5174 -0.5464
  134SAPE   O2214454   6.279   6.729  10.345 -0.7670 -0.4655 -0.4897
  134SAPE   C2214455   6.084   6.858  10.287  0.0478 -0.2451 -0.5337
  134SAPE   H2R14456   5.983   6.830  10.248  0.2116  0.6542 -1.6672
  134SAPE   H2S14457   6.049   6.902  10.383  0.5988 -0.8887 -0.0342
  134SAPE    C314458   6.035   6.391  10.277 -0.1264 -0.3634 -0.1716
  134SAPE    HX14459   5.930   6.406  10.308  0.5144  1.3924  1.4006
  134SAPE    HY14460   6.072   6.299  10.326 -0.4141  1.1919  3.2946
  134SAPE   O3114461   6.059   6.380  10.136  0.3502 -0.0836 -0.0582
  134SAPE   C3114462   5.966   6.435  10.061  0.4812  0.8564  0.1617
  134SAPE   O3214463   5.861   6.486  10.093  0.1499 -0.1254  0.2738
  134SAPE   C3214464   6.005   6.394   9.915 -0.5188  0.5943  0.2124
  134SAPE   H2X14465   5.960   6.295   9.894 -0.4888  0.2488  1.7126
  134SAPE   H2Y14466   6.114   6.372   9.913 -0.7459 -0.6224  0.7454
  134SAPE   C2314467   6.158   6.964  10.209 -0.2219  0.2946  0.3942
  134SAPE   H3R14468   6.222   7.023  10.278  0.4791 -0.0326  0.0431
  134SAPE   H3S14469   6.077   7.036  10.183  1.2807  2.0145  0.2375
  134SAPE   C2414470   6.226   6.908  10.087  0.3954 -0.3512  0.0491
  134SAPE   H4R14471   6.291   6.825  10.121 -0.5805 -1.8577 -1.5876
  134SAPE   H4S14472   6.290   6.994  10.056  0.9004 -0.6286  0.3044
  134SAPE   C2514473   6.127   6.853   9.979  0.6256  0.1495  0.1675
  134SAPE   H5R14474   6.043   6.799  10.023  1.0449 -0.4577  0.2359
  134SAPE   C2614475   6.130   6.871   9.839  0.5552  0.1960  0.1586
  134SAPE   H6R14476   6.044   6.835   9.780  1.4071 -1.5405 -0.0985
  134SAPE   C2714477   6.231   6.956   9.770 -0.3606 -0.5450 -0.0077
  134SAPE   H7R14478   6.317   6.969   9.838  1.1116 -1.4709 -1.5841
  134SAPE   H7S14479   6.195   7.060   9.757 -0.0685 -0.6275 -1.8543
  134SAPE   C2814480   6.303   6.912   9.643 -0.3943  0.5766  0.7655
  134SAPE   H8R14481   6.395   6.854   9.661 -2.0247 -2.4091  0.2755
  134SAPE   C2914482   6.255   6.939   9.517 -0.4823 -0.2991  0.4185
  134SAPE   H9R14483   6.311   6.903   9.429 -0.0843 -0.5527  0.7646
  134SAPE  C21014484   6.125   7.002   9.479 -0.3021  0.0845 -0.1736
  134SAPE  H10R14485   6.144   7.109   9.457 -2.6630  0.7500  0.7311
  134SAPE  H10S14486   6.047   6.988   9.557 -0.5345 -0.7179 -0.5350
  134SAPE  C21114487   6.073   6.939   9.354  0.3228  0.0029 -0.1896
  134SAPE  H11R14488   6.005   6.853   9.365 -0.6973  0.3256 -3.0633
  134SAPE  C21214489   6.089   6.974   9.228 -0.4963  0.0393  0.1056
  134SAPE  H12R14490   6.050   6.917   9.143 -0.1103 -1.0420  0.6422
  134SAPE  C21314491   6.183   7.073   9.174  0.0686 -0.0575  0.1227
  134SAPE  H13R14492   6.222   7.141   9.253  1.6885 -0.9086  0.1144
  134SAPE  H13S14493   6.130   7.148   9.113  0.3486  1.3750  1.5606
  134SAPE  C21414494   6.301   7.024   9.094  0.7439  0.8419 -0.2335
  134SAPE  H14R14495   6.391   6.998   9.152  0.2567 -1.1101 -0.2949
  134SAPE  C21514496   6.300   6.999   8.961 -0.2428  0.3685  0.4573
  134SAPE  H15R14497   6.400   6.969   8.926 -0.2027  0.2751  0.6467
  134SAPE  C21614498   6.178   7.008   8.868 -0.0145 -0.9120  0.2533
  134SAPE  H16R14499   6.090   7.028   8.933  0.7991  1.4639  0.7510
  134SAPE  H16S14500   6.161   6.916   8.808 -2.7709 -0.5331  0.3072
  134SAPE  C21714501   6.190   7.120   8.764  0.2518 -0.1681 -0.0231
  134SAPE  H17R14502   6.242   7.075   8.676  0.6040  1.7354 -0.8427
  134SAPE  H17S14503   6.255   7.206   8.793 -1.2747  1.7135 -1.8480
  134SAPE  C21814504   6.053   7.171   8.728 -0.3772 -0.4945 -0.2689
  134SAPE  H18R14505   6.055   7.258   8.659 -0.0038 -0.3859 -0.1241
  134SAPE  H18S14506   5.991   7.197   8.817  0.0696  0.0101 -0.0970
  134SAPE  C21914507   5.956   7.075   8.653 -0.1218  1.0441  0.1934
  134SAPE  H19R14508   5.930   7.001   8.732  0.0773  1.5376  0.7276
  134SAPE  H19S14509   6.007   7.022   8.570  0.4370  2.3169 -0.2940
  134SAPE  C22014510   5.830   7.138   8.598  0.8459 -0.2011  0.1237
  134SAPE  H20R14511   5.776   7.057   8.544  2.4779 -0.6596 -0.8719
  134SAPE  H20S14512   5.847   7.232   8.540  1.2459  1.3968  2.6680
  134SAPE  H20T14513   5.763   7.166   8.682 -0.0639 -0.8592 -0.3641
  134SAPE   C3314514   5.968   6.492   9.802  0.0872  0.7568  0.4099
  134SAPE   H3X14515   5.994   6.592   9.843 -1.8160  0.7634  1.7592
  134SAPE   H3Y14516   5.861   6.487   9.774 -0.1995 -0.3686  1.5804
  134SAPE   C3414517   6.058   6.455   9.673  1.1311 -0.5948 -0.1474
  134SAPE   H4X14518   6.008   6.359   9.650  1.1847 -0.6483 -0.0366
  134SAPE   H4Y14519   6.159   6.430   9.711  1.6266 -0.1748 -1.1541
  134SAPE   C3514520   6.047   6.558   9.552 -0.1118 -0.1075 -0.3291
  134SAPE   H5X14521   6.096   6.655   9.578 -0.4845 -0.3848  1.5437
  134SAPE   H5Y14522   5.940   6.583   9.538 -0.2152 -0.9968 -1.1909
  134SAPE   C3614523   6.103   6.494   9.428 -0.3706 -0.2247  0.7856
  134SAPE   H6X14524   6.037   6.407   9.408  3.1731 -3.0957  0.7566
  134SAPE   H6Y14525   6.211   6.472   9.433 -0.5513 -1.4414 -0.1572
  134SAPE   C3714526   6.095   6.582   9.302 -0.2289 -0.1888 -0.1619
  134SAPE   H7X14527   6.153   6.674   9.321 -0.7238  0.3170 -1.0218
  134SAPE   H7Y14528   5.995   6.622   9.276  0.0621  0.0499 -0.9418
  134SAPE   C3814529   6.158   6.514   9.178  0.2195  0.2779  0.7089
  134SAPE   H8X14530   6.089   6.438   9.135  0.9139  0.6020 -1.0644
  134SAPE   H8Y14531   6.251   6.466   9.215  0.6305  0.6092  0.1067
  134SAPE   C3914532   6.194   6.604   9.053  0.2109 -0.5847 -0.3303
  134SAPE   H9X14533   6.288   6.657   9.081  1.3861 -2.0256 -1.4079
  134SAPE   H9Y14534   6.115   6.681   9.042  0.0163 -0.7375 -0.0083
  134SAPE  C31014535   6.197   6.521   8.921 -0.0544  0.2849  0.0073
  134SAPE  H10X14536   6.100   6.471   8.904  0.2371 -0.3429  0.1687
  134SAPE  H10Y14537   6.257   6.430   8.939 -0.7049 -0.2298 -0.3862
  134SAPE  C31114538   6.255   6.596   8.804  0.0248 -0.1255 -0.0865
  134SAPE  H11X14539   6.358   6.617   8.838 -0.0069 -1.0032  0.6026
  134SAPE  H11Y14540   6.187   6.683   8.787 -0.1332 -0.2130  0.0828
  134SAPE  C31214541   6.261   6.520   8.671 -0.1696  0.3192 -0.2134
  134SAPE  H12X14542   6.253   6.593   8.588 -1.4334  0.6970  0.2129
  134SAPE  H12Y14543   6.173   6.453   8.659  0.3839 -0.4361 -0.0668
  134SAPE  C31314544   6.395   6.439   8.657  0.2561 -0.7910 -0.0961
  134SAPE  H13X14545   6.409   6.371   8.744  1.0208  0.3623  0.7238
  134SAPE  H13Y14546   6.485   6.505   8.659 -0.6679  0.5749 -1.5079
  134SAPE  C31414547   6.413   6.361   8.523 -0.2532 -0.7753 -0.9719
  134SAPE  H14X14548   6.321   6.309   8.488  0.0280  0.2149 -3.3439
  134SAPE  H14Y14549   6.488   6.282   8.542  0.6182  0.3080  0.2588
  134SAPE  C31514550   6.465   6.450   8.414 -0.2532 -0.8671  0.7374
  134SAPE  H15X14551   6.547   6.521   8.441 -1.7875  1.3900 -0.1895
  134SAPE  H15Y14552   6.386   6.523   8.386  0.9270 -0.4431 -1.7157
  134SAPE  C31614553   6.523   6.364   8.300 -0.3946  0.0200  0.4544
  134SAPE  H16X14554   6.450   6.284   8.274  1.7795 -1.6113 -0.9964
  134SAPE  H16Y14555   6.623   6.318   8.317 -0.3412  0.0112  0.1189
  134SAPE  C31714556   6.531   6.443   8.175  0.0555  0.0078 -0.4231
  134SAPE  H17X14557   6.550   6.376   8.089  2.5501 -0.7889  0.6450
  134SAPE  H17Y14558   6.608   6.522   8.185 -0.6388  0.5284  1.1603
  134SAPE  C31814559   6.401   6.509   8.130  0.1339 -0.1217  0.1200
  134SAPE  H18X14560   6.406   6.553   8.028 -0.1069 -2.1313 -0.8063
  134SAPE  H18Y14561   6.386   6.593   8.201 -1.8792  0.5378 -1.0056
  134SAPE  H18Z14562   6.324   6.430   8.121 -0.9464  1.1122 -2.1309
  135SAPE     N14563   5.515   4.258  10.877  0.1582  0.0907  0.4371
  135SAPE   HN114564   5.430   4.297  10.921 -0.6506 -0.5561 -0.5071
  135SAPE   HN214565   5.520   4.295  10.780  0.9056 -2.7866 -0.7429
  135SAPE   HN314566   5.509   4.154  10.877 -1.2844  0.1440 -1.1032
  135SAPE   C1214567   5.646   4.282  10.947 -0.2581  0.1664  0.1342
  135SAPE  H12A14568   5.645   4.269  11.057  2.0068  0.9925  0.2994
  135SAPE  H12B14569   5.672   4.389  10.932 -0.4017  0.0240 -1.2227
  135SAPE   C1114570   5.753   4.197  10.886 -0.4814 -0.6901 -0.3577
  135SAPE  H11A14571   5.754   4.091  10.919 -0.5013 -0.4155  0.5435
  135SAPE  H11B14572   5.850   4.240  10.920 -0.6991 -0.4757 -0.0094
  135SAPE     P14573   5.775   4.117  10.631 -0.3142 -0.0628  0.2929
  135SAPE   O1314574   5.651   4.029  10.620 -0.0745  0.0177 -0.2861
  135SAPE   O1414575   5.813   4.205  10.512  0.5832  0.0603  1.3422
  135SAPE   O1214576   5.743   4.215  10.749  0.2214 -0.1808 -0.4168
  135SAPE   O1114577   5.899   4.040  10.694  0.1642  0.1340  0.0856
  135SAPE    C114578   6.024   4.028  10.629 -0.0414  0.0172 -0.1533
  135SAPE    HA14579   6.048   4.124  10.579 -1.0235 -0.2412 -1.1624
  135SAPE    HB14580   6.103   4.023  10.707 -1.1606  1.3438  1.1396
  135SAPE    C214581   6.034   3.890  10.557 -0.7319 -0.1601 -0.2274
  135SAPE    HS14582   6.142   3.882  10.533 -0.1142  0.4234  2.0466
  135SAPE   O2114583   5.949   3.889  10.438  0.1166  0.5702 -0.0327
  135SAPE   C2114584   5.998   3.962  10.343  0.9428  0.4101 -0.1572
  135SAPE   O2214585   6.101   4.028  10.349  0.3787 -0.0306  0.3109
  135SAPE   C2214586   5.898   3.948  10.223 -0.4293  0.0418 -0.1739
  135SAPE   H2R14587   5.827   3.866  10.248  0.2360  0.2104  2.6519
  135SAPE   H2S14588   5.847   4.046  10.223  0.7723  0.7226 -1.6288
  135SAPE    C314589   6.001   3.766  10.647 -0.2543 -0.6057 -0.6472
  135SAPE    HX14590   5.906   3.801  10.693  0.7917  2.5026 -0.5956
  135SAPE    HY14591   6.081   3.762  10.724  0.1256 -0.6526 -1.0409
  135SAPE   O3114592   6.000   3.644  10.575 -0.4460  0.2974 -0.7529
  135SAPE   C3114593   5.888   3.593  10.535  0.3232 -0.0487 -0.5382
  135SAPE   O3214594   5.778   3.623  10.578 -0.3272 -0.3387 -0.0732
  135SAPE   C3214595   5.904   3.501  10.409  0.8416 -0.5135  0.2516
  135SAPE   H2X14596   5.856   3.409  10.450 -1.5634  0.6692  0.2505
  135SAPE   H2Y14597   6.008   3.504  10.370 -0.1268 -0.3122 -2.5007
  135SAPE   C2314598   5.949   3.905  10.084  0.2983  0.0850  0.1414
  135SAPE   H3R14599   5.860   3.889  10.019  0.5371 -1.5256  0.1725
  135SAPE   H3S14600   6.011   3.814  10.099  0.0168 -0.1602 -0.1670
  135SAPE   C2414601   6.047   4.001  10.012  0.5736  0.3164 -0.3740
  135SAPE   H4R14602   6.101   3.954   9.926  0.2813  0.4323 -0.6244
  135SAPE   H4S14603   6.133   4.016  10.081 -0.6443 -1.6497  1.7253
  135SAPE   C2514604   5.986   4.127   9.971  0.4597 -0.6921  0.3113
  135SAPE   H5R14605   5.952   4.187  10.056  2.1243  0.9510 -0.1394
  135SAPE   C2614606   5.953   4.169   9.846 -0.1346  1.1562  0.7074
  135SAPE   H6R14607   5.892   4.256   9.819 -1.5009 -0.3224 -1.2513
  135SAPE   C2714608   5.990   4.084   9.722  0.2765  0.0507 -0.0203
  135SAPE   H7R14609   5.903   4.020   9.695 -0.8657  1.9655 -1.0607
  135SAPE   H7S14610   6.081   4.021   9.735  1.0915  1.2948  0.5068
  135SAPE   C2814611   6.025   4.177   9.610 -0.6816 -0.6265 -0.1404
  135SAPE   H8R14612   6.098   4.258   9.628 -0.8422 -0.3989 -0.5102
  135SAPE   C2914613   5.984   4.155   9.485 -0.3198 -0.4745 -0.3025
  135SAPE   H9R14614   6.013   4.228   9.408  1.3673 -1.6186 -0.8059
  135SAPE  C21014615   5.902   4.033   9.434  0.1607  1.5446  0.2331
  135SAPE  H10R14616   5.941   3.939   9.478  2.0171  1.2935 -1.8009
  135SAPE  H10S14617   5.918   4.013   9.326 -2.2766 -0.6159  0.1857
  135SAPE  C21114618   5.754   4.051   9.475 -0.3530 -1.1176 -0.3986
  135SAPE  H11R14619   5.740   4.105   9.570 -0.0169 -0.5633 -0.6558
  135SAPE  C21214620   5.639   4.029   9.400  0.2813  0.2880 -0.1798
  135SAPE  H12R14621   5.540   4.069   9.427 -0.8807 -1.2874 -1.8936
  135SAPE  C21314622   5.635   3.963   9.268 -0.1707 -0.1552  0.3158
  135SAPE  H13R14623   5.538   3.909   9.261 -0.2966  0.1804 -0.6608
  135SAPE  H13S14624   5.716   3.887   9.269 -0.8406 -0.8671  0.8022
  135SAPE  C21414625   5.653   4.065   9.155  0.9590  0.0277  0.1750
  135SAPE  H14R14626   5.742   4.126   9.176  0.9764  0.9221 -2.1955
  135SAPE  C21514627   5.593   4.066   9.035 -0.1901  0.2386 -0.2081
  135SAPE  H15R14628   5.620   4.149   8.968 -0.5511  1.5904  1.2377
  135SAPE  C21614629   5.487   3.976   8.988  0.9071 -0.6125 -0.0793
  135SAPE  H16R14630   5.446   3.920   9.075  0.9195  1.4045  1.3070
  135SAPE  H16S14631   5.530   3.899   8.920  1.2635 -0.0957 -0.4432
  135SAPE  C21714632   5.364   4.053   8.944  0.4821 -0.0873  0.4089
  135SAPE  H17R14633   5.384   4.111   8.851 -0.3969  0.9502  0.8450
  135SAPE  H17S14634   5.332   4.129   9.018  0.3918 -0.3973  0.6885
  135SAPE  C21814635   5.247   3.968   8.916  0.4538 -0.2435 -0.6822
  135SAPE  H18R14636   5.244   3.870   8.968  1.9609  0.7597  1.4337
  135SAPE  H18S14637   5.241   3.927   8.813  0.2250 -3.1109  0.3843
  135SAPE  C21914638   5.111   4.028   8.934  0.7337 -0.3279 -0.4092
  135SAPE  H19R14639   5.109   4.121   8.872 -1.2159 -1.0175 -1.4817
  135SAPE  H19S14640   5.084   4.071   9.033 -2.7399  1.6872 -2.0139
  135SAPE  C22014641   4.995   3.938   8.884  0.5955  0.3840  0.1402
  135SAPE  H20R14642   4.896   3.989   8.883 -1.1275 -2.6955 -1.5198
  135SAPE  H20S14643   5.002   3.844   8.942 -1.7480  0.7471  1.1206
  135SAPE  H20T14644   5.008   3.914   8.776  0.1231  0.8151 -0.0189
  135SAPE   C3314645   5.817   3.548  10.285  0.1543  0.0974  0.0014
  135SAPE   H3X14646   5.829   3.654  10.256  0.7573  0.2580  0.7911
  135SAPE   H3Y14647   5.710   3.528  10.309  0.8109 -2.4812  1.1918
  135SAPE   C3414648   5.856   3.462  10.156 -0.2204 -0.3490 -0.7595
  135SAPE   H4X14649   5.778   3.486  10.081 -2.0174  2.0261  1.6628
  135SAPE   H4Y14650   5.848   3.353  10.174  0.6978 -0.5119 -1.2385
  135SAPE   C3514651   5.995   3.477  10.099 -0.0281 -1.4065  0.3189
  135SAPE   H5X14652   6.077   3.450  10.169  1.4351  1.2007 -0.2642
  135SAPE   H5Y14653   5.991   3.588  10.095 -3.2448 -1.4605 -2.5232
  135SAPE   C3614654   6.010   3.404   9.964 -0.7630 -0.7906 -1.1014
  135SAPE   H6X14655   5.995   3.294   9.971  1.1609 -1.2110 -2.6865
  135SAPE   H6Y14656   6.116   3.409   9.931 -0.4629  0.2427 -0.0574
  135SAPE   C3714657   5.926   3.450   9.846  0.1212  0.4713  0.4430
  135SAPE   H7X14658   5.817   3.434   9.863  0.4238 -3.2797 -0.2396
  135SAPE   H7Y14659   5.949   3.381   9.761 -0.5335 -0.3035  0.8814
  135SAPE   C3814660   5.958   3.595   9.798  0.2714  0.9232 -0.1610
  135SAPE   H8X14661   6.067   3.609   9.789  0.4472 -0.4674 -0.3999
  135SAPE   H8Y14662   5.916   3.658   9.879 -3.1352 -0.4050 -0.6850
  135SAPE   C3914663   5.876   3.621   9.670 -1.1085 -0.1670  0.2004
  135SAPE   H9X14664   5.859   3.731   9.673  0.5165  0.1406 -0.5557
  135SAPE   H9Y14665   5.776   3.572   9.675 -0.4910 -1.4997 -0.1327
  135SAPE  C31014666   5.950   3.585   9.537  0.1730 -0.1283  0.4899
  135SAPE  H10X14667   6.022   3.501   9.544 -0.0417 -0.3016  0.6221
  135SAPE  H10Y14668   6.004   3.676   9.504 -1.0528  0.4875  0.1355
  135SAPE  C31114669   5.855   3.533   9.425  0.3664  0.2683  0.7559
  135SAPE  H11X14670   5.785   3.454   9.462  0.6425 -0.5485 -0.4169
  135SAPE  H11Y14671   5.911   3.492   9.339 -0.2396  1.2102 -0.1043
  135SAPE  C31214672   5.770   3.632   9.342 -0.2297 -0.1401 -0.0355
  135SAPE  H12X14673   5.848   3.684   9.282  1.3558 -1.9970  0.3334
  135SAPE  H12Y14674   5.696   3.696   9.394 -0.2253 -0.5228  0.4457
  135SAPE  C31314675   5.683   3.556   9.235  0.6747  0.3728 -0.6255
  135SAPE  H13X14676   5.610   3.631   9.198  0.0599  0.4769  0.7284
  135SAPE  H13Y14677   5.627   3.472   9.283  1.2283 -0.8110 -2.0010
  135SAPE  C31414678   5.756   3.495   9.116  0.6868  0.6390  0.0171
  135SAPE  H14X14679   5.800   3.397   9.146  0.9834  0.2921 -1.4942
  135SAPE  H14Y14680   5.851   3.545   9.088 -0.3393  0.9259 -3.4241
  135SAPE  C31514681   5.673   3.484   8.984  0.3703 -0.1421 -0.3770
  135SAPE  H15X14682   5.599   3.403   9.003  2.4171 -2.7731 -2.7169
  135SAPE  H15Y14683   5.753   3.449   8.916 -0.4625  0.8140 -1.8845
  135SAPE  C31614684   5.607   3.608   8.928  0.1173 -0.1419  0.0460
  135SAPE  H16X14685   5.693   3.678   8.922  0.7157 -0.8929 -0.5458
  135SAPE  H16Y14686   5.532   3.642   9.002 -0.1975  0.9741 -0.7714
  135SAPE  C31714687   5.565   3.584   8.790 -0.4120 -0.0322  1.0590
  135SAPE  H17X14688   5.659   3.582   8.731 -0.7484  0.9855  0.4480
  135SAPE  H17Y14689   5.514   3.674   8.749  0.8245 -0.5554 -1.9392
  135SAPE  C31814690   5.481   3.461   8.764  0.1698  0.7264 -0.0732
  135SAPE  H18X14691   5.394   3.461   8.834  1.9044 -1.8630  2.3245
  135SAPE  H18Y14692   5.529   3.366   8.797 -0.7414  0.3425  0.2103
  135SAPE  H18Z14693   5.447   3.454   8.658 -1.3203  2.3650  0.2497
  136SAPE     N14694   1.595   5.575  11.172  0.0403 -0.5589  0.1315
  136SAPE   HN114695   1.657   5.506  11.220  1.0295  0.8400  0.9324
  136SAPE   HN214696   1.555   5.531  11.087 -0.3145  0.9286 -0.5006
  136SAPE   HN314697   1.652   5.656  11.142  0.2248 -1.1732 -1.2213
  136SAPE   C1214698   1.484   5.619  11.263  0.3758 -0.3106 -0.3928
  136SAPE  H12A14699   1.525   5.694  11.334 -0.0483 -1.9502  1.6993
  136SAPE  H12B14700   1.454   5.543  11.338  0.7666  1.0820  1.2346
  136SAPE   C1114701   1.370   5.664  11.173 -0.8387 -0.0617  0.2753
  136SAPE  H11A14702   1.395   5.753  11.112  0.5077  1.0839  2.3415
  136SAPE  H11B14703   1.287   5.710  11.232  0.2653  3.8519 -0.9469
  136SAPE     P14704   1.167   5.531  11.059  0.2075 -0.4636  0.0834
  136SAPE   O1314705   1.108   5.412  11.123 -0.4469  0.2182  0.3097
  136SAPE   O1414706   1.090   5.653  11.082  0.4467  0.6851 -0.3854
  136SAPE   O1214707   1.321   5.553  11.089  0.7254  0.0279  0.1471
  136SAPE   O1114708   1.177   5.501  10.907 -0.4660  0.0541 -0.0453
  136SAPE    C114709   1.140   5.591  10.799  0.3771 -0.3968 -0.3732
  136SAPE    HA14710   1.030   5.590  10.782  0.4223  2.2435 -1.3218
  136SAPE    HB14711   1.181   5.693  10.821  0.5663 -0.5972  0.2392
  136SAPE    C214712   1.190   5.540  10.666 -0.5582 -0.4969 -0.7058
  136SAPE    HS14713   1.140   5.444  10.644 -2.0653 -0.1759  0.9845
  136SAPE   O2114714   1.334   5.531  10.666  0.4052  0.4991 -0.1035
  136SAPE   C2114715   1.379   5.437  10.586 -0.2533  0.1974 -0.2460
  136SAPE   O2214716   1.316   5.357  10.514 -0.1023 -0.7429  0.2986
  136SAPE   C2214717   1.533   5.437  10.606 -0.2581 -0.1803 -0.4124
  136SAPE   H2R14718   1.559   5.511  10.684 -0.0972 -1.9472  1.2936
  136SAPE   H2S14719   1.561   5.336  10.642 -0.3919 -0.9091 -2.2544
  136SAPE    C314720   1.146   5.638  10.553 -0.0255 -0.2641  0.3411
  136SAPE    HX14721   1.182   5.742  10.565 -2.3752  0.3867  2.6541
  136SAPE    HY14722   1.036   5.652  10.566  0.2206  1.4186  0.8256
  136SAPE   O3114723   1.168   5.590  10.419 -0.6311 -0.1261 -0.3107
  136SAPE   C3114724   1.080   5.498  10.380 -0.4474  0.0730 -0.0537
  136SAPE   O3214725   0.979   5.466  10.450  0.1855 -0.7120  0.2399
  136SAPE   C3214726   1.132   5.429  10.251  0.3358 -0.1502  0.7535
  136SAPE   H2X14727   1.217   5.359  10.268  1.0930  0.6541  0.3383
  136SAPE   H2Y14728   1.184   5.509  10.195 -0.6025 -0.4789 -0.6385
  136SAPE   C2314729   1.624   5.475  10.492  1.1966  0.0439 -0.4208
  136SAPE   H3R14730   1.619   5.376  10.443  0.3652 -0.0557 -0.1493
  136SAPE   H3S14731   1.728   5.479  10.530  0.6968  1.7211  0.9091
  136SAPE   C2414732   1.601   5.605  10.429 -0.3332 -0.5482 -0.7368
  136SAPE   H4R14733   1.703   5.637  10.399 -0.3222 -0.3545 -0.5020
  136SAPE   H4S14734   1.579   5.687  10.501  0.1049  0.1697 -1.4002
  136SAPE   C2514735   1.502   5.604  10.320 -0.7412 -0.0501 -0.5167
  136SAPE   H5R14736   1.398   5.589  10.354 -0.5691 -1.9627 -0.7637
  136SAPE   C2614737   1.525   5.600  10.189  0.2840 -0.5762 -0.5952
  136SAPE   H6R14738   1.444   5.593  10.115 -1.7186  2.2073  1.1201
  136SAPE   C2714739   1.667   5.607  10.133 -0.4197 -0.8477  0.2156
  136SAPE   H7R14740   1.684   5.550  10.040  2.7141  0.5346 -0.2041
  136SAPE   H7S14741   1.739   5.552  10.198  0.8676  1.2780  0.6814
  136SAPE   C2814742   1.712   5.755  10.118 -0.2262 -0.5288 -0.2077
  136SAPE   H8R14743   1.675   5.828  10.192 -0.1087  0.5053 -1.1359
  136SAPE   C2914744   1.812   5.804  10.044  0.2679 -0.6809  0.3525
  136SAPE   H9R14745   1.836   5.912  10.041 -0.9615 -0.3948  0.0996
  136SAPE  C21014746   1.897   5.730   9.941  0.2916 -0.3639 -0.1754
  136SAPE  H10R14747   1.886   5.622   9.964  1.0095  0.1884  3.5452
  136SAPE  H10S14748   2.005   5.739   9.962  0.4160 -1.7487 -0.1365
  136SAPE  C21114749   1.868   5.751   9.793  0.4735  0.0822 -0.7661
  136SAPE  H11R14750   1.923   5.832   9.743  0.1442  0.3757 -0.6548
  136SAPE  C21214751   1.781   5.683   9.712 -0.1042  0.2502  0.2877
  136SAPE  H12R14752   1.779   5.707   9.605 -1.2132  1.2912  0.5267
  136SAPE  C21314753   1.684   5.581   9.751  0.5726  0.0560 -0.3316
  136SAPE  H13R14754   1.612   5.618   9.827  0.4191  0.0499 -0.4756
  136SAPE  H13S14755   1.738   5.509   9.816  2.4628  1.5559 -0.1505
  136SAPE  C21414756   1.625   5.497   9.638  0.2091 -0.2928  0.0455
  136SAPE  H14R14757   1.676   5.510   9.541  2.2371  1.8140  1.2827
  136SAPE  C21514758   1.515   5.418   9.653 -0.2183 -0.6763  1.1595
  136SAPE  H15R14759   1.471   5.363   9.569 -1.2444  1.1023  0.5002
  136SAPE  C21614760   1.438   5.381   9.777  0.1999 -0.3377  0.3238
  136SAPE  H16R14761   1.329   5.386   9.753  0.0041  3.3035  1.3355
  136SAPE  H16S14762   1.460   5.462   9.850  2.1141  1.8871 -2.4877
  136SAPE  C21714763   1.469   5.258   9.856 -0.0807 -0.2933  0.0786
  136SAPE  H17R14764   1.574   5.236   9.828 -0.0604 -0.5365  0.3370
  136SAPE  H17S14765   1.419   5.174   9.803 -1.0903  1.1047 -1.2862
  136SAPE  C21814766   1.452   5.268  10.007 -0.3353  0.4544 -0.6544
  136SAPE  H18R14767   1.349   5.291  10.043 -0.2230 -0.6046  0.4316
  136SAPE  H18S14768   1.521   5.347  10.044  0.3429  0.0708 -1.0801
  136SAPE  C21914769   1.505   5.138  10.077 -0.0085 -0.3670 -0.0182
  136SAPE  H19R14770   1.603   5.111  10.032 -0.2818 -2.3590  0.4726
  136SAPE  H19S14771   1.442   5.051  10.052  0.3342 -0.1266 -1.8352
  136SAPE  C22014772   1.519   5.163  10.225  0.3802 -0.0081 -0.2086
  136SAPE  H20R14773   1.423   5.198  10.268  0.4057  0.9106 -0.8508
  136SAPE  H20S14774   1.606   5.232  10.236 -0.2731  0.7121  0.5841
  136SAPE  H20T14775   1.542   5.065  10.271 -1.7876 -0.9570 -1.0009
  136SAPE   C3314776   1.021   5.352  10.164  0.1367  0.2420 -0.5837
  136SAPE   H3X14777   0.949   5.307  10.235  2.6522  0.1311  2.0793
  136SAPE   H3Y14778   1.066   5.272  10.100 -0.6399 -1.5767  1.0349
  136SAPE   C3414779   0.946   5.447  10.062 -0.0709 -0.3201 -0.5303
  136SAPE   H4X14780   1.022   5.515  10.018  1.9196 -1.2775  1.2564
  136SAPE   H4Y14781   0.869   5.504  10.119 -1.0645 -2.7168  0.6800
  136SAPE   C3514782   0.859   5.381   9.954 -0.0211  0.5998  0.8336
  136SAPE   H5X14783   0.802   5.463   9.904  1.0778 -0.9073 -3.2936
  136SAPE   H5Y14784   0.797   5.295   9.987  0.6096 -0.6479 -1.0516
  136SAPE   C3614785   0.963   5.330   9.848 -0.4347  0.9468  1.2237
  136SAPE   H6X14786   1.026   5.249   9.891  0.2906  0.6134 -0.3773
  136SAPE   H6Y14787   1.024   5.413   9.808  1.2037  0.1726  2.0365
  136SAPE   C3714788   0.888   5.274   9.725 -0.5332  0.0079  0.2955
  136SAPE   H7X14789   0.839   5.351   9.662  0.2299  0.1134 -0.1825
  136SAPE   H7Y14790   0.807   5.210   9.767 -0.8020  0.4568  0.4664
  136SAPE   C3814791   0.979   5.194   9.642 -0.3324  0.0797 -0.5444
  136SAPE   H8X14792   0.927   5.111   9.589  0.2689  0.4181 -1.7005
  136SAPE   H8Y14793   1.059   5.152   9.707 -1.9392 -0.9898  0.8300
  136SAPE   C3914794   1.048   5.274   9.534 -0.1808 -0.9222 -0.8466
  136SAPE   H9X14795   1.078   5.372   9.578 -0.7729 -1.0941 -0.0249
  136SAPE   H9Y14796   0.969   5.301   9.460 -0.3563  3.2837  0.5882
  136SAPE  C31014797   1.181   5.213   9.477  0.4968 -0.0552 -0.1304
  136SAPE  H10X14798   1.256   5.222   9.558 -0.8315  2.0218  0.9229
  136SAPE  H10Y14799   1.218   5.278   9.394  3.1611 -0.2356  0.8362
  136SAPE  C31114800   1.171   5.071   9.424  0.3314  0.6321  0.7060
  136SAPE  H11X14801   1.150   5.005   9.511 -0.1336  0.2351  0.3003
  136SAPE  H11Y14802   1.272   5.043   9.385  2.0274  3.4377  2.6997
  136SAPE  C31214803   1.061   5.048   9.316  0.2623  0.4296  0.1014
  136SAPE  H12X14804   0.957   5.067   9.350  0.1097  2.0914 -1.1403
  136SAPE  H12Y14805   1.078   4.941   9.292  2.2181  0.6744  0.2531
  136SAPE  C31314806   1.070   5.126   9.183 -0.0129 -0.1821 -0.3985
  136SAPE  H13X14807   1.179   5.135   9.163  0.0501 -2.1889 -1.1335
  136SAPE  H13Y14808   1.034   5.231   9.178 -0.9536 -0.4382  0.8051
  136SAPE  C31414809   1.007   5.050   9.061  0.6433 -0.1404 -0.1343
  136SAPE  H14X14810   0.900   5.032   9.086  0.7798 -2.4080 -0.9376
  136SAPE  H14Y14811   1.067   4.957   9.051  0.5518 -0.3377  1.0116
  136SAPE  C31514812   1.015   5.134   8.931 -1.4177 -0.1772 -0.0342
  136SAPE  H15X14813   1.122   5.159   8.913 -0.0874 -1.2901  4.8435
  136SAPE  H15Y14814   0.947   5.221   8.928  0.3265  1.2313 -0.4481
  136SAPE  C31614815   0.972   5.056   8.798 -0.1970  0.9884  0.0461
  136SAPE  H16X14816   0.863   5.035   8.792  0.3007 -2.3085  0.7230
  136SAPE  H16Y14817   1.005   4.950   8.801  1.4637  1.4207 -1.4553
  136SAPE  C31714818   1.025   5.120   8.672 -0.0480 -0.1058  0.2703
  136SAPE  H17X14819   1.014   5.051   8.586  0.9715 -0.0258  0.0674
  136SAPE  H17Y14820   1.131   5.150   8.684 -0.4519  1.7494 -0.3715
  136SAPE  C31814821   0.961   5.261   8.639 -0.3456  0.0412  0.1998
  136SAPE  H18X14822   0.999   5.308   8.545  1.6423 -2.8444 -0.6109
  136SAPE  H18Y14823   0.978   5.335   8.719  0.6558 -0.6641  0.6641
  136SAPE  H18Z14824   0.852   5.253   8.620  0.2294 -2.3673 -2.8501
  137SAPE     N14825   4.577   3.469  10.714  0.0622 -0.0030 -0.3800
  137SAPE   HN114826   4.473   3.465  10.705  0.0876  0.7152 -1.1822
  137SAPE   HN214827   4.593   3.545  10.784  2.7802  0.4536 -1.3779
  137SAPE   HN314828   4.605   3.512  10.623  1.2428  3.3228  1.4107
  137SAPE   C1214829   4.635   3.332  10.739  0.6995 -0.1517  0.5241
  137SAPE  H12A14830   4.619   3.317  10.848  1.0587  0.8154  0.7225
  137SAPE  H12B14831   4.740   3.329  10.700  0.6190 -2.6102  0.3404
  137SAPE   C1114832   4.561   3.223  10.655  0.0303  0.0883  0.3244
  137SAPE  H11A14833   4.557   3.253  10.548 -0.2033  0.5555  0.4621
  137SAPE  H11B14834   4.459   3.227  10.699 -0.3531 -0.4131 -0.5027
  137SAPE     P14835   4.605   2.999  10.792  0.6129 -0.0992  0.0257
  137SAPE   O1314836   4.650   3.056  10.921 -0.3704  0.2635  0.1311
  137SAPE   O1414837   4.465   2.948  10.790 -0.5625  0.1807  0.4081
  137SAPE   O1214838   4.621   3.098  10.670 -0.8483  0.4865 -0.1693
  137SAPE   O1114839   4.703   2.877  10.760 -0.2004 -0.5216 -0.0669
  137SAPE    C114840   4.845   2.902  10.740  0.4001 -0.1472  0.1285
  137SAPE    HA14841   4.877   3.009  10.750  0.6314 -0.0994 -1.0150
  137SAPE    HB14842   4.889   2.850  10.827 -0.4609  1.7522  1.7908
  137SAPE    C214843   4.907   2.841  10.605  1.0713 -1.1909 -0.1621
  137SAPE    HS14844   5.012   2.876  10.599  0.9624 -0.5408  1.2919
  137SAPE   O2114845   4.827   2.894  10.496 -0.6189  0.5823 -0.1465
  137SAPE   C2114846   4.846   3.024  10.472 -0.2569  0.2584 -0.0768
  137SAPE   O2214847   4.923   3.098  10.530  0.4205 -0.6243 -0.2593
  137SAPE   C2214848   4.754   3.058  10.353 -0.2159 -0.1428  0.7715
  137SAPE   H2R14849   4.781   3.000  10.262 -0.3973  0.1263  0.5420
  137SAPE   H2S14850   4.652   3.038  10.394 -1.4078  1.0899 -1.3801
  137SAPE    C314851   4.894   2.681  10.605 -0.1182 -0.1142 -0.1453
  137SAPE    HX14852   4.805   2.655  10.666  0.1139 -0.2704  0.1273
  137SAPE    HY14853   4.985   2.653  10.663  1.2400  1.5436 -1.3608
  137SAPE   O3114854   4.878   2.620  10.475  0.0857 -0.3205  0.0449
  137SAPE   C3114855   4.993   2.580  10.417 -0.7889  0.4845 -0.1415
  137SAPE   O3214856   5.108   2.598  10.457 -0.3672  0.2038 -0.1728
  137SAPE   C3214857   4.954   2.516  10.283  0.4535 -0.1393 -0.9197
  137SAPE   H2X14858   4.860   2.566  10.252 -0.3059 -0.3678  0.8745
  137SAPE   H2Y14859   4.919   2.414  10.309 -0.3165  0.8574  2.4943
  137SAPE   C2314860   4.764   3.216  10.327  1.0013  0.3529 -0.4134
  137SAPE   H3R14861   4.872   3.231  10.304  1.4768 -1.0238  0.7253
  137SAPE   H3S14862   4.742   3.272  10.421 -3.4451  1.0558 -1.6415
  137SAPE   C2414863   4.662   3.255  10.216  0.1801  0.7546  0.2967
  137SAPE   H4R14864   4.561   3.239  10.261  0.8958 -1.2722  1.2862
  137SAPE   H4S14865   4.667   3.179  10.135  2.4138  1.2991 -0.1424
  137SAPE   C2514866   4.683   3.401  10.170  0.4233 -0.1354 -0.0110
  137SAPE   H5R14867   4.733   3.465  10.244  0.2217  0.1915 -0.1544
  137SAPE   C2614868   4.648   3.458  10.053 -0.2895  0.0354 -0.6350
  137SAPE   H6R14869   4.673   3.564  10.040 -0.3868  0.0637 -0.5932
  137SAPE   C2714870   4.583   3.393   9.941 -0.5909  0.1841  0.2247
  137SAPE   H7R14871   4.628   3.292   9.934  1.6868  1.2381 -4.0469
  137SAPE   H7S14872   4.626   3.452   9.857 -1.7992  1.9808  0.8063
  137SAPE   C2814873   4.434   3.383   9.945 -0.1626  0.2972  0.1804
  137SAPE   H8R14874   4.385   3.399  10.043  1.0851 -3.0432  1.4925
  137SAPE   C2914875   4.358   3.349   9.842  0.0459 -0.4272  0.3161
  137SAPE   H9R14876   4.251   3.343   9.866 -0.3039  2.3273 -0.3158
  137SAPE  C21014877   4.396   3.320   9.698 -0.1536  0.0954 -0.2693
  137SAPE  H10R14878   4.446   3.223   9.679 -0.8013 -0.4385  0.6778
  137SAPE  H10S14879   4.466   3.396   9.657 -1.1803  0.8594 -0.6351
  137SAPE  C21114880   4.277   3.319   9.598 -0.4113  0.1909 -0.1722
  137SAPE  H11R14881   4.192   3.381   9.628  1.4300  1.9772  1.6322
  137SAPE  C21214882   4.257   3.242   9.481 -0.5366 -0.9136  0.2849
  137SAPE  H12R14883   4.163   3.263   9.428  0.4193 -0.2881 -1.2551
  137SAPE  C21314884   4.355   3.152   9.413 -1.0022  0.1137  0.8432
  137SAPE  H13R14885   4.309   3.051   9.420 -0.2484 -0.2390  0.7855
  137SAPE  H13S14886   4.450   3.150   9.470 -1.0151 -0.3101  0.8545
  137SAPE  C21414887   4.381   3.181   9.267 -0.6299 -0.4070  0.7360
  137SAPE  H14R14888   4.442   3.272   9.254 -2.7802  0.8328 -1.4352
  137SAPE  C21514889   4.338   3.126   9.146 -0.3690 -0.2274 -0.3876
  137SAPE  H15R14890   4.384   3.170   9.056  0.0002  0.3413  0.0749
  137SAPE  C21614891   4.246   3.008   9.125  0.7292  0.1456 -0.4607
  137SAPE  H16R14892   4.139   3.037   9.122  0.2153 -1.5975 -0.2903
  137SAPE  H16S14893   4.265   2.934   9.206  1.2829  0.6423 -0.1303
  137SAPE  C21714894   4.272   2.924   8.994 -0.3135 -0.5105  0.0042
  137SAPE  H17R14895   4.357   2.856   9.015 -0.9205 -2.2420 -2.6754
  137SAPE  H17S14896   4.295   2.998   8.915  1.4861 -0.2475  0.7257
  137SAPE  C21814897   4.153   2.829   8.970  0.0803  0.2987  0.5519
  137SAPE  H18R14898   4.068   2.899   8.957  0.9761  1.5612  1.3366
  137SAPE  H18S14899   4.141   2.757   9.053 -2.3284 -0.9793 -0.7849
  137SAPE  C21914900   4.171   2.752   8.835  0.0978 -0.0559  0.2925
  137SAPE  H19R14901   4.097   2.673   8.812  1.1480 -0.1505 -3.4339
  137SAPE  H19S14902   4.254   2.683   8.862 -2.5517 -2.6584  2.4655
  137SAPE  C22014903   4.197   2.845   8.714  0.1514  0.1769 -0.4138
  137SAPE  H20R14904   4.202   2.782   8.623 -2.0251 -0.3682 -0.2091
  137SAPE  H20S14905   4.297   2.894   8.719  0.5928 -0.4770 -2.2105
  137SAPE  H20T14906   4.119   2.923   8.698  0.7770  0.8377 -0.2908
  137SAPE   C3314907   5.059   2.514  10.174  0.1527  0.4753 -1.1140
  137SAPE   H3X14908   5.150   2.456  10.201 -0.5085  0.5754  1.5591
  137SAPE   H3Y14909   5.091   2.619  10.158  2.6238 -0.0437 -0.0042
  137SAPE   C3414910   4.992   2.459  10.039 -0.1316 -0.1802  0.0423
  137SAPE   H4X14911   4.883   2.456  10.059  0.1347 -0.8245  1.6202
  137SAPE   H4Y14912   5.026   2.356  10.013 -1.6984 -0.7208  0.0312
  137SAPE   C3514913   5.010   2.550   9.912  0.4190  0.3140 -0.4381
  137SAPE   H5X14914   5.115   2.585   9.906 -0.0213  1.9592  0.7779
  137SAPE   H5Y14915   4.957   2.648   9.925 -1.5550 -0.5066 -1.7451
  137SAPE   C3614916   4.963   2.493   9.772 -0.2376  0.3341 -0.4037
  137SAPE   H6X14917   4.853   2.487   9.766 -0.1045 -2.4728 -1.7242
  137SAPE   H6Y14918   5.000   2.389   9.759 -0.2557  0.3574 -0.6349
  137SAPE   C3714919   4.995   2.577   9.648  0.1949  0.3709 -0.3713
  137SAPE   H7X14920   5.098   2.614   9.666  1.1103 -3.0815  2.8419
  137SAPE   H7Y14921   4.941   2.670   9.622 -0.7646 -0.0020  0.2433
  137SAPE   C3814922   5.007   2.490   9.515 -0.1060 -0.8166  0.1196
  137SAPE   H8X14923   4.916   2.433   9.486 -0.2529 -0.4778 -0.0924
  137SAPE   H8Y14924   5.083   2.414   9.540  0.0043 -0.8881 -0.4255
  137SAPE   C3914925   5.063   2.580   9.394  0.6660  0.0253 -0.4041
  137SAPE   H9X14926   5.155   2.631   9.429  0.2439  1.5577 -1.4157
  137SAPE   H9Y14927   4.978   2.649   9.375 -1.9503 -2.4219  1.5544
  137SAPE  C31014928   5.087   2.492   9.272 -0.1544 -0.5708  0.2740
  137SAPE  H10X14929   4.998   2.431   9.247  0.1757 -1.1604  0.5270
  137SAPE  H10Y14930   5.175   2.426   9.288 -1.0043 -1.6550  0.5595
  137SAPE  C31114931   5.111   2.583   9.146  0.3155 -0.3527  1.1084
  137SAPE  H11X14932   5.163   2.679   9.167  0.8757 -0.5724  0.7552
  137SAPE  H11Y14933   5.009   2.615   9.119  0.4697 -0.1408  0.7719
  137SAPE  C31214934   5.159   2.517   9.016  0.2695 -0.8938  0.2994
  137SAPE  H12X14935   5.116   2.585   8.939 -2.2769  1.5530  3.5447
  137SAPE  H12Y14936   5.147   2.408   9.004  1.7144 -0.9972 -0.4032
  137SAPE  C31314937   5.314   2.542   8.999 -0.0714 -0.2345  0.4597
  137SAPE  H13X14938   5.336   2.648   9.021  2.0471 -0.4091 -0.5481
  137SAPE  H13Y14939   5.335   2.544   8.890  0.9524 -0.3899  0.6454
  137SAPE  C31414940   5.414   2.441   9.056 -0.8055  0.2221 -0.7799
  137SAPE  H14X14941   5.398   2.342   9.009  1.0691  0.4747 -2.0547
  137SAPE  H14Y14942   5.396   2.423   9.164  1.1432 -0.8356 -0.5890
  137SAPE  C31514943   5.569   2.486   9.042 -0.0171  0.4245 -0.0919
  137SAPE  H15X14944   5.627   2.432   9.120  0.1798  0.8082  0.0301
  137SAPE  H15Y14945   5.573   2.597   9.051  0.3150  0.2927  1.7350
  137SAPE  C31614946   5.632   2.450   8.906  0.5619 -0.5865  0.3771
  137SAPE  H16X14947   5.554   2.473   8.831 -0.4670  0.3405  1.6953
  137SAPE  H16Y14948   5.647   2.340   8.902  1.0541 -0.5073 -0.1461
  137SAPE  C31714949   5.769   2.517   8.878  0.0289 -1.4508 -0.3038
  137SAPE  H17X14950   5.852   2.505   8.950  0.3387  0.6659 -0.2538
  137SAPE  H17Y14951   5.742   2.625   8.883  0.4203 -1.3240 -0.8752
  137SAPE  C31814952   5.821   2.481   8.736  0.2826 -0.2510 -0.0249
  137SAPE  H18X14953   5.814   2.374   8.710 -0.6161 -0.1733 -0.1290
  137SAPE  H18Y14954   5.928   2.509   8.721  0.0855  0.2987 -0.3974
  137SAPE  H18Z14955   5.777   2.541   8.654  0.6476  2.6957  1.7688
  138SAPE     N14956   2.266   0.932  11.009 -0.0107  0.1658 -0.1272
  138SAPE   HN114957   2.369   0.948  11.017  0.2579  0.9783 -3.8027
  138SAPE   HN214958   2.232   1.013  10.953 -2.1424 -0.1215  0.6454
  138SAPE   HN314959   2.235   0.929  11.109  1.7884  0.1213  0.4790
  138SAPE   C1214960   2.229   0.806  10.939  0.2791 -0.2739 -0.1207
  138SAPE  H12A14961   2.127   0.782  10.975  0.1115  1.1932  0.4266
  138SAPE  H12B14962   2.299   0.729  10.979 -0.9800 -0.7699  1.1831
  138SAPE   C1114963   2.247   0.840  10.786  0.0005  0.5309  0.0801
  138SAPE  H11A14964   2.173   0.912  10.745  0.6957  1.4572  0.3976
  138SAPE  H11B14965   2.238   0.748  10.725  2.8707  0.8695 -1.0535
  138SAPE     P14966   2.502   0.806  10.736 -0.1173  0.0291  0.3950
  138SAPE   O1314967   2.626   0.881  10.770 -0.1909 -0.2188  0.0428
  138SAPE   O1414968   2.490   0.665  10.799 -0.2412  0.3192  0.0599
  138SAPE   O1214969   2.378   0.902  10.769 -0.0756 -0.0248 -0.3209
  138SAPE   O1114970   2.504   0.790  10.577  0.2174  0.3087 -0.4289
  138SAPE    C114971   2.460   0.903  10.507 -0.5628 -0.4635  0.8160
  138SAPE    HA14972   2.389   0.877  10.426  0.3548 -1.9064  0.4485
  138SAPE    HB14973   2.424   0.989  10.568  1.0938  1.9556 -1.4187
  138SAPE    C214974   2.581   0.964  10.427  0.2367 -0.2676  0.8250
  138SAPE    HS14975   2.655   0.999  10.502  1.3610 -1.8073  0.4831
  138SAPE   O2114976   2.524   1.075  10.335  0.6584  0.4427  0.6434
  138SAPE   C2114977   2.613   1.167  10.326  0.5253  0.3046 -0.0249
  138SAPE   O2214978   2.720   1.165  10.375 -0.3660  0.1570 -0.0439
  138SAPE   C2214979   2.576   1.255  10.206 -0.2712 -0.1977 -0.6830
  138SAPE   H2R14980   2.666   1.261  10.142  0.3541 -0.1587  0.1850
  138SAPE   H2S14981   2.489   1.215  10.149  0.6502 -0.7340 -1.7345
  138SAPE    C314982   2.659   0.862  10.336 -0.4010  0.6745  0.0530
  138SAPE    HX14983   2.704   0.792  10.408 -1.6786  0.2234  0.4321
  138SAPE    HY14984   2.739   0.917  10.281 -1.0811  0.8685 -0.7880
  138SAPE   O3114985   2.562   0.791  10.255  0.5219 -0.1955  0.0453
  138SAPE   C3114986   2.531   0.844  10.135  0.3246  0.2474 -0.7437
  138SAPE   O3214987   2.575   0.946  10.087 -0.0563 -0.1373  0.7006
  138SAPE   C3214988   2.431   0.747  10.072  0.1346  0.4094 -0.6980
  138SAPE   H2X14989   2.338   0.741  10.132  0.5902  1.6521  0.1636
  138SAPE   H2Y14990   2.475   0.645  10.067 -1.1103 -0.2307  0.9055
  138SAPE   C2314991   2.547   1.390  10.261 -0.3736 -0.0329 -0.2624
  138SAPE   H3R14992   2.525   1.463  10.180  1.4777  1.2869  0.3479
  138SAPE   H3S14993   2.641   1.434  10.301  0.5169 -0.9657 -1.2635
  138SAPE   C2414994   2.445   1.400  10.374  0.1951 -0.4815 -0.0601
  138SAPE   H4R14995   2.452   1.498  10.426 -0.8133 -1.2277  1.5614
  138SAPE   H4S14996   2.471   1.329  10.456 -1.8314 -1.3791 -0.1283
  138SAPE   C2514997   2.310   1.376  10.326  0.6582 -0.4819 -0.7192
  138SAPE   H5R14998   2.300   1.269  10.301  3.1916 -0.4652 -2.1254
  138SAPE   C2614999   2.209   1.457  10.286 -0.2971  0.2342 -0.5694
  138SAPE   H6R15000   2.108   1.429  10.253 -1.7899  1.3732  2.5883
  138SAPE   C2715001   2.224   1.609  10.280 -0.5187 -0.3594  0.8114
  138SAPE   H7R15002   2.272   1.636  10.184 -0.5433 -1.1917  0.5594
  138SAPE   H7S15003   2.302   1.641  10.353 -1.3853  0.8595  1.2423
  138SAPE   C2815004   2.099   1.685  10.313 -0.2131 -0.1531 -0.1937
  138SAPE   H8R15005   2.057   1.677  10.414 -0.5715  0.4231 -0.2984
  138SAPE   C2915006   2.021   1.756  10.224  0.6178 -0.1522 -0.2602
  138SAPE   H9R15007   1.943   1.820  10.269  1.3449 -0.6794  1.9000
  138SAPE  C21015008   2.035   1.779  10.074  0.5729 -0.0131  0.6750
  138SAPE  H10R15009   1.940   1.770  10.017  1.9142  3.1719 -2.4682
  138SAPE  H10S15010   2.104   1.703  10.029  0.5860 -0.0647  0.7815
  138SAPE  C21115011   2.069   1.922  10.037 -0.2822  0.5147  0.6136
  138SAPE  H11R15012   2.062   1.999  10.115 -2.8296  0.3890  0.5683
  138SAPE  C21215013   2.115   1.956   9.913 -0.4990 -0.6375 -0.6803
  138SAPE  H12R15014   2.135   2.064   9.907 -1.8276 -0.2725  0.7769
  138SAPE  C21315015   2.135   1.869   9.793  0.2486  0.1773 -0.4073
  138SAPE  H13R15016   2.045   1.828   9.743  0.2589 -1.8983  1.0980
  138SAPE  H13S15017   2.175   1.768   9.818  1.9911  0.2124 -2.7670
  138SAPE  C21415018   2.231   1.946   9.711  0.6671 -0.2515  0.3605
  138SAPE  H14R15019   2.331   1.977   9.745  0.5486 -0.4419  0.9022
  138SAPE  C21515020   2.202   1.983   9.589  0.4043  0.0874  0.4513
  138SAPE  H15R15021   2.270   2.054   9.539 -0.1473  1.7440  1.9485
  138SAPE  C21615022   2.070   1.965   9.515  0.0065  0.0038 -0.1910
  138SAPE  H16R15023   2.001   2.040   9.560 -0.8493 -0.6297 -0.4331
  138SAPE  H16S15024   2.032   1.862   9.533 -1.5015  0.4375 -0.7677
  138SAPE  C21715025   2.064   1.989   9.361  0.1979  0.5661 -0.4783
  138SAPE  H17R15026   2.101   2.091   9.337  0.2410  1.2012  1.9410
  138SAPE  H17S15027   1.962   1.970   9.322  0.7508  0.4125 -1.8901
  138SAPE  C21815028   2.155   1.888   9.291  0.3741 -0.5834  0.0494
  138SAPE  H18R15029   2.105   1.790   9.302 -0.0369 -0.3921 -0.1020
  138SAPE  H18S15030   2.257   1.880   9.335  0.6183 -0.6936 -0.5312
  138SAPE  C21915031   2.184   1.924   9.145 -0.0041  0.1771 -0.5900
  138SAPE  H19R15032   2.241   1.841   9.098 -1.2518  0.4072 -2.6569
  138SAPE  H19S15033   2.241   2.019   9.151 -1.9099  1.3340  0.2947
  138SAPE  C22015034   2.050   1.937   9.069  0.9276  0.2380  0.5172
  138SAPE  H20R15035   2.062   1.941   8.959 -0.0886 -2.6406  0.2371
  138SAPE  H20S15036   2.000   2.031   9.099  0.4119  0.7819 -1.8914
  138SAPE  H20T15037   2.003   1.838   9.086  1.5809 -0.0106  0.9175
  138SAPE   C3315038   2.400   0.795   9.928  0.3361 -0.2415 -0.4541
  138SAPE   H3X15039   2.385   0.905   9.920 -1.1586 -0.3104  0.9649
  138SAPE   H3Y15040   2.320   0.739   9.876  2.2759 -2.6794 -0.9883
  138SAPE   C3415041   2.515   0.776   9.824  0.0442  0.3039 -0.1290
  138SAPE   H4X15042   2.489   0.682   9.770 -1.1782 -0.3864  1.5907
  138SAPE   H4Y15043   2.615   0.765   9.870  0.4561 -3.5362 -1.5324
  138SAPE   C3515044   2.522   0.892   9.723  0.0246 -0.1308  0.6277
  138SAPE   H5X15045   2.578   0.976   9.770 -2.3615  0.9913  1.6008
  138SAPE   H5Y15046   2.417   0.927   9.718 -0.6723 -1.3876  3.9740
  138SAPE   C3615047   2.586   0.866   9.589  0.1750 -0.5919 -0.0613
  138SAPE   H6X15048   2.566   0.760   9.561 -0.0663 -1.2328  2.2958
  138SAPE   H6Y15049   2.693   0.893   9.597 -0.0689  1.1476 -1.9960
  138SAPE   C3715050   2.531   0.954   9.469 -0.3865  0.3389 -0.4705
  138SAPE   H7X15051   2.543   1.060   9.499 -1.7439  0.4351 -0.2028
  138SAPE   H7Y15052   2.423   0.927   9.473 -0.4044  0.3704 -0.7256
  138SAPE   C3815053   2.605   0.918   9.336 -0.1624 -0.3713  0.1999
  138SAPE   H8X15054   2.565   0.817   9.314 -1.1490 -0.6183  2.7169
  138SAPE   H8Y15055   2.715   0.928   9.344 -0.1405  0.6097 -0.9907
  138SAPE   C3915056   2.566   1.014   9.225  0.6097  0.3356  0.2247
  138SAPE   H9X15057   2.559   1.114   9.273 -2.5916  0.1419  0.3827
  138SAPE   H9Y15058   2.463   0.991   9.191  1.4993 -1.0357 -1.7476
  138SAPE  C31015059   2.658   1.005   9.095  0.1809 -0.2857  0.1102
  138SAPE  H10X15060   2.657   0.896   9.074  0.4506  0.4495 -4.9346
  138SAPE  H10Y15061   2.758   1.041   9.127 -0.7928 -0.1487  3.2950
  138SAPE  C31115062   2.601   1.085   8.978  0.2497 -0.8297  0.0568
  138SAPE  H11X15063   2.613   1.194   8.995  1.1087 -0.7669 -0.8654
  138SAPE  H11Y15064   2.491   1.072   8.984  0.5521 -2.9295  2.3939
  138SAPE  C31215065   2.650   1.053   8.840 -0.7396  0.6813 -0.7047
  138SAPE  H12X15066   2.650   0.945   8.814  2.5310 -0.4877  3.1118
  138SAPE  H12Y15067   2.758   1.079   8.836 -0.3783 -0.7921 -1.4707
  138SAPE  C31315068   2.563   1.129   8.733 -0.3772  0.4195  0.0910
  138SAPE  H13X15069   2.562   1.234   8.772  0.5510  0.1911  0.7684
  138SAPE  H13Y15070   2.455   1.105   8.733 -0.5444  1.1301 -0.2778
  138SAPE  C31415071   2.630   1.104   8.593  0.4064 -0.6489 -0.6365
  138SAPE  H14X15072   2.634   0.994   8.582 -2.0369 -0.6954 -1.8132
  138SAPE  H14Y15073   2.734   1.143   8.597 -0.0929  0.6522  0.8909
  138SAPE  C31515074   2.563   1.170   8.476 -0.6779 -0.6692 -0.2710
  138SAPE  H15X15075   2.549   1.279   8.494  0.8325 -0.6656  1.2035
  138SAPE  H15Y15076   2.469   1.119   8.447 -1.1424  1.1892 -2.2477
  138SAPE  C31615077   2.647   1.157   8.352 -0.0359  0.2596 -0.4414
  138SAPE  H16X15078   2.685   1.053   8.342  1.9815  0.9446 -0.5004
  138SAPE  H16Y15079   2.734   1.224   8.369 -0.7889  0.9108  1.0132
  138SAPE  C31715080   2.564   1.190   8.221 -0.4365 -0.3800 -0.1821
  138SAPE  H17X15081   2.467   1.139   8.202 -0.4063 -0.3405 -0.4385
  138SAPE  H17Y15082   2.631   1.144   8.145  1.4481  0.0233  1.1908
  138SAPE  C31815083   2.562   1.334   8.189 -0.1167  0.2940 -0.2547
  138SAPE  H18X15084   2.593   1.368   8.087  1.5036 -0.7916 -0.1597
  138SAPE  H18Y15085   2.626   1.391   8.260 -2.6392  1.3379  1.3068
  138SAPE  H18Z15086   2.462   1.381   8.202 -0.2824  0.6969 -2.5239
  139SAPE     N15087   3.321   6.283  10.681 -0.0453 -0.2390 -0.6116
  139SAPE   HN115088   3.356   6.293  10.778 -0.5451  2.0174 -0.6003
  139SAPE   HN215089   3.232   6.229  10.680 -0.7276  0.8096  0.1759
  139SAPE   HN315090   3.401   6.239  10.632  2.4981  0.8070  2.2733
  139SAPE   C1215091   3.286   6.416  10.611 -0.4180  0.1029 -0.4213
  139SAPE  H12A15092   3.260   6.385  10.508  2.3856 -0.7818 -0.9547
  139SAPE  H12B15093   3.377   6.480  10.611  1.6187 -2.5946 -0.8196
  139SAPE   C1115094   3.175   6.490  10.684 -0.4507 -1.5226  0.4494
  139SAPE  H11A15095   3.084   6.427  10.674 -1.6769  0.3953 -1.5180
  139SAPE  H11B15096   3.152   6.575  10.616  1.1418 -0.8525  0.7125
  139SAPE     P15097   3.089   6.622  10.888  0.1364 -0.0261  0.5524
  139SAPE   O1315098   3.072   6.587  11.034 -0.4141 -0.0897 -0.0388
  139SAPE   O1415099   3.124   6.760  10.860  0.0674  0.3650  0.1849
  139SAPE   O1215100   3.197   6.529  10.815 -0.4455  0.3601 -0.1945
  139SAPE   O1115101   2.957   6.585  10.813 -0.7840  0.1538 -0.6146
  139SAPE    C115102   2.854   6.496  10.869 -0.1860 -0.0544 -0.0435
  139SAPE    HA15103   2.907   6.421  10.932 -0.0190  1.4950  1.7726
  139SAPE    HB15104   2.775   6.553  10.924 -0.7478  0.6504 -1.5389
  139SAPE    C215105   2.777   6.427  10.753 -0.4644 -0.8215 -0.2092
  139SAPE    HS15106   2.858   6.375  10.697 -0.3189 -1.1966  0.3351
  139SAPE   O2115107   2.715   6.527  10.673 -0.7171 -0.6414 -0.0086
  139SAPE   C2115108   2.754   6.540  10.544  0.0587 -0.3318 -0.5128
  139SAPE   O2215109   2.855   6.490  10.493  0.1568 -0.6235  0.3065
  139SAPE   C2215110   2.652   6.635  10.471  0.1200 -0.7431 -0.2856
  139SAPE   H2R15111   2.693   6.729  10.513  2.2276 -1.7384  0.0042
  139SAPE   H2S15112   2.680   6.616  10.366 -0.1738  2.4123 -1.0366
  139SAPE    C315113   2.678   6.322  10.796  0.3475  0.2492  0.0746
  139SAPE    HX15114   2.595   6.382  10.840 -1.1473 -0.7061 -1.3088
  139SAPE    HY15115   2.713   6.259  10.880 -0.6313 -0.5697 -0.1209
  139SAPE   O3115116   2.636   6.257  10.682 -0.1608 -0.2449  0.1170
  139SAPE   C3115117   2.721   6.174  10.625  0.4001  0.0246  0.5894
  139SAPE   O3215118   2.824   6.131  10.671 -0.4821  0.0991  1.0987
  139SAPE   C3215119   2.653   6.130  10.496  0.8764  0.2446 -0.5164
  139SAPE   H2X15120   2.628   6.215  10.430 -0.3209 -0.1355 -0.5803
  139SAPE   H2Y15121   2.562   6.080  10.537  0.9821 -0.9323 -1.6446
  139SAPE   C2315122   2.506   6.616  10.493  0.3524  0.4152  0.7856
  139SAPE   H3R15123   2.438   6.703  10.486 -0.5813 -0.3399  0.2535
  139SAPE   H3S15124   2.496   6.585  10.600 -0.4115 -0.0847  0.5790
  139SAPE   C2415125   2.454   6.486  10.429 -0.1491 -1.1582  0.0675
  139SAPE   H4R15126   2.359   6.459  10.479 -0.4689 -0.1317  0.0381
  139SAPE   H4S15127   2.535   6.413  10.450 -0.0990 -0.5449  2.2468
  139SAPE   C2515128   2.431   6.516  10.281 -0.1999 -0.1001  0.7800
  139SAPE   H5R15129   2.370   6.607  10.277  2.9767  2.1842  0.5580
  139SAPE   C2615130   2.480   6.461  10.164  0.1978 -1.0234 -0.5783
  139SAPE   H6R15131   2.452   6.508  10.069 -2.1741  1.5880  1.2407
  139SAPE   C2715132   2.579   6.349  10.165 -0.4136  0.6025  0.1007
  139SAPE   H7R15133   2.555   6.285  10.078 -0.9573  0.3563  0.4270
  139SAPE   H7S15134   2.556   6.282  10.250  1.0269 -1.3595 -0.9609
  139SAPE   C2815135   2.724   6.376  10.154  0.2407  0.2134  0.4582
  139SAPE   H8R15136   2.779   6.381  10.249  1.4774  0.6880 -0.2526
  139SAPE   C2915137   2.799   6.406  10.039  0.1627  0.2247 -0.2997
  139SAPE   H9R15138   2.907   6.422  10.048  0.4407 -0.5811 -1.7706
  139SAPE  C21015139   2.750   6.421   9.894 -0.3109 -0.5077  0.1647
  139SAPE  H10R15140   2.780   6.524   9.864 -0.2897 -0.2336  1.1017
  139SAPE  H10S15141   2.640   6.429   9.887 -0.1805  1.2398 -0.3781
  139SAPE  C21115142   2.813   6.315   9.805  0.1202 -0.5234 -0.1230
  139SAPE  H11R15143   2.829   6.217   9.853 -0.4960 -0.1393  0.9114
  139SAPE  C21215144   2.824   6.325   9.674 -0.3527  0.1900  0.7899
  139SAPE  H12R15145   2.878   6.246   9.621 -0.8719  1.9073 -2.5551
  139SAPE  C21315146   2.780   6.445   9.586  0.1274  0.2067 -1.0083
  139SAPE  H13R15147   2.792   6.539   9.643  3.4759 -2.0561  2.4739
  139SAPE  H13S15148   2.676   6.429   9.549  0.7993 -0.9312 -2.5359
  139SAPE  C21415149   2.876   6.448   9.476 -0.8206  0.0424 -0.8089
  139SAPE  H14R15150   2.970   6.497   9.507 -1.3962  0.4297  0.3695
  139SAPE  C21515151   2.853   6.412   9.352 -0.0128  0.0831  0.2250
  139SAPE  H15R15152   2.923   6.433   9.270 -0.5819  0.2176 -0.2323
  139SAPE  C21615153   2.717   6.362   9.294  0.1895 -0.6679 -0.6220
  139SAPE  H16R15154   2.656   6.316   9.374 -0.3829 -0.2535 -0.8125
  139SAPE  H16S15155   2.730   6.283   9.217  0.3904 -1.2241 -0.0275
  139SAPE  C21715156   2.638   6.485   9.243 -0.3846  0.4809 -0.3465
  139SAPE  H17R15157   2.612   6.555   9.325 -0.1850  0.5452 -0.3359
  139SAPE  H17S15158   2.539   6.443   9.215  1.1091 -1.7436 -2.6908
  139SAPE  C21815159   2.685   6.555   9.112  0.2409 -0.4883  1.0449
  139SAPE  H18R15160   2.712   6.479   9.035 -2.9686 -0.0850 -0.6911
  139SAPE  H18S15161   2.776   6.618   9.122 -0.4009  0.3537  1.6659
  139SAPE  C21915162   2.578   6.649   9.053  0.1849  0.1630  0.1381
  139SAPE  H19R15163   2.484   6.591   9.041  2.0296 -3.1197  0.4507
  139SAPE  H19S15164   2.600   6.663   8.945  1.8202 -2.6213  0.0235
  139SAPE  C22015165   2.554   6.784   9.117 -0.3375  0.5007 -0.5161
  139SAPE  H20R15166   2.650   6.838   9.128  0.4588 -0.7901 -0.8749
  139SAPE  H20S15167   2.509   6.760   9.216 -0.3127 -1.3211 -0.8998
  139SAPE  H20T15168   2.483   6.850   9.063 -1.3885  0.7287  1.0628
  139SAPE   C3315169   2.745   6.046  10.401  0.0120  0.5894 -0.0145
  139SAPE   H3X15170   2.812   5.977  10.457 -1.1396  0.6313  1.4519
  139SAPE   H3Y15171   2.815   6.122  10.360 -0.0359  0.6812  0.0745
  139SAPE   C3415172   2.671   5.975  10.287  0.1421 -0.0111 -0.0246
  139SAPE   H4X15173   2.587   6.042  10.259  0.2296  0.6766  1.2874
  139SAPE   H4Y15174   2.622   5.886  10.331  0.0422  0.3390  0.5948
  139SAPE   C3515175   2.753   5.944  10.163 -0.1490  0.0345 -0.0442
  139SAPE   H5X15176   2.831   5.868  10.185 -1.8497 -1.8470 -0.1865
  139SAPE   H5Y15177   2.777   6.034  10.103  1.3415 -0.2117  0.1431
  139SAPE   C3615178   2.652   5.867  10.058  0.1608  0.0801 -0.1778
  139SAPE   H6X15179   2.571   5.941  10.043  1.2191  1.4992  0.8186
  139SAPE   H6Y15180   2.603   5.780  10.105  1.4239 -0.3949  0.3091
  139SAPE   C3715181   2.718   5.834   9.919 -0.1210 -0.1160 -0.0198
  139SAPE   H7X15182   2.793   5.754   9.935  0.6437  0.3519 -1.1667
  139SAPE   H7Y15183   2.745   5.935   9.880 -1.8959  1.0806  1.5947
  139SAPE   C3815184   2.614   5.785   9.823  0.1438 -0.1802 -0.1556
  139SAPE   H8X15185   2.527   5.852   9.814  1.5915  1.8022 -0.0812
  139SAPE   H8Y15186   2.565   5.694   9.864 -2.8440  0.7948 -1.2903
  139SAPE   C3915187   2.673   5.761   9.686 -0.3736 -0.4005 -0.1009
  139SAPE   H9X15188   2.756   5.687   9.686 -2.2681 -2.6364  0.3603
  139SAPE   H9Y15189   2.710   5.858   9.648  0.1872 -1.1240 -1.4745
  139SAPE  C31015190   2.578   5.706   9.581 -0.5086  0.8720 -0.1591
  139SAPE  H10X15191   2.505   5.787   9.558 -2.8141 -0.6638  1.3674
  139SAPE  H10Y15192   2.533   5.614   9.624 -0.9066  0.3706 -1.5695
  139SAPE  C31115193   2.638   5.659   9.451  0.4454 -0.6617  0.4522
  139SAPE  H11X15194   2.727   5.597   9.472  0.3781  0.1665  3.7101
  139SAPE  H11Y15195   2.669   5.750   9.395 -1.3577  0.7264  1.5832
  139SAPE  C31215196   2.543   5.591   9.361 -0.2950 -0.0037 -0.3762
  139SAPE  H12X15197   2.477   5.667   9.314  0.9911  0.1943 -1.9446
  139SAPE  H12Y15198   2.475   5.520   9.412  0.4304  0.0103  0.6471
  139SAPE  C31315199   2.611   5.529   9.234 -0.6463  0.4078  0.0373
  139SAPE  H13X15200   2.692   5.458   9.261 -0.1767  0.7872 -0.3769
  139SAPE  H13Y15201   2.671   5.610   9.189  0.0002 -0.1827 -0.1827
  139SAPE  C31415202   2.523   5.469   9.127 -0.0394  0.2037  0.2998
  139SAPE  H14X15203   2.445   5.544   9.103 -0.0476  0.4244  0.9899
  139SAPE  H14Y15204   2.461   5.385   9.166 -0.9030  1.7490  2.4231
  139SAPE  C31515205   2.597   5.442   8.996  0.9808  0.1231  0.3187
  139SAPE  H15X15206   2.646   5.344   9.015  0.5247 -0.0400  0.6727
  139SAPE  H15Y15207   2.675   5.518   8.976  2.8215 -1.8916 -0.5380
  139SAPE  C31615208   2.492   5.436   8.878  0.1111  0.2688  0.8434
  139SAPE  H16X15209   2.438   5.532   8.871 -1.2071 -0.5162 -5.1228
  139SAPE  H16Y15210   2.544   5.419   8.781 -2.6580  5.0513 -1.8478
  139SAPE  C31715211   2.381   5.338   8.890 -0.0658 -0.6644 -0.3069
  139SAPE  H17X15212   2.294   5.397   8.926  1.8629  1.6661  0.6981
  139SAPE  H17Y15213   2.412   5.251   8.952  3.3842  0.0795 -0.8008
  139SAPE  C31815214   2.338   5.278   8.750 -0.6334  0.4488  0.2168
  139SAPE  H18X15215   2.299   5.355   8.680  1.7753  2.5480  1.0453
  139SAPE  H18Y15216   2.262   5.196   8.756  1.9347 -2.1039 -0.0670
  139SAPE  H18Z15217   2.428   5.232   8.705 -1.2122 -0.0467 -0.4595
  140SAPE     N15218   6.012   3.637  11.148  0.8430  0.6388  0.3383
  140SAPE   HN115219   6.106   3.597  11.162  0.9209  0.7287  0.0803
  140SAPE   HN215220   6.003   3.729  11.195  1.0050 -0.1106  1.8953
  140SAPE   HN315221   5.938   3.582  11.196 -0.2904  0.3232 -1.6615
  140SAPE   C1215222   5.982   3.647  11.002  0.1725 -0.2484  0.0433
  140SAPE  H12A15223   6.011   3.551  10.954  1.5360  1.1257 -2.0013
  140SAPE  H12B15224   6.050   3.723  10.958 -0.7960 -0.2810 -1.5836
  140SAPE   C1115225   5.830   3.670  10.976  0.4426 -0.0377  0.2583
  140SAPE  H11A15226   5.813   3.638  10.871 -0.6413 -0.1679  0.4638
  140SAPE  H11B15227   5.795   3.774  10.962 -0.7480 -0.4880 -0.2557
  140SAPE     P15228   5.699   3.455  11.036 -0.2629 -0.3457 -0.2810
  140SAPE   O1315229   5.722   3.386  11.164  0.7868  0.1615  0.3455
  140SAPE   O1415230   5.559   3.445  10.986  0.0037  0.2865  0.3969
  140SAPE   O1215231   5.738   3.605  11.060  0.2588 -0.1507  0.3830
  140SAPE   O1115232   5.807   3.404  10.935 -0.0410 -0.1986  0.3271
  140SAPE    C115233   5.867   3.273  10.915 -0.2110  0.1777 -0.0312
  140SAPE    HA15234   5.971   3.265  10.953 -0.4752 -0.0409  0.6575
  140SAPE    HB15235   5.817   3.185  10.960 -1.6238  0.8203 -0.3070
  140SAPE    C215236   5.876   3.243  10.764  0.3947 -0.5754 -0.6016
  140SAPE    HS15237   5.907   3.137  10.755 -1.9458 -1.7952  3.3975
  140SAPE   O2115238   5.980   3.333  10.699 -0.3346  0.1114  0.3619
  140SAPE   C2115239   6.105   3.295  10.707  0.0478  1.1479  0.0443
  140SAPE   O2215240   6.146   3.189  10.761  0.2092 -0.6637 -0.3690
  140SAPE   C2215241   6.182   3.384  10.611  0.8684 -0.3717  0.0218
  140SAPE   H2R15242   6.122   3.406  10.520 -0.3165 -0.5632  0.7357
  140SAPE   H2S15243   6.203   3.483  10.656  0.2822 -0.1547 -0.1718
  140SAPE    C315244   5.732   3.269  10.706 -0.1608  0.3598  0.1790
  140SAPE    HX15245   5.719   3.379  10.714 -1.9555  0.2137 -0.2856
  140SAPE    HY15246   5.657   3.222  10.773 -0.5789  2.3833  1.2094
  140SAPE   O3115247   5.717   3.226  10.567 -0.0815 -0.1312  0.1284
  140SAPE   C3115248   5.606   3.273  10.508  0.9496  0.7016 -0.1231
  140SAPE   O3215249   5.521   3.337  10.567 -0.1079  0.0650 -0.1305
  140SAPE   C3215250   5.605   3.222  10.364  0.3746  0.2304 -0.0904
  140SAPE   H2X15251   5.598   3.111  10.365 -0.5526  0.2488 -1.5087
  140SAPE   H2Y15252   5.707   3.245  10.326  0.1864  2.4731  0.6037
  140SAPE   C2315253   6.299   3.304  10.546  0.0108  0.0088 -0.1355
  140SAPE   H3R15254   6.321   3.219  10.615  2.7746  0.1400 -0.7704
  140SAPE   H3S15255   6.381   3.378  10.540  0.6896 -0.6350  0.8823
  140SAPE   C2415256   6.275   3.250  10.402 -0.0904  0.4721 -0.0812
  140SAPE   H4R15257   6.264   3.335  10.331 -1.3224  1.5910  1.3554
  140SAPE   H4S15258   6.177   3.199  10.411  0.3865 -0.3097  0.8445
  140SAPE   C2515259   6.385   3.158  10.361 -0.2814 -0.0427 -0.1986
  140SAPE   H5R15260   6.451   3.122  10.442 -0.2197 -0.4295 -0.4163
  140SAPE   C2615261   6.414   3.119  10.235  0.3066  0.3902 -0.2941
  140SAPE   H6R15262   6.491   3.043  10.219 -0.7027 -0.6945 -0.1100
  140SAPE   C2715263   6.329   3.164  10.111 -0.1650  0.8608  0.4604
  140SAPE   H7R15264   6.224   3.172  10.145 -1.2003 -1.8482 -1.6596
  140SAPE   H7S15265   6.318   3.068  10.055 -3.5084 -0.6703  3.3114
  140SAPE   C2815266   6.376   3.282  10.039  0.0921  0.7716 -0.7284
  140SAPE   H8R15267   6.403   3.367  10.103  1.3015 -1.3777  1.7683
  140SAPE   C2915268   6.395   3.303   9.909  0.3293 -0.6230 -0.1141
  140SAPE   H9R15269   6.437   3.401   9.880 -3.7100  0.9958 -1.1768
  140SAPE  C21015270   6.374   3.212   9.792  0.6078 -0.0987 -0.1080
  140SAPE  H10R15271   6.341   3.115   9.836 -2.3508  0.5524 -0.6172
  140SAPE  H10S15272   6.471   3.191   9.742  1.1277 -0.6064  1.0747
  140SAPE  C21115273   6.268   3.277   9.712 -0.3681 -0.3485  0.7565
  140SAPE  H11R15274   6.181   3.306   9.773  0.2279  0.8117  1.0786
  140SAPE  C21215275   6.275   3.289   9.573 -0.5785  0.1037  0.3759
  140SAPE  H12R15276   6.191   3.335   9.519  0.0853  2.4331  1.2092
  140SAPE  C21315277   6.384   3.251   9.469 -0.2768  0.3935 -0.0534
  140SAPE  H13R15278   6.478   3.236   9.527  0.4752  2.5925 -0.5691
  140SAPE  H13S15279   6.410   3.342   9.410 -0.7020 -0.1677 -1.1449
  140SAPE  C21415280   6.362   3.140   9.376 -0.5483 -0.0107 -0.5632
  140SAPE  H14R15281   6.428   3.053   9.389  1.1598  0.7490 -3.4449
  140SAPE  C21515282   6.277   3.139   9.274  0.3204 -0.3590  0.1375
  140SAPE  H15R15283   6.251   3.052   9.211 -0.2549 -0.1441  0.0648
  140SAPE  C21615284   6.182   3.252   9.249  0.3575 -0.1150 -0.0002
  140SAPE  H16R15285   6.230   3.345   9.289  1.0230 -0.7543  0.7149
  140SAPE  H16S15286   6.087   3.224   9.297  0.0095 -1.1733 -1.2486
  140SAPE  C21715287   6.152   3.284   9.096 -0.2442 -0.4906  0.3245
  140SAPE  H17R15288   6.248   3.296   9.042 -1.2372  2.2651 -1.0291
  140SAPE  H17S15289   6.105   3.385   9.094 -1.6739 -1.1477 -0.4594
  140SAPE  C21815290   6.060   3.200   9.021  0.3324  0.6841  0.5326
  140SAPE  H18R15291   5.972   3.179   9.085 -0.0977  2.5069  0.5975
  140SAPE  H18S15292   6.112   3.104   9.000 -0.0987  0.7207 -0.7685
  140SAPE  C21915293   6.004   3.273   8.898  0.4156  0.5465 -0.2187
  140SAPE  H19R15294   6.078   3.302   8.820 -0.3608  1.4494 -0.6511
  140SAPE  H19S15295   5.970   3.372   8.936 -1.2326  0.2841 -0.9350
  140SAPE  C22015296   5.890   3.204   8.826  0.8065 -0.8495 -0.0624
  140SAPE  H20R15297   5.939   3.112   8.786  3.1199  0.5799 -0.7526
  140SAPE  H20S15298   5.857   3.261   8.737  1.2033 -1.5739 -0.6903
  140SAPE  H20T15299   5.802   3.194   8.892 -0.4102 -1.1965 -1.6768
  140SAPE   C3315300   5.508   3.289  10.265 -0.1741  0.1303 -0.1693
  140SAPE   H3X15301   5.521   3.399  10.270  1.5000 -0.0165 -0.7938
  140SAPE   H3Y15302   5.402   3.259  10.284  0.0550 -0.8398 -0.3419
  140SAPE   C3415303   5.547   3.256  10.117  0.3943 -0.3774 -0.4324
  140SAPE   H4X15304   5.530   3.150  10.088  0.5373 -0.0710 -1.6941
  140SAPE   H4Y15305   5.657   3.267  10.106  0.6181 -1.4921  0.5157
  140SAPE   C3515306   5.478   3.345  10.017 -0.2362 -0.7726  0.6518
  140SAPE   H5X15307   5.507   3.309   9.916 -0.4278 -1.1179  0.7190
  140SAPE   H5Y15308   5.534   3.440  10.033 -1.5086 -0.2744  2.4794
  140SAPE   C3615309   5.333   3.358  10.024  0.0686  0.1889 -0.0876
  140SAPE   H6X15310   5.297   3.402  10.120  0.1137 -4.0114  2.1077
  140SAPE   H6Y15311   5.298   3.253  10.014  1.5805 -0.2227 -1.4634
  140SAPE   C3715312   5.257   3.431   9.919  0.1046  0.1760 -0.0841
  140SAPE   H7X15313   5.291   3.380   9.826  0.2553 -0.5706  0.3754
  140SAPE   H7Y15314   5.295   3.535   9.908 -0.9183  0.9671  3.0023
  140SAPE   C3815315   5.100   3.422   9.914 -0.4558  0.7360 -0.0473
  140SAPE   H8X15316   5.055   3.504   9.973 -0.2168  0.9007 -0.0898
  140SAPE   H8Y15317   5.059   3.326   9.951 -2.3512  1.7151  0.4738
  140SAPE   C3915318   5.042   3.446   9.771  0.1048 -0.0668 -0.1022
  140SAPE   H9X15319   5.080   3.375   9.694 -2.9679 -2.8193  0.6690
  140SAPE   H9Y15320   5.070   3.550   9.745 -2.6928  0.3982 -1.6339
  140SAPE  C31015321   4.886   3.442   9.756 -0.8655  0.7526 -0.3161
  140SAPE  H10X15322   4.853   3.506   9.841 -0.9822 -2.1958  2.0719
  140SAPE  H10Y15323   4.853   3.337   9.776 -0.5363  0.8511  0.8337
  140SAPE  C31115324   4.834   3.488   9.625  0.2536  0.4407  0.1142
  140SAPE  H11X15325   4.829   3.599   9.627 -1.4447  0.3936  0.2718
  140SAPE  H11Y15326   4.731   3.452   9.605  0.1400  1.1584 -0.6665
  140SAPE  C31215327   4.924   3.448   9.508 -0.5871  0.5524  0.1371
  140SAPE  H12X15328   4.936   3.337   9.513  1.6379  0.5944 -2.2834
  140SAPE  H12Y15329   5.025   3.493   9.509  0.3619 -1.4237 -0.4846
  140SAPE  C31315330   4.869   3.487   9.364  0.6058  0.3173 -0.6692
  140SAPE  H13X15331   4.835   3.592   9.374 -0.6132  0.0588 -1.8759
  140SAPE  H13Y15332   4.774   3.432   9.350  0.7867  0.0344 -0.8176
  140SAPE  C31415333   4.958   3.437   9.251  0.2816  0.0218  0.3554
  140SAPE  H14X15334   4.969   3.326   9.246  0.7700  0.0720  0.2351
  140SAPE  H14Y15335   5.061   3.476   9.267  1.5511 -2.1741 -1.6844
  140SAPE  C31515336   4.925   3.486   9.109  0.0261  0.3618 -0.9818
  140SAPE  H15X15337   4.913   3.596   9.112 -1.1596  0.2282 -0.0466
  140SAPE  H15Y15338   4.826   3.453   9.072 -1.5782  3.4730  0.2262
  140SAPE  C31615339   5.029   3.437   9.008  0.0766 -0.0929  0.0414
  140SAPE  H16X15340   5.061   3.333   9.031  2.0468  0.7885  1.5503
  140SAPE  H16Y15341   5.119   3.502   9.008 -0.0665  0.1048  0.2611
  140SAPE  C31715342   4.976   3.432   8.856  0.3644 -0.4469  0.5493
  140SAPE  H17X15343   4.891   3.360   8.859 -0.5723  0.5810 -0.4537
  140SAPE  H17Y15344   5.056   3.390   8.792 -1.7014 -1.4064 -1.5316
  140SAPE  C31815345   4.929   3.563   8.800  0.6403 -0.0464 -0.9180
  140SAPE  H18X15346   5.011   3.636   8.815  1.6926 -1.6270  1.6270
  140SAPE  H18Y15347   4.833   3.598   8.845  0.9603 -0.3662  0.0299
  140SAPE  H18Z15348   4.915   3.559   8.689 -1.6176  0.6799 -0.7240
  141SAPE     N15349   0.117   3.596  11.127  0.4583  0.4878  0.3658
  141SAPE   HN115350   0.036   3.536  11.150 -1.2731  2.2604 -0.7097
  141SAPE   HN215351   0.197   3.533  11.109  0.9553  1.5643 -1.5625
  141SAPE   HN315352   0.128   3.664  11.205 -3.2478 -0.2262  1.7132
  141SAPE   C1215353   0.091   3.663  10.995  0.0396  0.3693  0.9452
  141SAPE  H12A15354   0.139   3.595  10.922  2.3308  2.1967  0.6372
  141SAPE  H12B15355   0.142   3.761  11.002  2.6145 -0.8364  0.4281
  141SAPE   C1115356  -0.057   3.693  10.966  0.3659 -0.2991  0.4192
  141SAPE  H11A15357  -0.068   3.745  10.868 -1.2014 -1.6426 -0.1618
  141SAPE  H11B15358  -0.094   3.767  11.040 -1.1903  0.0205 -0.6252
  141SAPE     P15359  -0.287   3.576  10.970  0.0555  0.2697  0.1086
  141SAPE   O1315360  -0.340   3.474  11.069  0.1183 -0.1764  0.2329
  141SAPE   O1415361  -0.335   3.714  10.983 -0.1534  0.1535  0.5677
  141SAPE   O1215362  -0.131   3.569  10.983  0.1762  0.0069 -0.1610
  141SAPE   O1115363  -0.317   3.531  10.823 -0.6266  0.3092 -0.3994
  141SAPE    C115364  -0.218   3.445  10.757 -0.4043  0.2970 -0.1358
  141SAPE    HA15365  -0.139   3.401  10.823  0.0071  0.7502 -0.3200
  141SAPE    HB15366  -0.269   3.351  10.728 -1.0939  0.5883  0.1241
  141SAPE    C215367  -0.142   3.514  10.644  1.2807 -0.0319  0.1522
  141SAPE    HS15368  -0.133   3.624  10.658  4.8466  0.1598 -2.2006
  141SAPE   O2115369  -0.213   3.490  10.518  0.3256  0.1251 -0.3815
  141SAPE   C2115370  -0.191   3.576  10.424 -0.4695 -0.1583  0.2996
  141SAPE   O2215371  -0.133   3.685  10.439  0.0024  0.1245 -0.2111
  141SAPE   C2215372  -0.258   3.525  10.294 -0.7869 -0.0988 -0.3376
  141SAPE   H2R15373  -0.242   3.415  10.293  0.3778  0.0495  0.3963
  141SAPE   H2S15374  -0.368   3.528  10.310 -0.4171  0.5465  2.6837
  141SAPE    C315375   0.002   3.459  10.629 -0.2530  1.0715 -0.1650
  141SAPE    HX15376  -0.007   3.349  10.642  0.2799  0.9827 -0.5697
  141SAPE    HY15377   0.060   3.489  10.719 -0.2670 -1.2764  0.7080
  141SAPE   O3115378   0.064   3.486  10.505  0.1170 -0.2220  0.8380
  141SAPE   C3115379   0.164   3.574  10.510 -0.2682  0.4034 -0.4334
  141SAPE   O3215380   0.192   3.640  10.610  0.2721  0.4229  0.2683
  141SAPE   C3215381   0.258   3.560  10.388  1.2060 -0.8050  0.1158
  141SAPE   H2X15382   0.299   3.457  10.397  2.7644 -0.1798  0.4388
  141SAPE   H2Y15383   0.338   3.636  10.399  0.6428 -0.5338  2.9668
  141SAPE   C2315384  -0.208   3.596  10.161  0.3753 -0.1412 -1.0853
  141SAPE   H3R15385  -0.266   3.550  10.078 -0.3801 -1.1688 -0.0287
  141SAPE   H3S15386  -0.099   3.578  10.152  0.4424 -0.7807  0.6114
  141SAPE   C2415387  -0.226   3.746  10.158 -0.3717  0.5776 -0.5368
  141SAPE   H4R15388  -0.186   3.799  10.069  0.3665  1.6817  0.4194
  141SAPE   H4S15389  -0.181   3.799  10.244 -2.0907  1.1304  0.0651
  141SAPE   C2515390  -0.367   3.793  10.158  0.4299  0.4250 -0.3783
  141SAPE   H5R15391  -0.400   3.828  10.257 -0.5262 -3.0352  0.6455
  141SAPE   C2615392  -0.460   3.779  10.063 -0.6405 -0.3068 -0.5508
  141SAPE   H6R15393  -0.555   3.833  10.076 -1.2430 -0.9768 -1.9586
  141SAPE   C2715394  -0.435   3.713   9.930  0.2768  0.3935 -0.1141
  141SAPE   H7R15395  -0.464   3.606   9.941 -0.9262  0.5466 -1.4797
  141SAPE   H7S15396  -0.327   3.715   9.901  0.6322 -0.7238  1.0487
  141SAPE   C2815397  -0.526   3.788   9.833 -0.0687  0.1053  0.6444
  141SAPE   H8R15398  -0.630   3.791   9.868 -1.7406 -0.9595 -3.5529
  141SAPE   C2915399  -0.490   3.842   9.711 -0.3361  0.3739 -0.6908
  141SAPE   H9R15400  -0.570   3.894   9.655  0.8373  0.3416 -2.4823
  141SAPE  C21015401  -0.347   3.835   9.655 -0.2387 -0.2187  0.1347
  141SAPE  H10R15402  -0.309   3.730   9.662  1.8091  0.5393  1.0169
  141SAPE  H10S15403  -0.274   3.897   9.710 -0.4599 -1.1834  1.5780
  141SAPE  C21115404  -0.341   3.876   9.503 -0.3089  0.0124  0.3708
  141SAPE  H11R15405  -0.329   3.985   9.487  1.1045 -0.1070  0.5436
  141SAPE  C21215406  -0.357   3.797   9.395  0.0566  0.3219 -0.3134
  141SAPE  H12R15407  -0.362   3.850   9.299 -2.5245 -1.7301 -1.4536
  141SAPE  C21315408  -0.386   3.651   9.402 -0.6017 -0.7300  0.0209
  141SAPE  H13R15409  -0.376   3.607   9.503  1.2553 -0.2636  0.0788
  141SAPE  H13S15410  -0.303   3.597   9.351  0.9986  0.8084  0.8904
  141SAPE  C21415411  -0.527   3.620   9.355  0.3005 -0.1695 -0.1724
  141SAPE  H14R15412  -0.600   3.618   9.437  1.5916  0.2589  1.0244
  141SAPE  C21515413  -0.577   3.612   9.236 -0.4114 -0.8421 -0.4402
  141SAPE  H15R15414  -0.679   3.575   9.217 -1.0118  0.2041  0.5916
  141SAPE  C21615415  -0.506   3.645   9.110 -1.1726  0.6352  0.0140
  141SAPE  H16R15416  -0.508   3.551   9.049 -0.3964 -0.1021  1.0807
  141SAPE  H16S15417  -0.397   3.665   9.123 -1.1207  0.5902 -0.3236
  141SAPE  C21715418  -0.584   3.759   9.040  0.1621  0.4469 -0.4812
  141SAPE  H17R15419  -0.528   3.782   8.947 -0.6891  0.5021 -0.9923
  141SAPE  H17S15420  -0.578   3.848   9.106 -0.6512 -0.3452  0.6977
  141SAPE  C21815421  -0.733   3.738   9.000 -0.2487 -0.3659  0.6623
  141SAPE  H18R15422  -0.806   3.704   9.076 -1.7722  0.5567 -0.3328
  141SAPE  H18S15423  -0.736   3.656   8.925 -2.0878 -0.5487  0.8848
  141SAPE  C21915424  -0.797   3.857   8.935  0.7160 -0.3652  0.1354
  141SAPE  H19R15425  -0.890   3.832   8.878  1.0179  1.0235 -1.0330
  141SAPE  H19S15426  -0.724   3.888   8.857  0.2058 -0.1652 -0.2704
  141SAPE  C22015427  -0.818   3.968   9.031 -0.2699 -0.6251 -0.7989
  141SAPE  H20R15428  -0.833   4.067   8.983 -0.3711  0.5129  1.4357
  141SAPE  H20S15429  -0.738   3.975   9.107 -0.5479 -1.2744 -0.4288
  141SAPE  H20T15430  -0.913   3.941   9.084 -0.0199 -0.1842 -0.1165
  141SAPE   C3315431   0.180   3.568  10.254 -1.1565  0.0214  0.6084
  141SAPE   H3X15432   0.131   3.667  10.247 -1.5168 -0.2099 -0.5430
  141SAPE   H3Y15433   0.099   3.491  10.247 -1.0281  0.0131 -2.1376
  141SAPE   C3415434   0.273   3.545  10.127  0.1487 -0.3331  0.4951
  141SAPE   H4X15435   0.296   3.438  10.141  3.1460  0.0523 -0.7099
  141SAPE   H4Y15436   0.368   3.603  10.125 -0.7338  1.1850 -0.6195
  141SAPE   C3515437   0.190   3.543  10.000  0.3711  0.3292  0.1940
  141SAPE   H5X15438   0.108   3.469  10.008 -0.5621  1.2311 -0.7143
  141SAPE   H5Y15439   0.255   3.510   9.916  0.0741 -2.6207  0.9972
  141SAPE   C3615440   0.137   3.680   9.968 -0.4143 -0.4412 -0.0357
  141SAPE   H6X15441   0.205   3.763   9.997 -0.3414 -0.9646  1.3733
  141SAPE   H6Y15442   0.046   3.691  10.030 -2.0995 -1.7179 -2.1394
  141SAPE   C3715443   0.085   3.698   9.825 -0.6964  0.0482  0.2998
  141SAPE   H7X15444   0.169   3.694   9.752  0.6876  2.5020  1.6046
  141SAPE   H7Y15445   0.048   3.803   9.819 -2.7306 -0.6442 -0.1145
  141SAPE   C3815446  -0.037   3.618   9.787 -0.2695 -0.1389  0.6610
  141SAPE   H8X15447  -0.125   3.642   9.851  0.1170  1.4082  0.6579
  141SAPE   H8Y15448  -0.015   3.510   9.800  0.7522 -0.1578 -1.0158
  141SAPE   C3915449  -0.076   3.646   9.636  0.1809  0.3554  0.5280
  141SAPE   H9X15450  -0.095   3.751   9.607  0.7058  1.0186  2.4572
  141SAPE   H9Y15451  -0.173   3.600   9.610  0.0721  1.6132 -1.5266
  141SAPE  C31015452   0.035   3.585   9.544  0.0372  0.4346 -0.4782
  141SAPE  H10X15453   0.063   3.485   9.583 -1.5112  0.2946  0.3613
  141SAPE  H10Y15454   0.126   3.649   9.544 -0.2393  0.8400  0.0054
  141SAPE  C31115455  -0.003   3.568   9.400  0.0696 -0.6486  0.8231
  141SAPE  H11X15456  -0.046   3.660   9.355 -0.9483 -1.1161  0.7883
  141SAPE  H11Y15457  -0.090   3.500   9.382 -0.5953  0.5016 -0.5058
  141SAPE  C31215458   0.122   3.528   9.323 -0.1882 -0.2903 -0.5635
  141SAPE  H12X15459   0.196   3.465   9.377  0.6149  0.8516 -0.2976
  141SAPE  H12Y15460   0.176   3.621   9.296 -1.3144  0.6142  0.1963
  141SAPE  C31315461   0.093   3.454   9.199  0.3148 -0.6092 -0.3219
  141SAPE  H13X15462   0.027   3.515   9.133 -0.1518  1.7351  2.1162
  141SAPE  H13Y15463   0.026   3.371   9.233 -1.4024  1.1258  0.7097
  141SAPE  C31415464   0.209   3.397   9.115 -0.1151  0.3515 -0.6961
  141SAPE  H14X15465   0.180   3.302   9.064  3.6889 -0.9786 -0.6780
  141SAPE  H14Y15466   0.289   3.377   9.189 -1.0945  0.1062  0.3292
  141SAPE  C31515467   0.260   3.499   9.014  0.0687  0.5279  0.0495
  141SAPE  H15X15468   0.351   3.462   8.963  0.6293  2.4567 -0.4403
  141SAPE  H15Y15469   0.314   3.576   9.075  0.1534  0.4314  0.0978
  141SAPE  C31615470   0.161   3.559   8.904 -0.2598 -0.4425 -0.5840
  141SAPE  H16X15471   0.082   3.616   8.957 -1.7251 -1.0446 -2.0263
  141SAPE  H16Y15472   0.098   3.476   8.864 -1.4222 -0.7094  1.6434
  141SAPE  C31715473   0.229   3.651   8.786 -0.3533 -0.0103 -0.4211
  141SAPE  H17X15474   0.280   3.574   8.724  0.6537 -0.9420  1.4565
  141SAPE  H17Y15475   0.302   3.718   8.835 -0.0881  1.2797 -2.4845
  141SAPE  C31815476   0.144   3.737   8.688 -0.0498  0.2068 -0.2581
  141SAPE  H18X15477   0.047   3.687   8.668  0.7425 -1.2860 -0.5245
  141SAPE  H18Y15478   0.205   3.765   8.599  2.3944 -2.2348  0.5231
  141SAPE  H18Z15479   0.113   3.830   8.741  3.5943  1.2409  0.3409
  142SAPE     N15480   0.784   1.172  11.479 -0.6955  0.2728  0.1517
  142SAPE   HN115481   0.817   1.129  11.389  2.6785 -0.1367  1.4407
  142SAPE   HN215482   0.799   1.274  11.466  0.2591  0.0541 -0.6238
  142SAPE   HN315483   0.846   1.131  11.551  0.2136 -2.5270 -2.0008
  142SAPE   C1215484   0.636   1.132  11.501  0.3949  0.3580  0.3317
  142SAPE  H12A15485   0.607   1.179  11.597  0.6832 -0.8510  1.0242
  142SAPE  H12B15486   0.633   1.023  11.524 -1.2579  0.3825  0.3499
  142SAPE   C1115487   0.537   1.193  11.400  0.5325 -0.4327  0.9991
  142SAPE  H11A15488   0.440   1.139  11.403  1.7567 -2.8146  0.5608
  142SAPE  H11B15489   0.572   1.181  11.295 -1.0669  2.8719 -0.0263
  142SAPE     P15490   0.453   1.443  11.325 -0.4933 -0.0438 -0.0886
  142SAPE   O1315491   0.347   1.526  11.387 -0.4569  0.6303 -0.1610
  142SAPE   O1415492   0.574   1.518  11.288 -0.2339  0.0585  0.1536
  142SAPE   O1215493   0.507   1.327  11.429 -0.0236 -0.3064  0.5061
  142SAPE   O1115494   0.394   1.371  11.199 -0.0297  0.1176  0.2913
  142SAPE    C115495   0.458   1.377  11.071 -0.2826  0.3580 -0.0775
  142SAPE    HA15496   0.568   1.390  11.081 -0.3056  0.3699  0.1643
  142SAPE    HB15497   0.430   1.289  11.009  0.6934  1.4792 -2.2370
  142SAPE    C215498   0.402   1.492  10.977 -0.6893  0.6909 -0.0219
  142SAPE    HS15499   0.437   1.586  11.025 -0.7115 -0.7350  3.0348
  142SAPE   O2115500   0.257   1.482  10.958  0.5452 -0.2071  0.0257
  142SAPE   C2115501   0.177   1.582  10.985  0.1773  0.0089  0.3001
  142SAPE   O2215502   0.212   1.685  11.039  0.5640 -0.0649  0.3291
  142SAPE   C2215503   0.036   1.560  10.922 -0.1082 -0.6293  0.7890
  142SAPE   H2R15504   0.041   1.463  10.868  0.4480 -2.2547  3.5580
  142SAPE   H2S15505  -0.046   1.561  10.998  2.1509  1.3681  3.3736
  142SAPE    C315506   0.478   1.489  10.840 -0.2716 -0.6672  0.4881
  142SAPE    HX15507   0.434   1.406  10.781 -1.8121  0.6136 -0.2406
  142SAPE    HY15508   0.587   1.471  10.853 -0.0700  0.5245  0.5154
  142SAPE   O3115509   0.454   1.606  10.760  0.3502 -0.1237 -0.0336
  142SAPE   C3115510   0.529   1.605  10.656  0.3409 -0.6813  0.3331
  142SAPE   O3215511   0.645   1.566  10.643 -0.3571  0.4511  0.2480
  142SAPE   C3215512   0.442   1.648  10.539 -0.0101  0.3890 -1.0156
  142SAPE   H2X15513   0.372   1.721  10.587  0.0550 -0.2485  0.0786
  142SAPE   H2Y15514   0.392   1.554  10.508  0.4146 -0.0027 -0.5260
  142SAPE   C2315515  -0.009   1.677  10.831  0.8536 -0.5580 -0.1186
  142SAPE   H3R15516   0.073   1.717  10.767  1.1154  1.3009  1.2701
  142SAPE   H3S15517  -0.032   1.765  10.896 -1.2762 -0.6144 -0.7239
  142SAPE   C2415518  -0.138   1.665  10.745  0.0740  0.0598  0.7388
  142SAPE   H4R15519  -0.149   1.764  10.695 -0.8006 -0.6331 -0.5107
  142SAPE   H4S15520  -0.226   1.647  10.810  1.2904 -0.3556  2.3074
  142SAPE   C2515521  -0.136   1.555  10.633 -0.5399  0.3074  0.2145
  142SAPE   H5R15522  -0.137   1.453  10.676  0.5228 -0.6795 -1.9784
  142SAPE   C2615523  -0.123   1.580  10.500 -0.4752  0.2277 -0.4443
  142SAPE   H6R15524  -0.126   1.487  10.441  0.7175  0.5101 -0.9897
  142SAPE   C2715525  -0.122   1.713  10.418 -0.7123  0.0141  0.2538
  142SAPE   H7R15526  -0.015   1.739  10.402 -0.7071 -1.7023 -3.8462
  142SAPE   H7S15527  -0.180   1.792  10.470 -2.0103 -1.2615  0.8177
  142SAPE   C2815528  -0.198   1.689  10.288  0.1184  0.7145  0.2910
  142SAPE   H8R15529  -0.308   1.689  10.293  0.1351  0.6195  0.7075
  142SAPE   C2915530  -0.143   1.683  10.167  1.2665  0.2580 -0.5426
  142SAPE   H9R15531  -0.215   1.665  10.086 -1.3578 -0.7462  1.8374
  142SAPE  C21015532  -0.003   1.701  10.131  0.5720 -0.3878  0.7246
  142SAPE  H10R15533   0.010   1.630  10.047 -3.4687  1.6281 -1.9358
  142SAPE  H10S15534   0.060   1.672  10.218 -0.8601 -1.4379  1.4591
  142SAPE  C21115535   0.035   1.838  10.079 -0.6273  0.2363 -0.0447
  142SAPE  H11R15536   0.039   1.914  10.158  2.0983  1.6981 -1.4416
  142SAPE  C21215537   0.052   1.878   9.946 -0.1852  0.2660 -0.1581
  142SAPE  H12R15538   0.102   1.976   9.935  1.4180 -0.3448  1.1982
  142SAPE  C21315539   0.041   1.784   9.824  0.2873  0.1333 -0.3116
  142SAPE  H13R15540   0.080   1.689   9.866  0.9439  0.3214 -0.4903
  142SAPE  H13S15541   0.116   1.815   9.748  0.5699 -0.2054 -0.1730
  142SAPE  C21415542  -0.104   1.770   9.773  0.0395  0.9859  0.5499
  142SAPE  H14R15543  -0.173   1.727   9.847  1.3320  1.4994  2.1121
  142SAPE  C21515544  -0.150   1.810   9.653 -0.1107 -0.9870 -0.1985
  142SAPE  H15R15545  -0.256   1.792   9.629  0.2290  0.0064 -2.7000
  142SAPE  C21615546  -0.070   1.881   9.544 -0.5695 -0.4958  0.7865
  142SAPE  H16R15547   0.034   1.842   9.538  0.4524  2.0188  0.7075
  142SAPE  H16S15548  -0.059   1.990   9.564  1.0886 -0.7363  1.3535
  142SAPE  C21715549  -0.124   1.858   9.398  0.0899  0.1462  0.9049
  142SAPE  H17R15550  -0.232   1.832   9.394 -0.3051  1.8346 -0.1462
  142SAPE  H17S15551  -0.074   1.761   9.374  1.6304  1.1929 -0.3208
  142SAPE  C21815552  -0.097   1.968   9.294 -0.0923  0.2937 -0.3406
  142SAPE  H18R15553   0.004   2.015   9.298 -0.4244  0.9590  0.2273
  142SAPE  H18S15554  -0.164   2.048   9.332  0.0805 -0.3208  1.3238
  142SAPE  C21915555  -0.140   1.924   9.156  0.0430  0.0672 -0.2442
  142SAPE  H19R15556  -0.239   1.875   9.167  0.0962 -0.1675 -0.7680
  142SAPE  H19S15557  -0.071   1.845   9.120 -0.8702 -0.3496 -1.1576
  142SAPE  C22015558  -0.144   2.035   9.051 -0.2040 -0.1780 -0.5241
  142SAPE  H20R15559  -0.168   1.993   8.951 -1.8828 -1.4127  0.3479
  142SAPE  H20S15560  -0.047   2.088   9.057 -0.4056  0.3426 -1.5306
  142SAPE  H20T15561  -0.218   2.113   9.082  2.5113  1.5999  2.0566
  142SAPE   C3315562   0.523   1.716  10.426  0.7433 -0.4506 -0.0052
  142SAPE   H3X15563   0.618   1.660  10.414  1.4325  0.7385 -0.2943
  142SAPE   H3Y15564   0.557   1.822  10.435 -1.5967  0.1712  3.0746
  142SAPE   C3415565   0.432   1.737  10.293  0.6015  0.8006 -0.6840
  142SAPE   H4X15566   0.356   1.811  10.326  0.0547 -0.4585  1.0726
  142SAPE   H4Y15567   0.380   1.643  10.264  1.5352 -0.2601  0.9318
  142SAPE   C3515568   0.517   1.778  10.168 -0.3267 -0.4307 -0.3617
  142SAPE   H5X15569   0.578   1.695  10.126 -0.4904 -0.1886 -1.0839
  142SAPE   H5Y15570   0.588   1.861  10.191 -0.4017 -0.1210 -1.2109
  142SAPE   C3615571   0.415   1.825  10.064  0.0901  0.9779 -0.2869
  142SAPE   H6X15572   0.371   1.919  10.103 -0.2127 -0.0437  2.0301
  142SAPE   H6Y15573   0.337   1.747  10.057  2.0627 -1.3086  1.3314
  142SAPE   C3715574   0.483   1.835   9.925  0.5178  0.1919 -0.1471
  142SAPE   H7X15575   0.552   1.751   9.904  0.1130 -0.4904  1.1547
  142SAPE   H7Y15576   0.545   1.928   9.920  1.3272 -0.1194  2.3626
  142SAPE   C3815577   0.379   1.825   9.816  0.5152  0.4766 -0.7708
  142SAPE   H8X15578   0.313   1.914   9.820 -0.4858 -0.2160 -1.4382
  142SAPE   H8Y15579   0.321   1.735   9.845  0.2051  1.4673  1.9971
  142SAPE   C3915580   0.447   1.816   9.683 -0.2118  0.3832 -0.5946
  142SAPE   H9X15581   0.524   1.736   9.672  0.3408  0.5532  1.5143
  142SAPE   H9Y15582   0.506   1.908   9.663 -0.5342  0.3910 -1.5253
  142SAPE  C31015583   0.354   1.811   9.573  0.5804  0.1450 -0.2957
  142SAPE  H10X15584   0.297   1.906   9.559 -2.4586 -1.3283  1.1729
  142SAPE  H10Y15585   0.278   1.731   9.583  1.8734 -1.4862 -2.6652
  142SAPE  C31115586   0.416   1.781   9.441 -0.0966  0.8116 -0.1725
  142SAPE  H11X15587   0.458   1.679   9.452  1.0399  1.4425  1.9323
  142SAPE  H11Y15588   0.497   1.856   9.425  1.5127 -0.3356  2.1133
  142SAPE  C31215589   0.322   1.780   9.315  0.0446  0.4523  0.3627
  142SAPE  H12X15590   0.271   1.876   9.292 -0.7047 -0.3433 -1.4958
  142SAPE  H12Y15591   0.233   1.716   9.332  0.0056  1.0317  2.5974
  142SAPE  C31315592   0.409   1.730   9.199  0.1173 -0.3820  0.0218
  142SAPE  H13X15593   0.465   1.639   9.232  0.1317  0.7603  3.5621
  142SAPE  H13Y15594   0.479   1.808   9.162 -1.2494  0.2351 -1.3316
  142SAPE  C31415595   0.318   1.695   9.069  0.1323  0.5308  0.7355
  142SAPE  H14X15596   0.234   1.638   9.115  0.9120 -1.2872  0.0129
  142SAPE  H14Y15597   0.376   1.626   9.003 -2.0601 -0.1865 -0.5490
  142SAPE  C31515598   0.264   1.819   8.999 -0.1328 -0.0915  0.0195
  142SAPE  H15X15599   0.219   1.882   9.079 -1.6122 -2.1553  0.8976
  142SAPE  H15Y15600   0.182   1.782   8.934 -0.7418  1.2321 -0.0046
  142SAPE  C31615601   0.363   1.897   8.912  0.1605 -0.1016  0.0489
  142SAPE  H16X15602   0.405   1.839   8.827 -2.3115  0.3664 -1.5989
  142SAPE  H16Y15603   0.454   1.934   8.964  0.7797 -0.8886 -0.4354
  142SAPE  C31715604   0.294   2.021   8.856 -0.5760 -0.1079 -0.8533
  142SAPE  H17X15605   0.361   2.065   8.778 -0.3377  2.4337  0.6808
  142SAPE  H17Y15606   0.279   2.100   8.932 -0.7171 -0.7214 -0.2423
  142SAPE  C31815607   0.163   2.001   8.775 -0.2889 -0.2932  0.7366
  142SAPE  H18X15608   0.159   1.901   8.726 -0.8137 -0.2873  0.7575
  142SAPE  H18Y15609   0.158   2.087   8.705 -0.1449  0.5897  1.7848
  142SAPE  H18Z15610   0.070   2.017   8.834 -2.2987 -0.3588 -2.1876
  143SAPE     N15611   1.612   3.966  11.059  0.5832 -0.2580 -0.2223
  143SAPE   HN115612   1.623   4.029  10.978  2.2931  0.2141  0.3289
  143SAPE   HN215613   1.709   3.945  11.092  0.2633 -2.2318 -0.4307
  143SAPE   HN315614   1.564   3.885  11.015  1.6824  0.0970 -2.1851
  143SAPE   C1215615   1.529   4.056  11.152 -0.5385  0.9304 -0.6196
  143SAPE  H12A15616   1.598   4.143  11.159 -1.0278  1.3174 -0.5465
  143SAPE  H12B15617   1.509   4.007  11.250 -0.0185 -0.8508 -1.3772
  143SAPE   C1115618   1.392   4.094  11.095  0.0253  0.8191 -0.1711
  143SAPE  H11A15619   1.410   4.141  10.996  0.9027  0.2141 -0.3043
  143SAPE  H11B15620   1.343   4.159  11.170 -0.5825  0.7542 -0.5050
  143SAPE     P15621   1.161   3.986  11.025 -0.2876 -0.1916 -0.2662
  143SAPE   O1315622   1.097   3.854  11.055  0.1347 -0.2836 -0.1880
  143SAPE   O1415623   1.094   4.108  11.076 -0.1443  0.0158  0.4918
  143SAPE   O1215624   1.313   3.980  11.076 -0.4980 -0.4039 -0.0822
  143SAPE   O1115625   1.188   4.007  10.867 -0.3169  0.1817 -0.2366
  143SAPE    C115626   1.290   3.929  10.801  0.2894  0.0226 -0.3936
  143SAPE    HA15627   1.385   3.986  10.796  1.9341 -2.2789  1.9353
  143SAPE    HB15628   1.316   3.838  10.859  1.3101  1.1936  1.0575
  143SAPE    C215629   1.247   3.884  10.662  0.4758  0.1723  0.5327
  143SAPE    HS15630   1.186   3.963  10.614 -0.9907 -0.7311  0.8284
  143SAPE   O2115631   1.167   3.770  10.688  0.6616  0.4587 -0.3785
  143SAPE   C2115632   1.070   3.741  10.598  0.3853  0.8749 -0.6610
  143SAPE   O2215633   1.049   3.806  10.498 -0.0865 -0.0299 -0.4673
  143SAPE   C2215634   1.006   3.604  10.639  0.3740 -0.0785  0.8359
  143SAPE   H2R15635   1.021   3.573  10.744  0.6557 -0.2845  0.7371
  143SAPE   H2S15636   0.896   3.616  10.629  0.4955  0.7263  0.2999
  143SAPE    C315637   1.367   3.850  10.569  0.3281  0.7642  0.2225
  143SAPE    HX15638   1.408   3.755  10.609 -0.9050 -0.3430 -1.0317
  143SAPE    HY15639   1.447   3.926  10.577  0.4227  0.7600 -0.5859
  143SAPE   O3115640   1.332   3.830  10.430 -0.1315  0.2700 -0.0102
  143SAPE   C3115641   1.289   3.942  10.363  0.5822  0.4030  0.5102
  143SAPE   O3215642   1.316   4.053  10.400 -0.1904  0.2188 -0.4032
  143SAPE   C3215643   1.235   3.899  10.227  0.3147  0.1960  0.3243
  143SAPE   H2X15644   1.136   3.849  10.228 -0.1877  1.1783  0.9926
  143SAPE   H2Y15645   1.308   3.826  10.186 -0.5297 -1.1607  1.1513
  143SAPE   C2315646   1.042   3.488  10.538  0.0120  0.2406  0.5337
  143SAPE   H3R15647   1.022   3.524  10.434 -4.5940  1.2522  1.5135
  143SAPE   H3S15648   0.956   3.420  10.556  0.3815 -0.0733  1.1073
  143SAPE   C2415649   1.180   3.448  10.560 -0.1750  0.5818  0.0821
  143SAPE   H4R15650   1.207   3.416  10.663 -1.9825 -1.5227 -0.0171
  143SAPE   H4S15651   1.246   3.536  10.547  2.1841 -1.1743 -0.7160
  143SAPE   C2515652   1.227   3.346  10.466 -1.2242 -0.0529  0.1390
  143SAPE   H5R15653   1.216   3.243  10.504  1.8995 -0.1245  1.1429
  143SAPE   C2615654   1.280   3.358  10.341 -0.2905  0.4819  0.5293
  143SAPE   H6R15655   1.294   3.261  10.290 -3.2342 -0.7608  1.8369
  143SAPE   C2715656   1.314   3.484  10.268 -0.2359 -0.2672  0.4002
  143SAPE   H7R15657   1.392   3.458  10.194  1.2016 -1.8019  2.3667
  143SAPE   H7S15658   1.351   3.556  10.344  0.1186  0.3447 -0.3442
  143SAPE   C2815659   1.194   3.548  10.194 -0.2778 -0.8736  0.2301
  143SAPE   H8R15660   1.100   3.570  10.248 -0.2971 -0.9023  0.2088
  143SAPE   C2915661   1.185   3.579  10.061 -0.6648 -0.4106 -0.0651
  143SAPE   H9R15662   1.093   3.628  10.027 -1.3696 -1.4677  0.2296
  143SAPE  C21015663   1.295   3.561   9.961  0.0468  0.1995  0.8209
  143SAPE  H10R15664   1.386   3.549  10.024 -0.2330  1.1745  1.4376
  143SAPE  H10S15665   1.317   3.648   9.895  2.3385  0.3678  1.7136
  143SAPE  C21115666   1.258   3.439   9.873 -0.8857  0.2398 -0.6897
  143SAPE  H11R15667   1.201   3.358   9.920  0.5946  0.2769  1.2760
  143SAPE  C21215668   1.294   3.437   9.743  0.2313 -0.5705  0.3170
  143SAPE  H12R15669   1.248   3.365   9.674  0.9394 -1.6688  0.9669
  143SAPE  C21315670   1.381   3.540   9.676 -0.5619  0.1924 -0.0827
  143SAPE  H13R15671   1.454   3.587   9.745 -1.2789 -1.3895  1.8368
  143SAPE  H13S15672   1.316   3.620   9.634  1.8038  1.8133 -0.8611
  143SAPE  C21415673   1.452   3.476   9.565 -0.7226  0.2420  0.1188
  143SAPE  H14R15674   1.558   3.455   9.583 -0.9057  0.1978  1.2321
  143SAPE  C21515675   1.410   3.454   9.443  0.4328  0.4328 -0.5314
  143SAPE  H15R15676   1.479   3.410   9.369  0.1165 -0.3081 -0.3962
  143SAPE  C21615677   1.269   3.481   9.398 -0.7054 -0.4316 -0.6596
  143SAPE  H16R15678   1.213   3.513   9.489  1.1970  0.6949  0.1880
  143SAPE  H16S15679   1.224   3.384   9.368 -2.2035  0.6073 -1.9854
  143SAPE  C21715680   1.272   3.582   9.278  0.2706  0.5097  0.1816
  143SAPE  H17R15681   1.361   3.642   9.306 -0.2142  0.4505  1.9573
  143SAPE  H17S15682   1.177   3.639   9.282 -1.1359 -1.5064 -2.0739
  143SAPE  C21815683   1.292   3.518   9.142  0.1451 -0.3924  0.1231
  143SAPE  H18R15684   1.227   3.430   9.126 -1.9805  1.3614 -1.6101
  143SAPE  H18S15685   1.400   3.497   9.125  0.6584 -0.0483  2.6695
  143SAPE  C21915686   1.254   3.617   9.028  0.0970  0.2593 -0.0237
  143SAPE  H19R15687   1.147   3.646   9.022 -0.5209 -1.4457  1.6126
  143SAPE  H19S15688   1.280   3.572   8.930 -0.7018 -0.6609  0.1714
  143SAPE  C22015689   1.330   3.746   9.036  0.2378  0.2119 -0.0919
  143SAPE  H20R15690   1.313   3.811   9.125 -0.6317 -0.1831  0.0424
  143SAPE  H20S15691   1.299   3.810   8.950  0.0528  2.0008  1.2456
  143SAPE  H20T15692   1.438   3.727   9.016 -0.1360 -2.1302 -0.0899
  143SAPE   C3315693   1.218   4.033  10.138  0.1467  0.0680  0.4278
  143SAPE   H3X15694   1.300   4.104  10.164 -0.7116  0.4533  2.2266
  143SAPE   H3Y15695   1.133   4.090  10.182  0.5124  1.3005 -0.3873
  143SAPE   C3415696   1.179   4.017   9.990  1.0688  0.3321  0.0095
  143SAPE   H4X15697   1.165   4.121   9.953 -1.0066  0.4708  1.0598
  143SAPE   H4Y15698   1.084   3.960   9.986  0.1615  1.8455 -0.8416
  143SAPE   C3515699   1.277   3.932   9.913 -0.0847  0.0194 -0.0400
  143SAPE   H5X15700   1.295   3.835   9.964 -2.8192 -1.5919 -1.8507
  143SAPE   H5Y15701   1.374   3.984   9.909  0.3778 -0.7366  0.9465
  143SAPE   C3615702   1.228   3.889   9.784 -0.3560  0.2897  0.2255
  143SAPE   H6X15703   1.130   3.842   9.805 -0.4159  0.7174  0.9160
  143SAPE   H6Y15704   1.298   3.822   9.729  0.8728  2.1075 -0.5285
  143SAPE   C3715705   1.197   4.006   9.687  0.2086 -0.1092 -0.1438
  143SAPE   H7X15706   1.289   4.066   9.668  0.7136 -0.2127  1.7725
  143SAPE   H7Y15707   1.125   4.072   9.740  1.2555  0.8328  0.1439
  143SAPE   C3815708   1.135   3.963   9.554 -0.5787 -0.3159  0.2373
  143SAPE   H8X15709   1.024   3.952   9.564 -0.3929 -1.0432  1.8824
  143SAPE   H8Y15710   1.169   3.857   9.546 -0.4603 -0.3508  1.1282
  143SAPE   C3915711   1.193   4.043   9.434  0.0361 -0.0659  0.3960
  143SAPE   H9X15712   1.303   4.059   9.437 -0.2165  2.1033  0.1219
  143SAPE   H9Y15713   1.159   4.149   9.440  0.4158  0.0400  0.7772
  143SAPE  C31015714   1.134   4.005   9.290 -0.7180  0.2790 -1.0752
  143SAPE  H10X15715   1.026   4.027   9.305 -0.2370  1.0787  1.9133
  143SAPE  H10Y15716   1.142   3.896   9.271 -1.9298  0.2061 -1.2367
  143SAPE  C31115717   1.186   4.101   9.185 -0.0255 -0.1541 -0.6194
  143SAPE  H11X15718   1.297   4.107   9.177  0.3388  1.2742  3.3526
  143SAPE  H11Y15719   1.154   4.206   9.203 -0.0867 -0.0665 -1.2023
  143SAPE  C31215720   1.131   4.079   9.040  0.1208 -0.1229  0.4016
  143SAPE  H12X15721   1.128   3.972   9.013 -2.3670 -0.1144  0.4343
  143SAPE  H12Y15722   1.194   4.125   8.961 -0.6972  0.4781  0.0847
  143SAPE  C31315723   0.994   4.138   9.015 -0.2142  0.0525  0.8172
  143SAPE  H13X15724   0.992   4.246   9.039 -1.4479  0.6935 -1.8111
  143SAPE  H13Y15725   0.905   4.088   9.060 -1.3585  0.1381 -1.2170
  143SAPE  C31415726   0.950   4.121   8.867  0.1762  0.1282 -0.4047
  143SAPE  H14X15727   1.036   4.155   8.804 -0.0526  1.0970 -0.2225
  143SAPE  H14Y15728   0.867   4.189   8.838 -2.3401 -2.2208  0.9282
  143SAPE  C31515729   0.902   3.975   8.828  0.0750  0.7223  0.2704
  143SAPE  H15X15730   0.824   3.942   8.900 -0.1600  0.7217  0.0205
  143SAPE  H15Y15731   0.988   3.905   8.821 -1.7978 -1.6929  0.2708
  143SAPE  C31615732   0.835   3.963   8.686  0.0770 -0.4098 -0.6724
  143SAPE  H16X15733   0.915   3.989   8.613 -0.0168 -0.0335 -0.6465
  143SAPE  H16Y15734   0.750   4.029   8.658  0.3325  0.8119  1.2695
  143SAPE  C31715735   0.779   3.823   8.663  0.0332  0.4120 -0.4313
  143SAPE  H17X15736   0.677   3.806   8.705 -0.9284 -1.0635 -3.0954
  143SAPE  H17Y15737   0.826   3.743   8.724 -2.4107 -1.8694 -1.3328
  143SAPE  C31815738   0.778   3.780   8.517 -0.5526 -0.7064  0.6454
  143SAPE  H18X15739   0.882   3.783   8.477 -0.0027 -0.8328  2.0113
  143SAPE  H18Y15740   0.708   3.839   8.454 -2.0092 -1.6552  1.3222
  143SAPE  H18Z15741   0.734   3.679   8.502 -2.0796  0.1769 -1.2930
  144SAPE     N15742   3.169   1.864  10.907  0.8362  0.3628  0.2880
  144SAPE   HN115743   3.074   1.908  10.909 -0.2611 -1.8747  0.3408
  144SAPE   HN215744   3.172   1.794  10.984 -0.7748 -2.7306 -2.2089
  144SAPE   HN315745   3.241   1.932  10.938  1.8302  0.7853 -2.6483
  144SAPE   C1215746   3.193   1.785  10.781  0.9270 -0.6469 -0.3697
  144SAPE  H12A15747   3.183   1.851  10.693 -2.6975 -1.2680 -0.5766
  144SAPE  H12B15748   3.112   1.710  10.772  0.1848 -0.5266  3.4879
  144SAPE   C1115749   3.328   1.716  10.789 -0.2496 -0.2851 -0.2651
  144SAPE  H11A15750   3.403   1.798  10.790 -1.3548  0.7464  0.4493
  144SAPE  H11B15751   3.351   1.657  10.698  0.4090 -1.3881  0.6009
  144SAPE     P15752   3.344   1.476  10.911  0.0664  0.3092 -0.4985
  144SAPE   O1315753   3.442   1.448  11.019 -0.2491 -0.0214 -0.0724
  144SAPE   O1415754   3.211   1.408  10.934  1.0249 -0.0689 -0.1139
  144SAPE   O1215755   3.330   1.636  10.903 -0.1251  0.7250  0.1947
  144SAPE   O1115756   3.409   1.422  10.775  0.2797  0.9453  0.3386
  144SAPE    C115757   3.320   1.395  10.665  0.0599  0.7301  0.8589
  144SAPE    HA15758   3.252   1.309  10.682  0.7004 -0.0400 -0.3914
  144SAPE    HB15759   3.255   1.482  10.641  0.9310  0.3088 -3.8730
  144SAPE    C215760   3.388   1.364  10.538 -0.3505  0.9175  0.3474
  144SAPE    HS15761   3.417   1.257  10.549 -0.8240  0.7849  0.3407
  144SAPE   O2115762   3.509   1.444  10.530  0.3167 -0.0642 -0.4024
  144SAPE   C2115763   3.597   1.420  10.434 -0.6730 -0.4248  0.0357
  144SAPE   O2215764   3.585   1.328  10.357  0.1868  0.1404 -0.5550
  144SAPE   C2215765   3.705   1.531  10.437 -0.8582 -1.0496 -0.3832
  144SAPE   H2R15766   3.646   1.613  10.393  0.5068 -0.4713 -1.2109
  144SAPE   H2S15767   3.745   1.568  10.534  1.9483 -2.1800 -1.0091
  144SAPE    C315768   3.294   1.384  10.416 -0.8673  0.4737  0.3213
  144SAPE    HX15769   3.345   1.344  10.326 -0.8289 -0.4850  0.7586
  144SAPE    HY15770   3.275   1.491  10.392  0.6751  1.0552  1.4722
  144SAPE   O3115771   3.168   1.316  10.424  0.0622  0.2516  0.2745
  144SAPE   C3115772   3.168   1.178  10.434  0.5387  0.3007  0.5589
  144SAPE   O3215773   3.267   1.110  10.434  0.3634  0.8489  0.2037
  144SAPE   C3215774   3.020   1.130  10.416 -0.2464  0.6201  0.7002
  144SAPE   H2X15775   2.964   1.221  10.386  1.3787  0.7510 -2.4164
  144SAPE   H2Y15776   2.974   1.079  10.503  2.5079  0.1720  2.0075
  144SAPE   C2315777   3.828   1.517  10.349 -0.7789  0.0528  0.8751
  144SAPE   H3R15778   3.799   1.483  10.247  1.1234  2.6906 -0.6605
  144SAPE   H3S15779   3.904   1.446  10.390 -0.3393  0.4335  0.7295
  144SAPE   C2415780   3.905   1.654  10.313 -0.3016  0.2683  0.2318
  144SAPE   H4R15781   4.003   1.625  10.270 -0.8793 -0.1159 -0.8666
  144SAPE   H4S15782   3.933   1.689  10.415  0.0248 -0.5274  0.4227
  144SAPE   C2515783   3.833   1.765  10.238  0.5875 -0.0446 -0.9533
  144SAPE   H5R15784   3.745   1.817  10.279  1.4241  2.9287 -2.6196
  144SAPE   C2615785   3.867   1.815  10.113 -0.0556  0.0985 -0.8901
  144SAPE   H6R15786   3.815   1.910  10.094 -1.4436  0.0300  2.0499
  144SAPE   C2715787   3.981   1.775  10.020  0.0214  0.2872 -0.3285
  144SAPE   H7R15788   4.063   1.747  10.090 -1.4160 -1.0613  0.9063
  144SAPE   H7S15789   4.016   1.863   9.962 -1.2143  2.7458  2.3940
  144SAPE   C2815790   3.934   1.664   9.934  0.6936 -0.4029  0.2410
  144SAPE   H8R15791   3.870   1.589   9.982 -0.8759 -0.8787 -2.4202
  144SAPE   C2915792   3.929   1.670   9.800 -0.4649  0.5549 -0.2307
  144SAPE   H9R15793   3.884   1.585   9.746 -1.5480  2.3362 -2.3154
  144SAPE  C21015794   3.989   1.780   9.715  0.7842 -0.3293 -0.1677
  144SAPE  H10R15795   3.973   1.878   9.766  0.5589 -1.5833  2.3515
  144SAPE  H10S15796   3.926   1.786   9.624 -0.8053  0.1014  0.9141
  144SAPE  C21115797   4.137   1.770   9.703 -0.2718 -0.2278 -0.1587
  144SAPE  H11R15798   4.200   1.751   9.791 -0.0262 -0.9528 -0.4909
  144SAPE  C21215799   4.203   1.786   9.587  0.4061  0.9944 -0.0366
  144SAPE  H12R15800   4.313   1.774   9.593  0.2816 -2.6290 -2.1019
  144SAPE  C21315801   4.151   1.817   9.450  0.2661  0.2291  0.4984
  144SAPE  H13R15802   4.090   1.730   9.417  0.0942  0.1406  1.0279
  144SAPE  H13S15803   4.230   1.818   9.372  0.0823 -1.4909  0.2505
  144SAPE  C21415804   4.063   1.941   9.420 -0.5664  0.0535  0.9573
  144SAPE  H14R15805   4.023   1.984   9.513  1.2352 -1.3587  2.4635
  144SAPE  C21515806   4.028   1.993   9.298 -0.0541  0.4081 -0.0842
  144SAPE  H15R15807   3.949   2.070   9.296 -1.6222 -1.1446 -2.1540
  144SAPE  C21615808   4.063   1.920   9.174  0.0270  0.3217 -0.5226
  144SAPE  H16R15809   4.047   1.811   9.192  1.8150  0.4235  2.2572
  144SAPE  H16S15810   4.169   1.936   9.145 -0.0527 -0.8851 -1.6033
  144SAPE  C21715811   3.965   1.952   9.054 -0.4437 -0.0953  0.7834
  144SAPE  H17R15812   3.865   1.916   9.086 -0.8187 -0.0084 -0.2483
  144SAPE  H17S15813   3.994   1.901   8.959  1.3050  1.1518  0.6005
  144SAPE  C21815814   3.961   2.106   9.026 -0.3113  0.5462 -0.2430
  144SAPE  H18R15815   4.068   2.132   9.010  0.8251 -3.2409  0.3505
  144SAPE  H18S15816   3.924   2.170   9.109  2.8271  1.4369  0.5993
  144SAPE  C21915817   3.875   2.140   8.902 -0.2041  0.0705  0.0032
  144SAPE  H19R15818   3.770   2.113   8.925  0.0408 -1.1937 -0.2884
  144SAPE  H19S15819   3.905   2.070   8.821 -0.6274 -0.6631  0.4600
  144SAPE  C22015820   3.868   2.290   8.876 -1.0663  0.1410 -0.6468
  144SAPE  H20R15821   3.791   2.318   8.801  0.6942  0.8873 -2.2541
  144SAPE  H20S15822   3.966   2.331   8.843 -0.7609 -1.2112 -1.5136
  144SAPE  H20T15823   3.838   2.356   8.960  1.0392  0.6625 -0.2675
  144SAPE   C3315824   3.009   1.038  10.293 -0.5476  0.5228 -0.3035
  144SAPE   H3X15825   2.907   0.995  10.302 -0.0284 -0.4533  1.7838
  144SAPE   H3Y15826   3.085   0.957  10.288  0.4049  1.4583 -1.5935
  144SAPE   C3415827   3.019   1.108  10.162 -0.5957  0.0870  0.2540
  144SAPE   H4X15828   3.119   1.157  10.155 -0.7848  0.3881 -0.4434
  144SAPE   H4Y15829   2.948   1.193  10.149  0.6459  1.1964  0.4965
  144SAPE   C3515830   2.997   0.999  10.047 -0.1765 -0.5207  0.7572
  144SAPE   H5X15831   2.896   0.954  10.056 -0.9781  1.3118  1.4476
  144SAPE   H5Y15832   3.069   0.918  10.072  1.2300  0.5730  0.3508
  144SAPE   C3615833   3.014   1.052   9.901 -0.3957  0.5086  0.0249
  144SAPE   H6X15834   3.108   1.109   9.884 -0.2389  0.0446 -0.6830
  144SAPE   H6Y15835   2.934   1.129   9.893  1.1784  2.1429 -0.7230
  144SAPE   C3715836   3.005   0.946   9.794  0.1357  0.5894  0.0488
  144SAPE   H7X15837   2.900   0.913   9.802 -0.1641  1.7811  1.4853
  144SAPE   H7Y15838   3.077   0.867   9.823  1.0199  1.1126 -0.6582
  144SAPE   C3815839   3.055   0.994   9.656 -0.0907 -0.4978 -0.4071
  144SAPE   H8X15840   3.134   1.071   9.671  0.1916 -0.6055 -1.2844
  144SAPE   H8Y15841   2.976   1.064   9.619  0.2329  1.6843  2.5889
  144SAPE   C3915842   3.071   0.888   9.547 -0.2404 -0.4437  0.7407
  144SAPE   H9X15843   2.984   0.820   9.558 -0.8532  0.2573  0.3475
  144SAPE   H9Y15844   3.156   0.823   9.576 -0.1737 -0.1563  1.1859
  144SAPE  C31015845   3.071   0.931   9.400  0.3046  0.0154 -0.0776
  144SAPE  H10X15846   3.159   0.992   9.372 -0.2320 -0.5167 -3.4361
  144SAPE  H10Y15847   2.982   0.995   9.380  0.1453 -0.1979 -0.0609
  144SAPE  C31115848   3.059   0.816   9.289  0.1426 -0.4347  0.4221
  144SAPE  H11X15849   2.962   0.763   9.304  0.3498 -1.7833 -2.3703
  144SAPE  H11Y15850   3.145   0.747   9.288 -1.4235 -2.5259 -1.9608
  144SAPE  C31215851   3.051   0.882   9.148  0.1943  0.3039 -0.3577
  144SAPE  H12X15852   3.148   0.926   9.118 -0.4198  0.5809 -2.0983
  144SAPE  H12Y15853   2.972   0.960   9.154 -2.1425 -1.9677  0.6740
  144SAPE  C31315854   3.020   0.775   9.041  0.0198  0.0647 -0.5394
  144SAPE  H13X15855   2.922   0.728   9.063 -0.4574  0.7635 -1.1405
  144SAPE  H13Y15856   3.080   0.683   9.061 -1.7948 -0.9919  0.3173
  144SAPE  C31415857   3.040   0.821   8.898 -0.4701 -0.3593  0.0528
  144SAPE  H14X15858   3.138   0.867   8.873 -1.8476  0.2072 -5.4363
  144SAPE  H14Y15859   2.957   0.892   8.880 -0.1271  0.0533  0.1121
  144SAPE  C31515860   3.032   0.713   8.793 -0.7191 -0.8166  1.4564
  144SAPE  H15X15861   3.130   0.662   8.786 -0.1151  0.4543 -0.0715
  144SAPE  H15Y15862   3.012   0.768   8.698  1.4244 -0.6079  1.0804
  144SAPE  C31615863   2.918   0.611   8.812 -0.0437 -0.8146 -0.0230
  144SAPE  H16X15864   2.823   0.662   8.839  0.0233 -0.7543  0.1002
  144SAPE  H16Y15865   2.940   0.539   8.894  3.7373  0.5425  0.3666
  144SAPE  C31715866   2.910   0.523   8.689 -0.1644 -0.3353 -0.5227
  144SAPE  H17X15867   3.005   0.468   8.672 -0.4550 -1.0576  0.1107
  144SAPE  H17Y15868   2.886   0.585   8.600  1.3875  0.1604 -0.6195
  144SAPE  C31815869   2.797   0.423   8.704 -0.2579 -0.6397  0.3047
  144SAPE  H18X15870   2.798   0.357   8.615  0.8561  1.5023 -1.3582
  144SAPE  H18Y15871   2.695   0.468   8.706 -1.1177 -2.5224  1.9770
  144SAPE  H18Z15872   2.815   0.364   8.796  0.1310 -0.5979  0.2552
  145SAPE     N15873   1.215   1.973  11.504 -0.1605 -0.6195  0.4198
  145SAPE   HN115874   1.246   1.875  11.489  2.6483  0.3083 -0.4220
  145SAPE   HN215875   1.113   1.970  11.526 -0.4874 -0.5484 -1.0189
  145SAPE   HN315876   1.224   2.033  11.420 -0.4925 -1.3383 -0.1400
  145SAPE   C1215877   1.315   2.038  11.599  1.1583 -0.0871 -0.3886
  145SAPE  H12A15878   1.291   1.997  11.699 -0.4210  0.6671 -0.4325
  145SAPE  H12B15879   1.302   2.148  11.597 -1.8153 -0.3098 -3.9189
  145SAPE   C1115880   1.455   1.997  11.551  0.5777 -0.5817 -0.1292
  145SAPE  H11A15881   1.456   1.886  11.557  0.8434 -0.5626  0.2615
  145SAPE  H11B15882   1.528   2.039  11.623  1.8572 -0.9642 -1.1743
  145SAPE     P15883   1.638   2.002  11.356  0.1269  0.3178 -0.4428
  145SAPE   O1315884   1.732   2.099  11.409 -0.1926  0.1264  0.2189
  145SAPE   O1415885   1.666   1.863  11.390 -0.4875 -0.2442 -0.0437
  145SAPE   O1215886   1.491   2.047  11.416  0.2447  0.3086 -0.2548
  145SAPE   O1115887   1.625   2.016  11.205 -0.4285  0.0190  0.3158
  145SAPE    C115888   1.506   1.994  11.130 -0.5693 -0.0546  1.0602
  145SAPE    HA15889   1.423   1.975  11.201 -0.0612  1.0819  1.9892
  145SAPE    HB15890   1.492   2.078  11.058  4.1781  0.1843  0.0748
  145SAPE    C215891   1.522   1.875  11.026 -0.9120 -0.5682 -0.1634
  145SAPE    HS15892   1.553   1.787  11.086 -0.7179 -1.6935 -1.8249
  145SAPE   O2115893   1.624   1.907  10.930  0.6421  0.2537  0.0738
  145SAPE   C2115894   1.666   1.812  10.838 -0.0947 -0.1141 -0.6492
  145SAPE   O2215895   1.645   1.690  10.859 -0.2992 -0.2521 -0.3107
  145SAPE   C2215896   1.731   1.866  10.709  0.0170  0.1123 -0.2317
  145SAPE   H2R15897   1.658   1.882  10.627 -0.3806 -0.7445 -0.0563
  145SAPE   H2S15898   1.769   1.969  10.723  1.2052 -0.1857 -1.0260
  145SAPE    C315899   1.388   1.840  10.963 -0.2699  0.0506 -0.0150
  145SAPE    HX15900   1.328   1.805  11.050  1.1825  1.2482  1.5461
  145SAPE    HY15901   1.402   1.753  10.896 -1.0727  1.2937 -1.8680
  145SAPE   O3115902   1.321   1.951  10.911 -0.2692 -0.1922 -0.5170
  145SAPE   C3115903   1.317   1.965  10.780 -0.3918 -0.0348  0.1940
  145SAPE   O3215904   1.376   1.899  10.695 -0.0515 -0.0511  0.0347
  145SAPE   C3215905   1.224   2.081  10.747 -0.0495  0.5940 -0.4523
  145SAPE   H2X15906   1.275   2.169  10.791 -1.4110  1.0441  0.2899
  145SAPE   H2Y15907   1.130   2.071  10.805 -0.3867  2.6252 -0.5740
  145SAPE   C2315908   1.837   1.777  10.655 -0.8356  0.3395 -0.0596
  145SAPE   H3R15909   1.908   1.763  10.739 -1.9946  1.5340  1.1556
  145SAPE   H3S15910   1.893   1.828  10.573  0.4559 -2.4503 -1.0545
  145SAPE   C2415911   1.798   1.643  10.599 -0.0644  1.3310  0.8940
  145SAPE   H4R15912   1.770   1.566  10.674  0.5996  0.4723  0.2853
  145SAPE   H4S15913   1.888   1.598  10.551 -0.5190 -4.1925  4.2679
  145SAPE   C2515914   1.685   1.640  10.492 -0.5546  0.7075  0.5463
  145SAPE   H5R15915   1.591   1.690  10.517 -0.7768  1.4169 -1.5315
  145SAPE   C2615916   1.683   1.571  10.374 -0.4583  0.4425 -0.7204
  145SAPE   H6R15917   1.598   1.581  10.305 -0.0202  1.3124 -1.1449
  145SAPE   C2715918   1.784   1.475  10.325  0.5243  0.1926  0.1272
  145SAPE   H7R15919   1.886   1.495  10.364  1.0197 -0.0663 -1.0070
  145SAPE   H7S15920   1.799   1.479  10.215  2.2026  0.5922  0.3349
  145SAPE   C2815921   1.735   1.341  10.374 -0.5056 -0.5198 -0.2751
  145SAPE   H8R15922   1.709   1.337  10.481 -1.6058 -0.8168 -0.5454
  145SAPE   C2915923   1.716   1.226  10.307  0.1810 -0.4480  0.1917
  145SAPE   H9R15924   1.675   1.141  10.363 -1.5287 -0.4598 -1.0065
  145SAPE  C21015925   1.745   1.206  10.161  0.4104 -0.5382 -0.0387
  145SAPE  H10R15926   1.852   1.178  10.155  0.4693 -0.4798  0.6411
  145SAPE  H10S15927   1.735   1.297  10.097  1.1673 -0.3729  0.0614
  145SAPE  C21115928   1.681   1.089  10.105  0.3963  0.8844 -0.2189
  145SAPE  H11R15929   1.642   1.021  10.182 -1.6970 -0.0018 -1.9642
  145SAPE  C21215930   1.671   1.060   9.976  0.2894  0.7339 -0.0509
  145SAPE  H12R15931   1.634   0.959   9.953  1.4978 -0.3211  2.2675
  145SAPE  C21315932   1.719   1.143   9.856  0.1701  0.7260  0.2396
  145SAPE  H13R15933   1.820   1.102   9.834  1.0768  3.5251 -1.2556
  145SAPE  H13S15934   1.734   1.251   9.874  1.9004  0.7545 -1.1227
  145SAPE  C21415935   1.634   1.118   9.736 -0.3662  0.7522  0.4533
  145SAPE  H14R15936   1.673   1.037   9.673  0.1784  0.0651  1.6419
  145SAPE  C21515937   1.523   1.194   9.705  0.0108  0.2228  0.3064
  145SAPE  H15R15938   1.464   1.159   9.619 -0.0897 -0.1424  0.5200
  145SAPE  C21615939   1.466   1.309   9.787  0.2459  0.5095  0.2240
  145SAPE  H16R15940   1.489   1.310   9.896 -3.5955  1.9168  1.1959
  145SAPE  H16S15941   1.355   1.303   9.785  0.3164 -1.6541  0.9557
  145SAPE  C21715942   1.501   1.444   9.735 -0.3967 -0.7268  0.1135
  145SAPE  H17R15943   1.431   1.519   9.778  0.0829 -1.7193  2.8524
  145SAPE  H17S15944   1.493   1.449   9.625  0.6633 -3.3923 -0.1622
  145SAPE  C21815945   1.641   1.483   9.774 -0.3128  0.1615  0.7586
  145SAPE  H18R15946   1.707   1.439   9.696 -0.5924  0.7110  0.1963
  145SAPE  H18S15947   1.677   1.443   9.871 -0.4193  0.2997  0.8563
  145SAPE  C21915948   1.669   1.638   9.774  0.0375  0.4937  0.2964
  145SAPE  H19R15949   1.772   1.666   9.806 -0.1324  1.6621 -0.1327
  145SAPE  H19S15950   1.612   1.681   9.859  0.4616  3.5267 -0.8568
  145SAPE  C22015951   1.652   1.707   9.641  0.7001 -0.0851  0.2304
  145SAPE  H20R15952   1.546   1.719   9.609  1.0789  0.5180 -0.8606
  145SAPE  H20S15953   1.721   1.666   9.565  1.5174  3.7182 -1.2984
  145SAPE  H20T15954   1.677   1.813   9.665  0.2156  0.5050 -1.7231
  145SAPE   C3315955   1.210   2.102  10.593 -0.1880  0.3328 -0.2215
  145SAPE   H3X15956   1.134   2.029  10.558 -0.6213  0.9325 -0.5527
  145SAPE   H3Y15957   1.309   2.080  10.547  0.5324 -1.6456  2.0741
  145SAPE   C3415958   1.176   2.249  10.561 -0.0511 -0.1488  0.7051
  145SAPE   H4X15959   1.244   2.312  10.622 -1.1533  1.6759  0.1412
  145SAPE   H4Y15960   1.074   2.273  10.599  0.0507  0.8761  0.3763
  145SAPE   C3515961   1.186   2.303  10.414 -0.1764  0.3922 -0.6168
  145SAPE   H5X15962   1.285   2.277  10.371 -0.1077  1.2933 -1.0184
  145SAPE   H5Y15963   1.172   2.413  10.414  0.9700  0.5827 -2.5174
  145SAPE   C3615964   1.079   2.229  10.325 -0.0732  0.2161 -0.3137
  145SAPE   H6X15965   0.983   2.220  10.382  0.5358 -0.3978  0.6437
  145SAPE   H6Y15966   1.115   2.130  10.292  0.3614  0.2435  0.0616
  145SAPE   C3715967   1.034   2.317  10.203  0.2705  0.3081 -0.5246
  145SAPE   H7X15968   0.994   2.415  10.235  0.3218  0.7610 -1.7901
  145SAPE   H7Y15969   0.949   2.263  10.155  1.2180 -1.1204 -0.6583
  145SAPE   C3815970   1.138   2.314  10.094 -0.2648 -0.2040 -0.2415
  145SAPE   H8X15971   1.156   2.207  10.071 -0.3602 -1.2195  3.7286
  145SAPE   H8Y15972   1.237   2.340  10.137  0.4842 -2.1950 -0.6539
  145SAPE   C3915973   1.092   2.397   9.971  0.2240 -0.0973 -0.5579
  145SAPE   H9X15974   1.096   2.502  10.007 -0.8422 -0.4413  0.6281
  145SAPE   H9Y15975   0.987   2.377   9.941  0.8422 -2.2581 -1.4650
  145SAPE  C31015976   1.185   2.363   9.854  0.5060  0.2639  0.4732
  145SAPE  H10X15977   1.168   2.257   9.823  0.6645 -0.0438  1.4173
  145SAPE  H10Y15978   1.290   2.387   9.879  0.5116  1.3320 -0.5061
  145SAPE  C31115979   1.155   2.463   9.740  0.1857  0.6376  0.4502
  145SAPE  H11X15980   1.177   2.564   9.780 -0.6313  0.8056  0.5018
  145SAPE  H11Y15981   1.049   2.458   9.706  0.2529  0.1784  0.2945
  145SAPE  C31215982   1.242   2.454   9.614 -0.3292 -0.1897  0.4509
  145SAPE  H12X15983   1.203   2.517   9.530  3.9953  1.2266 -0.7895
  145SAPE  H12Y15984   1.228   2.354   9.569 -3.1729  1.1911 -2.1542
  145SAPE  C31315985   1.388   2.475   9.633 -0.4456  0.0965  0.2584
  145SAPE  H13X15986   1.441   2.390   9.681  1.6292 -0.2695 -2.4475
  145SAPE  H13Y15987   1.401   2.570   9.689  2.7906  0.0664 -0.2611
  145SAPE  C31415988   1.456   2.495   9.492 -0.1467  0.6592  0.0372
  145SAPE  H14X15989   1.435   2.588   9.435 -0.3784  0.7179  0.2169
  145SAPE  H14Y15990   1.416   2.404   9.442  1.9359 -0.5852  0.5508
  145SAPE  C31515991   1.611   2.467   9.502  0.4395 -0.0495  1.4784
  145SAPE  H15X15992   1.629   2.382   9.571  0.8264 -0.5822  0.7354
  145SAPE  H15Y15993   1.648   2.562   9.545 -2.6487  2.6227 -1.2327
  145SAPE  C31615994   1.676   2.429   9.364 -0.3987 -0.6895 -0.2355
  145SAPE  H16X15995   1.787   2.426   9.375 -0.3939  0.8904  0.3228
  145SAPE  H16Y15996   1.665   2.515   9.295 -2.0540 -0.6533  0.0313
  145SAPE  C31715997   1.616   2.311   9.285 -0.3393 -0.1279 -0.0325
  145SAPE  H17X15998   1.505   2.312   9.280 -0.3777 -0.8708  0.4755
  145SAPE  H17Y15999   1.643   2.220   9.343 -0.3307 -0.3036 -0.3106
  145SAPE  C31816000   1.673   2.301   9.150  0.1920 -0.1636  0.8344
  145SAPE  H18X16001   1.622   2.368   9.077 -1.0542  0.4145  2.1742
  145SAPE  H18Y16002   1.650   2.208   9.095  1.3687  0.6746 -1.1698
  145SAPE  H18Z16003   1.784   2.309   9.149  0.1386  0.7744 -0.8952
  146SAPE     N16004   6.247   2.976  10.872  0.1949 -0.0811 -0.3824
  146SAPE   HN116005   6.188   2.914  10.931 -1.9873  2.7460  0.6475
  146SAPE   HN216006   6.340   2.990  10.916 -0.2949 -2.2600  1.5796
  146SAPE   HN316007   6.190   3.061  10.850  2.9538  2.1950  0.6571
  146SAPE   C1216008   6.273   2.911  10.741  0.0425  0.8595 -0.7609
  146SAPE  H12A16009   6.350   2.969  10.686 -0.3552 -0.7688 -3.2175
  146SAPE  H12B16010   6.183   2.909  10.675 -0.2814 -0.4353 -0.3010
  146SAPE   C1116011   6.323   2.764  10.754 -0.7623 -0.7735  0.1518
  146SAPE  H11A16012   6.426   2.775  10.793 -0.8225 -0.2794  0.1863
  146SAPE  H11B16013   6.338   2.714  10.656 -0.4904  0.2361 -0.3377
  146SAPE     P16014   6.290   2.537  10.884 -0.2028 -0.1941  0.1061
  146SAPE   O1316015   6.429   2.533  10.929 -0.7353 -0.7778 -0.3326
  146SAPE   O1416016   6.200   2.482  10.982  0.4006  0.2830 -0.3847
  146SAPE   O1216017   6.242   2.676  10.838 -0.7403 -0.5556 -0.4601
  146SAPE   O1116018   6.275   2.454  10.754 -0.1447  0.5075 -0.2078
  146SAPE    C116019   6.154   2.461  10.672  0.1903  0.3246  0.3226
  146SAPE    HA16020   6.066   2.405  10.712  1.1862 -1.5827 -0.0655
  146SAPE    HB16021   6.120   2.567  10.668  1.6652  0.8163  0.1898
  146SAPE    C216022   6.173   2.392  10.535 -0.0085  0.1653 -0.6757
  146SAPE    HS16023   6.246   2.456  10.482 -0.6690  1.3712 -0.1788
  146SAPE   O2116024   6.048   2.378  10.463 -0.0229  0.4745 -0.1972
  146SAPE   C2116025   6.013   2.486  10.401 -0.5044 -0.2491 -0.3650
  146SAPE   O2216026   6.073   2.592  10.404  0.3068 -0.0763 -0.5895
  146SAPE   C2216027   5.883   2.454  10.318  0.0728  0.2891  0.2595
  146SAPE   H2R16028   5.815   2.396  10.384  1.0200 -2.7279 -1.2206
  146SAPE   H2S16029   5.847   2.555  10.291 -1.6708  1.0587  4.5263
  146SAPE    C316030   6.234   2.254  10.558 -0.2824 -0.3179 -0.9130
  146SAPE    HX16031   6.166   2.197  10.624 -0.0240  0.4111 -0.0095
  146SAPE    HY16032   6.332   2.256  10.611  0.7647 -2.9962 -2.4852
  146SAPE   O3116033   6.262   2.181  10.439 -0.5503  0.4852  0.1022
  146SAPE   C3116034   6.178   2.109  10.375  0.0923 -0.9074 -0.5528
  146SAPE   O3216035   6.056   2.100  10.390  0.0236 -0.5807  0.4276
  146SAPE   C3216036   6.258   2.040  10.266 -0.0921 -0.2938  0.5768
  146SAPE   H2X16037   6.274   1.935  10.298  0.4862  0.5385  3.2608
  146SAPE   H2Y16038   6.358   2.088  10.253 -0.5546  0.8493  1.0958
  146SAPE   C2316039   5.911   2.385  10.180  0.2213 -0.8222 -0.4765
  146SAPE   H3R16040   5.968   2.291  10.193 -1.0863 -1.5508  0.2106
  146SAPE   H3S16041   5.965   2.460  10.118 -0.9409 -1.7143 -2.6740
  146SAPE   C2416042   5.787   2.347  10.099  0.0350  0.1335 -0.5662
  146SAPE   H4R16043   5.701   2.345  10.169 -0.0040 -2.3824 -0.5896
  146SAPE   H4S16044   5.805   2.240  10.077 -0.2549  0.0646 -0.4664
  146SAPE   C2516045   5.763   2.431   9.978  0.9598  0.2454 -0.1806
  146SAPE   H5R16046   5.821   2.404   9.888 -0.2556  2.6551 -1.7998
  146SAPE   C2616047   5.672   2.529   9.967  0.0682 -0.0258  0.7777
  146SAPE   H6R16048   5.653   2.571   9.867 -0.6816 -3.5944 -0.7507
  146SAPE   C2716049   5.569   2.576  10.068 -0.6586 -0.2503  0.1052
  146SAPE   H7R16050   5.607   2.672  10.109  2.5411 -1.1633 -0.3927
  146SAPE   H7S16051   5.563   2.499  10.148  1.8413  1.2800  1.9316
  146SAPE   C2816052   5.429   2.602  10.004 -0.6810 -0.0102  0.2006
  146SAPE   H8R16053   5.360   2.517  10.021  1.2120 -1.3793  1.5014
  146SAPE   C2916054   5.391   2.708   9.929  0.0644  0.0424  0.7536
  146SAPE   H9R16055   5.285   2.707   9.901 -0.1653  1.7785  1.4445
  146SAPE  C21016056   5.465   2.827   9.889  0.6452 -0.4885  0.2103
  146SAPE  H10R16057   5.501   2.823   9.785 -0.8472  2.3194 -0.5389
  146SAPE  H10S16058   5.552   2.833   9.958 -0.8026 -0.8819  2.1686
  146SAPE  C21116059   5.368   2.946   9.908 -0.2665 -0.7957  0.2496
  146SAPE  H11R16060   5.346   2.964  10.015  0.5588  0.4257  0.2243
  146SAPE  C21216061   5.328   3.040   9.821  0.2487  0.2209  0.5408
  146SAPE  H12R16062   5.268   3.129   9.848  1.2817  1.5522 -1.3373
  146SAPE  C21316063   5.366   3.040   9.676 -0.2635 -0.2551 -0.1274
  146SAPE  H13R16064   5.288   3.024   9.599  0.4814  0.9745 -1.1863
  146SAPE  H13S16065   5.437   2.955   9.664  0.0348 -0.1488  0.7602
  146SAPE  C21416066   5.448   3.166   9.645 -0.5792  0.6112  0.1782
  146SAPE  H14R16067   5.532   3.170   9.716 -1.4118  0.4203  1.2045
  146SAPE  C21516068   5.429   3.266   9.560 -0.0330  0.5710  0.7563
  146SAPE  H15R16069   5.501   3.349   9.554 -0.7624  1.2242  0.9677
  146SAPE  C21616070   5.305   3.279   9.466  0.2113  0.4175  0.3758
  146SAPE  H16R16071   5.249   3.373   9.484 -0.9436 -0.0162 -0.7737
  146SAPE  H16S16072   5.240   3.192   9.490  1.0879 -0.3323  0.1019
  146SAPE  C21716073   5.332   3.263   9.316 -0.9137  0.1419  0.1193
  146SAPE  H17R16074   5.410   3.340   9.297 -0.4969 -0.0001  1.1900
  146SAPE  H17S16075   5.241   3.296   9.262 -0.1588  2.0877 -0.0583
  146SAPE  C21816076   5.385   3.126   9.268  0.5207  0.4285  0.0579
  146SAPE  H18R16077   5.343   3.060   9.346 -0.7519  1.4034  0.2336
  146SAPE  H18S16078   5.494   3.130   9.284  0.4306 -2.9194  2.5236
  146SAPE  C21916079   5.333   3.086   9.123 -0.7308 -0.3073 -0.0382
  146SAPE  H19R16080   5.222   3.079   9.124 -0.8052  0.6492  0.9851
  146SAPE  H19S16081   5.363   2.982   9.101  0.1229 -0.6450  2.4236
  146SAPE  C22016082   5.371   3.180   9.008  0.0874 -0.0731 -0.1559
  146SAPE  H20R16083   5.307   3.270   9.008 -0.0374 -0.1539 -1.1866
  146SAPE  H20S16084   5.357   3.130   8.910 -0.1173  0.0670 -0.1977
  146SAPE  H20T16085   5.477   3.213   9.009 -0.1709  0.8275 -1.1195
  146SAPE   C3316086   6.188   2.032  10.123  0.0102  0.1336 -0.4365
  146SAPE   H3X16087   6.159   2.132  10.086  1.3288  1.1091  1.0394
  146SAPE   H3Y16088   6.095   1.973  10.135 -0.8102  0.0753 -5.2756
  146SAPE   C3416089   6.290   1.970  10.026  0.1323  0.1512  0.0886
  146SAPE   H4X16090   6.314   1.866  10.057  0.8444 -0.7743 -3.2367
  146SAPE   H4Y16091   6.382   2.031  10.023  0.7656 -0.7404  0.9099
  146SAPE   C3516092   6.230   1.971   9.881  0.2225 -0.6311 -0.4781
  146SAPE   H5X16093   6.119   1.972   9.891  0.3500  1.5480  1.6983
  146SAPE   H5Y16094   6.259   1.876   9.832 -0.2342 -0.2929 -1.4269
  146SAPE   C3616095   6.288   2.075   9.785 -0.8457 -0.6348 -0.7749
  146SAPE   H6X16096   6.398   2.061   9.780 -0.9147 -1.6792  0.1825
  146SAPE   H6Y16097   6.267   2.179   9.818 -1.1788  0.4678 -4.1300
  146SAPE   C3716098   6.233   2.053   9.647 -0.3090  0.3299 -0.5766
  146SAPE   H7X16099   6.232   2.156   9.605  1.5738  0.5851 -0.0635
  146SAPE   H7Y16100   6.130   2.017   9.667  0.1616 -0.5702  0.3176
  146SAPE   C3816101   6.311   1.956   9.561 -0.2928 -0.4988 -0.0322
  146SAPE   H8X16102   6.340   1.862   9.613  2.9245 -0.4545 -1.4770
  146SAPE   H8Y16103   6.403   2.007   9.524 -0.1570 -0.7954 -0.1034
  146SAPE   C3916104   6.227   1.916   9.438  0.2543 -0.2925 -0.6356
  146SAPE   H9X16105   6.303   1.869   9.373  2.2637  0.2182  1.2376
  146SAPE   H9Y16106   6.189   2.004   9.382 -0.6862 -0.1516  0.1791
  146SAPE  C31016107   6.105   1.817   9.466 -0.6587  0.0150 -0.7914
  146SAPE  H10X16108   6.024   1.870   9.520 -1.4564 -1.3420 -0.5963
  146SAPE  H10Y16109   6.130   1.744   9.547 -0.6146  0.9481  0.0533
  146SAPE  C31116110   6.056   1.741   9.345 -0.2951 -0.7760  0.6341
  146SAPE  H11X16111   6.132   1.663   9.324 -0.5815 -0.8820 -0.0539
  146SAPE  H11Y16112   6.060   1.806   9.255 -0.8631 -0.3790  0.8907
  146SAPE  C31216113   5.914   1.688   9.373 -0.8440  0.2510 -0.1770
  146SAPE  H12X16114   5.845   1.773   9.392  0.6273  1.6822 -0.9807
  146SAPE  H12Y16115   5.910   1.618   9.459 -0.2798 -1.1123 -1.2236
  146SAPE  C31316116   5.860   1.610   9.256  0.3760 -0.7371 -0.3099
  146SAPE  H13X16117   5.752   1.599   9.279  0.4125  1.5698  1.2545
  146SAPE  H13Y16118   5.902   1.508   9.247 -2.7554 -2.1468 -0.1896
  146SAPE  C31416119   5.882   1.678   9.121  0.1843 -0.0560 -0.2045
  146SAPE  H14X16120   5.991   1.687   9.101  0.8453  2.2367  3.5278
  146SAPE  H14Y16121   5.829   1.776   9.126 -3.0436 -1.7154  1.9592
  146SAPE  C31516122   5.814   1.604   8.999 -0.6716  0.1376  0.4423
  146SAPE  H15X16123   5.705   1.599   9.019 -1.3304 -0.1440 -2.6909
  146SAPE  H15Y16124   5.845   1.498   8.992  0.6669  0.5875 -0.9772
  146SAPE  C31616125   5.832   1.661   8.858  0.1538 -0.4030  0.3416
  146SAPE  H16X16126   5.790   1.763   8.856  1.3153  0.0937 -0.1684
  146SAPE  H16Y16127   5.779   1.593   8.788 -0.9947  0.8799 -0.0719
  146SAPE  C31716128   5.977   1.690   8.819 -0.6669  0.1386  0.0416
  146SAPE  H17X16129   6.047   1.605   8.836 -1.0591  0.1186  1.7500
  146SAPE  H17Y16130   6.014   1.782   8.869  3.5360 -0.1180 -2.1138
  146SAPE  C31816131   6.001   1.722   8.669  0.0469 -0.9380 -0.3848
  146SAPE  H18X16132   5.951   1.819   8.652  1.5043 -0.0250  0.3232
  146SAPE  H18Y16133   5.965   1.643   8.600  1.9250  0.4373 -3.1178
  146SAPE  H18Z16134   6.109   1.746   8.664 -0.0629  0.2622  1.7525
  147SAPE     N16135   2.391   6.010   6.299  0.0072 -0.3898 -0.7213
  147SAPE   HN116136   2.358   5.934   6.236 -1.2395 -0.8428  0.4358
  147SAPE   HN216137   2.307   6.035   6.354  0.8043  0.7382  0.0237
  147SAPE   HN316138   2.418   6.095   6.245  0.0878  1.2360  1.7342
  147SAPE   C1216139   2.511   5.981   6.385  0.5015 -0.7628 -0.4248
  147SAPE  H12A16140   2.596   5.984   6.314  0.3814 -1.4328 -0.6001
  147SAPE  H12B16141   2.493   5.876   6.416 -1.0401 -1.1367 -2.3321
  147SAPE   C1116142   2.518   6.079   6.497  0.5991  0.0697 -0.1786
  147SAPE  H11A16143   2.595   6.050   6.571  0.2924  0.2027  0.1966
  147SAPE  H11B16144   2.425   6.096   6.556 -0.7723  0.5128 -2.3320
  147SAPE     P16145   2.703   6.244   6.426  0.0185  0.1138 -0.4045
  147SAPE   O1316146   2.793   6.130   6.437  0.2638  0.2503 -0.2682
  147SAPE   O1416147   2.723   6.351   6.325  0.2759  0.0905  0.6620
  147SAPE   O1216148   2.548   6.205   6.435 -0.1768 -0.0384  0.8472
  147SAPE   O1116149   2.718   6.313   6.568  0.0247  0.3157  0.4997
  147SAPE    C116150   2.635   6.417   6.615 -0.0501  0.1706 -0.4672
  147SAPE    HA16151   2.699   6.503   6.643  1.7865 -0.7065 -1.7401
  147SAPE    HB16152   2.551   6.442   6.548  0.4028 -0.3277 -1.2370
  147SAPE    C216153   2.568   6.365   6.748  0.5748  0.0090 -0.1812
  147SAPE    HS16154   2.489   6.292   6.719  0.5325 -0.7938  1.7789
  147SAPE   O2116155   2.505   6.474   6.812  0.0425 -0.1300 -0.0426
  147SAPE   C2116156   2.394   6.458   6.884 -0.0828 -0.5161  0.1701
  147SAPE   O2216157   2.320   6.358   6.879 -0.1383  0.1011 -0.0625
  147SAPE   C2216158   2.376   6.569   6.980 -0.4026 -0.2167 -0.2007
  147SAPE   H2R16159   2.431   6.658   6.945  1.3447 -0.6767  1.2164
  147SAPE   H2S16160   2.270   6.598   6.992 -0.6030 -1.2641  0.7543
  147SAPE    C316161   2.675   6.297   6.841  0.6845 -0.1627 -0.0982
  147SAPE    HX16162   2.760   6.368   6.835 -0.6030  1.4312 -0.2764
  147SAPE    HY16163   2.714   6.205   6.792  1.6930 -0.4218  1.1383
  147SAPE   O3116164   2.632   6.285   6.976  0.3122  0.5395 -0.5055
  147SAPE   C3116165   2.561   6.175   6.997 -0.2123  0.0945 -0.4333
  147SAPE   O3216166   2.520   6.094   6.925 -0.3727  0.0045  0.0235
  147SAPE   C3216167   2.512   6.178   7.147  0.0096  0.5579 -0.3583
  147SAPE   H2X16168   2.419   6.238   7.158  0.2629  0.5874  2.3888
  147SAPE   H2Y16169   2.596   6.223   7.205  1.7956  0.5161 -2.7256
  147SAPE   C2316170   2.429   6.538   7.118 -0.2748 -0.4519  0.3424
  147SAPE   H3R16171   2.520   6.475   7.108 -1.0327 -1.6115  0.5382
  147SAPE   H3S16172   2.357   6.471   7.170 -0.1822 -0.9357 -0.1460
  147SAPE   C2416173   2.453   6.659   7.215 -0.2452  0.2414  0.8539
  147SAPE   H4R16174   2.362   6.720   7.235 -1.2738 -0.9042 -0.1404
  147SAPE   H4S16175   2.504   6.742   7.161 -0.5536 -0.2927 -0.2839
  147SAPE   C2516176   2.520   6.617   7.336 -0.1107  0.1126  0.0087
  147SAPE   H5R16177   2.618   6.572   7.317  0.0868  1.4079 -2.5233
  147SAPE   C2616178   2.474   6.625   7.460 -0.2002 -0.1488 -0.1316
  147SAPE   H6R16179   2.538   6.584   7.539  2.9590  1.6640 -1.5327
  147SAPE   C2716180   2.347   6.685   7.510 -0.1199 -0.1803  1.0226
  147SAPE   H7R16181   2.301   6.625   7.592 -2.7512 -0.0735 -0.2689
  147SAPE   H7S16182   2.264   6.683   7.435  0.6089  0.2197  0.1916
  147SAPE   C2816183   2.373   6.828   7.547 -0.7415 -0.4630 -0.2004
  147SAPE   H8R16184   2.354   6.894   7.461  1.9851  1.1408  0.3192
  147SAPE   C2916185   2.403   6.899   7.657 -0.3717  0.0100 -0.5627
  147SAPE   H9R16186   2.420   7.008   7.653  2.8595 -0.2403  1.9641
  147SAPE  C21016187   2.424   6.836   7.789  0.8839 -0.5054  0.1569
  147SAPE  H10R16188   2.520   6.858   7.840  1.1954  0.8953 -0.9666
  147SAPE  H10S16189   2.426   6.725   7.789  2.4070 -0.5238  1.6241
  147SAPE  C21116190   2.297   6.876   7.866  0.3701 -0.2402  0.6848
  147SAPE  H11R16191   2.209   6.917   7.815  2.0092  0.2222 -1.9623
  147SAPE  C21216192   2.267   6.842   7.987  0.5451  0.1203  0.3181
  147SAPE  H12R16193   2.172   6.874   8.030  0.2881  0.6057 -0.5880
  147SAPE  C21316194   2.367   6.773   8.084 -0.2327  0.7618  0.4403
  147SAPE  H13R16195   2.440   6.843   8.130  0.1586  0.5641  0.1297
  147SAPE  H13S16196   2.413   6.696   8.018 -0.7517  1.3414 -0.6331
  147SAPE  C21416197   2.288   6.709   8.206  0.1056 -0.4851  1.1637
  147SAPE  H14R16198   2.267   6.601   8.199  1.7547 -0.8650  1.5530
  147SAPE  C21516199   2.255   6.775   8.316  0.3018 -0.4094 -0.8415
  147SAPE  H15R16200   2.190   6.728   8.392  3.4967  0.3395  2.6347
  147SAPE  C21616201   2.284   6.918   8.337 -0.6684 -0.0244  0.2252
  147SAPE  H16R16202   2.188   6.974   8.332 -0.6692 -0.1188 -1.3719
  147SAPE  H16S16203   2.349   6.954   8.255 -1.6414 -0.5516 -0.8147
  147SAPE  C21716204   2.352   6.946   8.464 -0.5209 -0.3179  0.1309
  147SAPE  H17R16205   2.368   7.055   8.453 -0.3404 -0.3172  0.3867
  147SAPE  H17S16206   2.451   6.896   8.467 -0.8310 -1.0270 -0.7877
  147SAPE  C21816207   2.281   6.927   8.600 -0.2147 -0.0695 -0.0919
  147SAPE  H18R16208   2.242   6.823   8.597 -0.2023 -0.0586 -0.7255
  147SAPE  H18S16209   2.193   6.995   8.596  0.4060  0.8043  0.6803
  147SAPE  C21916210   2.364   6.951   8.728  0.6713  0.6269  0.2438
  147SAPE  H19R16211   2.438   6.869   8.738 -1.3149 -1.1004  1.8801
  147SAPE  H19S16212   2.310   6.947   8.825  1.6749 -1.3857  0.7588
  147SAPE  C22016213   2.442   7.082   8.729  0.0616 -0.1249  0.0873
  147SAPE  H20R16214   2.493   7.095   8.827  1.9180 -0.3355 -0.7969
  147SAPE  H20S16215   2.371   7.167   8.720  0.5818  0.1800 -1.4428
  147SAPE  H20T16216   2.518   7.074   8.648  1.7090 -0.2909  1.5860
  147SAPE   C3316217   2.483   6.037   7.196  0.2624  0.7835 -0.4799
  147SAPE   H3X16218   2.557   5.963   7.158 -1.7024 -2.4404  1.4228
  147SAPE   H3Y16219   2.388   5.994   7.156  1.0628  0.0221 -1.6030
  147SAPE   C3416220   2.479   6.027   7.350  0.1952  0.0422  0.2391
  147SAPE   H4X16221   2.576   6.061   7.391  1.3443 -1.5064 -1.0712
  147SAPE   H4Y16222   2.447   5.923   7.374 -4.7827  0.8134 -1.7034
  147SAPE   C3516223   2.376   6.121   7.402 -0.8345  0.7745  0.1563
  147SAPE   H5X16224   2.280   6.069   7.379  1.1049 -3.5737  0.7660
  147SAPE   H5Y16225   2.367   6.222   7.358  1.8277  0.4365 -1.3984
  147SAPE   C3616226   2.375   6.141   7.558  0.5178 -0.1776  0.9058
  147SAPE   H6X16227   2.282   6.195   7.588  0.1115  0.1148 -0.7734
  147SAPE   H6Y16228   2.456   6.204   7.599  0.4564 -0.5355  1.5749
  147SAPE   C3716229   2.379   6.005   7.629 -0.1534  0.0966  0.2609
  147SAPE   H7X16230   2.483   5.968   7.621 -0.7607 -1.7508  0.4698
  147SAPE   H7Y16231   2.307   5.936   7.580  0.1869 -0.5465  0.6673
  147SAPE   C3816232   2.350   6.028   7.781  0.2909 -0.9137 -0.0356
  147SAPE   H8X16233   2.252   6.079   7.782  1.2386  1.0516 -1.5914
  147SAPE   H8Y16234   2.426   6.098   7.823  0.3146 -1.5854  1.1107
  147SAPE   C3916235   2.337   5.896   7.863 -0.8394 -0.0476 -0.4327
  147SAPE   H9X16236   2.435   5.845   7.848 -0.7894 -0.9578  2.4534
  147SAPE   H9Y16237   2.265   5.828   7.812  0.0616  0.7548 -2.9608
  147SAPE  C31016238   2.331   5.915   8.015  0.1084  0.1099  0.7705
  147SAPE  H10X16239   2.416   5.980   8.045 -1.5424  1.9422  1.7556
  147SAPE  H10Y16240   2.344   5.820   8.070  0.3415 -1.5457 -1.9846
  147SAPE  C31116241   2.203   5.978   8.085 -0.0563  0.3307 -0.3172
  147SAPE  H11X16242   2.112   5.923   8.054 -0.8043  1.2113  0.2630
  147SAPE  H11Y16243   2.186   6.081   8.047  2.6462  1.1968  0.5670
  147SAPE  C31216244   2.225   5.981   8.233 -0.2104 -0.2145 -0.5263
  147SAPE  H12X16245   2.285   5.891   8.258  2.7302  1.8716  0.4882
  147SAPE  H12Y16246   2.124   5.972   8.280 -0.0137  0.1352 -0.0323
  147SAPE  C31316247   2.309   6.103   8.279  0.0120  0.2450 -0.0842
  147SAPE  H13X16248   2.396   6.116   8.211  0.7863 -1.4051  0.5343
  147SAPE  H13Y16249   2.348   6.072   8.379  0.3746  1.8312  0.2968
  147SAPE  C31416250   2.220   6.222   8.304  0.2003 -0.0945 -0.6576
  147SAPE  H14X16251   2.117   6.202   8.341  0.0056 -1.7985 -2.0003
  147SAPE  H14Y16252   2.211   6.279   8.210 -0.0694 -0.3491 -0.7885
  147SAPE  C31516253   2.291   6.325   8.399 -0.6881 -0.0149 -0.7842
  147SAPE  H15X16254   2.303   6.275   8.497  0.8431 -0.3147 -1.0835
  147SAPE  H15Y16255   2.214   6.402   8.417 -2.2967 -2.1364  2.2804
  147SAPE  C31616256   2.422   6.386   8.349 -0.3575 -0.0095 -0.0305
  147SAPE  H16X16257   2.410   6.434   8.250 -2.2449 -2.3648 -1.0523
  147SAPE  H16Y16258   2.508   6.316   8.348 -0.9588 -0.7749  0.5303
  147SAPE  C31716259   2.472   6.497   8.445  0.0882  0.1758  0.2845
  147SAPE  H17X16260   2.390   6.571   8.451 -0.8978 -0.4245 -3.5440
  147SAPE  H17Y16261   2.565   6.546   8.409  0.7627  0.0071  1.7153
  147SAPE  C31816262   2.508   6.452   8.585 -0.8093  0.5045  0.3610
  147SAPE  H18X16263   2.600   6.391   8.594 -0.7599  0.3297 -1.1319
  147SAPE  H18Y16264   2.435   6.380   8.627  1.5899 -0.7962  2.5855
  147SAPE  H18Z16265   2.523   6.544   8.646  2.8474  0.0194  0.4007
  148SAPE     N16266   1.703   4.584   6.583  0.2025  0.3218  0.4126
  148SAPE   HN116267   1.763   4.506   6.549  0.5995  0.0249  1.7140
  148SAPE   HN216268   1.618   4.595   6.524  1.1627 -0.6924 -1.2292
  148SAPE   HN316269   1.763   4.669   6.587  1.6687 -0.5415 -1.4511
  148SAPE   C1216270   1.664   4.549   6.722 -0.2422  0.4562 -0.4539
  148SAPE  H12A16271   1.578   4.612   6.755 -0.6499 -0.8682  1.1200
  148SAPE  H12B16272   1.747   4.583   6.788 -0.2682  0.2121 -0.2932
  148SAPE   C1116273   1.644   4.397   6.735 -0.4012 -0.2156 -0.8958
  148SAPE  H11A16274   1.625   4.366   6.840 -0.0842 -0.2343 -0.8456
  148SAPE  H11B16275   1.745   4.355   6.715 -0.0721 -0.9415  1.8457
  148SAPE     P16276   1.386   4.348   6.678 -0.7064 -0.1429  0.3416
  148SAPE   O1316277   1.338   4.470   6.617  0.2737  0.2202 -0.7267
  148SAPE   O1416278   1.324   4.222   6.625 -0.4152 -0.3425  0.1585
  148SAPE   O1216279   1.544   4.342   6.650 -0.7806  0.9691 -0.3801
  148SAPE   O1116280   1.378   4.359   6.831 -0.0213 -0.7194 -0.2501
  148SAPE    C116281   1.258   4.305   6.896 -0.0155 -0.1373 -0.1873
  148SAPE    HA16282   1.235   4.202   6.860  2.9503 -0.7880 -0.4536
  148SAPE    HB16283   1.282   4.293   7.004 -1.9690 -2.1052  0.0874
  148SAPE    C216284   1.132   4.401   6.899  0.6048 -0.9534 -0.2771
  148SAPE    HS16285   1.114   4.445   6.799 -2.1927  0.1328  0.6323
  148SAPE   O2116286   1.155   4.515   6.980  0.1887 -0.3134 -0.2015
  148SAPE   C2116287   1.077   4.623   6.961 -0.1610 -0.7884  0.3710
  148SAPE   O2216288   1.002   4.645   6.868  0.8288  0.9206 -0.4882
  148SAPE   C2216289   1.096   4.713   7.070  0.2156 -0.1290 -0.6805
  148SAPE   H2R16290   1.017   4.705   7.147  0.3762  0.6247 -0.4329
  148SAPE   H2S16291   1.198   4.702   7.113 -0.4493  1.7040  1.5746
  148SAPE    C316292   1.010   4.317   6.952 -0.0422 -0.3264  0.6902
  148SAPE    HX16293   0.997   4.233   6.880 -1.5382  0.5584 -0.1231
  148SAPE    HY16294   0.918   4.379   6.940  0.5121  0.7662  1.8774
  148SAPE   O3116295   1.031   4.279   7.082 -0.2327  0.1811 -0.2549
  148SAPE   C3116296   0.976   4.359   7.177 -0.7255 -0.2249  0.2348
  148SAPE   O3216297   0.910   4.459   7.154  0.3010 -0.1651  0.1908
  148SAPE   C3216298   1.021   4.322   7.319 -0.0219  0.3123 -0.2446
  148SAPE   H2X16299   1.099   4.244   7.320 -2.4839 -2.3204  1.1548
  148SAPE   H2Y16300   0.939   4.268   7.372 -0.5099  0.5276 -0.7653
  148SAPE   C2316301   1.101   4.863   7.030 -0.0933  0.7606  0.2788
  148SAPE   H3R16302   1.113   4.922   7.123 -1.4043 -1.2160  1.7700
  148SAPE   H3S16303   1.007   4.890   6.978  1.0179  2.3063 -1.0295
  148SAPE   C2416304   1.217   4.887   6.942  0.0157  0.0797  0.1422
  148SAPE   H4R16305   1.220   4.817   6.855 -2.7815  0.6255 -0.4915
  148SAPE   H4S16306   1.308   4.864   7.001 -0.7508 -2.0003  0.6142
  148SAPE   C2516307   1.215   5.030   6.885  0.1760 -0.0724 -0.3353
  148SAPE   H5R16308   1.165   5.036   6.788 -0.8563  0.5130  0.2183
  148SAPE   C2616309   1.270   5.139   6.935  0.3973  0.1416 -0.0568
  148SAPE   H6R16310   1.282   5.231   6.876 -0.2744  0.5551  0.4272
  148SAPE   C2716311   1.342   5.145   7.071  0.3986 -0.3540  0.1387
  148SAPE   H7R16312   1.305   5.064   7.137 -2.0316 -0.2726 -1.0291
  148SAPE   H7S16313   1.309   5.243   7.111  1.5582 -0.0985  0.5182
  148SAPE   C2816314   1.492   5.138   7.054  0.1236  0.0782  0.2556
  148SAPE   H8R16315   1.533   5.065   6.983 -3.0820  0.8683 -2.6828
  148SAPE   C2916316   1.576   5.231   7.104 -0.4397  0.2781 -0.4789
  148SAPE   H9R16317   1.685   5.228   7.092 -0.5366 -0.6644 -1.1823
  148SAPE  C21016318   1.533   5.343   7.194 -0.3856  0.4217 -0.7996
  148SAPE  H10R16319   1.470   5.414   7.137  0.5101  1.4408 -0.5643
  148SAPE  H10S16320   1.626   5.399   7.219 -0.6716 -0.3638  2.6133
  148SAPE  C21116321   1.464   5.326   7.330  0.8575  0.2000  0.2609
  148SAPE  H11R16322   1.376   5.260   7.320  0.6082  0.6485 -0.6033
  148SAPE  C21216323   1.492   5.378   7.449 -0.3069  0.8765  0.3651
  148SAPE  H12R16324   1.455   5.331   7.541  0.2183  0.2838  0.2779
  148SAPE  C21316325   1.612   5.468   7.470  0.0826  0.2739  0.4531
  148SAPE  H13R16326   1.643   5.527   7.381  1.2094 -1.9657 -0.7128
  148SAPE  H13S16327   1.708   5.411   7.470  0.0556  0.2283  0.3888
  148SAPE  C21416328   1.599   5.560   7.584 -0.6995 -0.4852  0.1360
  148SAPE  H14R16329   1.586   5.667   7.562 -1.4702 -0.1011  2.2494
  148SAPE  C21516330   1.613   5.525   7.714 -1.0964 -0.1943  0.1217
  148SAPE  H15R16331   1.609   5.605   7.788  2.2562  0.8386 -0.6150
  148SAPE  C21616332   1.647   5.389   7.766  0.6355 -0.2800 -0.3617
  148SAPE  H16R16333   1.734   5.339   7.718 -0.2450 -2.9442  0.6325
  148SAPE  H16S16334   1.559   5.324   7.748  0.5953 -0.2807 -0.1693
  148SAPE  C21716335   1.689   5.401   7.915 -0.2192 -0.3597 -0.6846
  148SAPE  H17R16336   1.605   5.446   7.973 -0.5787 -1.9059  0.0559
  148SAPE  H17S16337   1.767   5.478   7.931 -0.4080 -0.6532  2.1714
  148SAPE  C21816338   1.725   5.267   7.982  0.5648 -0.7080 -0.4973
  148SAPE  H18R16339   1.819   5.248   7.927  1.2623  0.7901  0.1067
  148SAPE  H18S16340   1.650   5.191   7.954  0.4778 -0.2654 -1.4904
  148SAPE  C21916341   1.752   5.248   8.133  0.3360 -0.7115 -0.4165
  148SAPE  H19R16342   1.780   5.141   8.146 -0.1153 -0.7168  0.6320
  148SAPE  H19S16343   1.650   5.265   8.175  1.1709  0.1874  1.3634
  148SAPE  C22016344   1.854   5.344   8.196 -0.2375 -0.4683 -0.0555
  148SAPE  H20R16345   1.837   5.451   8.171  1.5042 -0.3095 -0.6682
  148SAPE  H20S16346   1.949   5.305   8.154 -0.2341 -1.9068  1.2111
  148SAPE  H20T16347   1.853   5.327   8.306  4.3939 -1.1487  0.0863
  148SAPE   C3316348   1.080   4.452   7.393  0.0246  0.4644 -0.9271
  148SAPE   H3X16349   1.026   4.546   7.369  2.0502  2.0347  0.4136
  148SAPE   H3Y16350   1.181   4.477   7.355  0.6866  3.1273  2.1481
  148SAPE   C3416351   1.087   4.418   7.550 -0.2831 -0.3406 -0.4687
  148SAPE   H4X16352   1.142   4.322   7.557  2.4168  1.1077 -0.8150
  148SAPE   H4Y16353   0.988   4.391   7.594 -0.2751  0.5661  0.1150
  148SAPE   C3516354   1.156   4.531   7.625 -0.0254 -0.3828  0.6352
  148SAPE   H5X16355   1.105   4.620   7.581 -1.0803 -1.7589 -1.0553
  148SAPE   H5Y16356   1.265   4.534   7.606 -0.0481  0.4876  0.5846
  148SAPE   C3616357   1.138   4.509   7.781 -0.6274 -0.5563 -0.7856
  148SAPE   H6X16358   1.192   4.416   7.807  0.9696  0.1521 -1.4175
  148SAPE   H6Y16359   1.030   4.493   7.797 -0.7789  1.2557  0.2751
  148SAPE   C3716360   1.196   4.631   7.856  0.4816  0.2210  0.1598
  148SAPE   H7X16361   1.148   4.727   7.828  0.5379  0.3010  0.3446
  148SAPE   H7Y16362   1.302   4.629   7.822  0.1273  0.7888 -1.0549
  148SAPE   C3816363   1.177   4.602   8.003 -1.2598  0.2358 -0.9164
  148SAPE   H8X16364   1.214   4.505   8.043 -0.3823  0.8720 -0.1484
  148SAPE   H8Y16365   1.067   4.613   8.010 -0.9433  2.7305  2.1246
  148SAPE   C3916366   1.235   4.712   8.086 -0.8599  0.1230 -1.0083
  148SAPE   H9X16367   1.186   4.811   8.072 -0.4740  0.0615 -3.2558
  148SAPE   H9Y16368   1.343   4.729   8.069 -0.6384  0.2196  0.4437
  148SAPE  C31016369   1.195   4.693   8.235  0.3680 -0.4867 -0.1964
  148SAPE  H10X16370   1.086   4.672   8.223  0.3637  0.7028 -3.2320
  148SAPE  H10Y16371   1.214   4.790   8.287  1.4965 -0.9484  0.2731
  148SAPE  C31116372   1.280   4.585   8.301  0.2849  0.6029 -1.1152
  148SAPE  H11X16373   1.347   4.529   8.232  1.0796  1.1041 -0.7564
  148SAPE  H11Y16374   1.202   4.516   8.339  0.3437  1.9337  1.6163
  148SAPE  C31216375   1.345   4.644   8.426 -0.0079 -0.4557  0.4845
  148SAPE  H12X16376   1.270   4.646   8.508 -0.0975 -1.0777  0.4240
  148SAPE  H12Y16377   1.390   4.743   8.404 -0.5987 -0.1988  0.4407
  148SAPE  C31316378   1.457   4.549   8.473  0.2944  0.1849  0.0952
  148SAPE  H13X16379   1.525   4.532   8.386  1.7070 -0.3746  1.2811
  148SAPE  H13Y16380   1.419   4.446   8.491 -1.5969  0.8278  0.0543
  148SAPE  C31416381   1.536   4.589   8.607  0.0194  1.0511 -0.9037
  148SAPE  H14X16382   1.481   4.561   8.699  0.9395  0.4119 -0.5366
  148SAPE  H14Y16383   1.548   4.699   8.596  1.1094  0.8107 -2.4488
  148SAPE  C31516384   1.678   4.531   8.618  0.6440 -0.5511  0.4419
  148SAPE  H15X16385   1.725   4.580   8.706  0.5026 -0.4797  0.4797
  148SAPE  H15Y16386   1.743   4.564   8.534 -0.3135  0.7877  0.1841
  148SAPE  C31616387   1.670   4.380   8.630 -0.3348  0.3904 -0.1400
  148SAPE  H16X16388   1.648   4.332   8.532 -1.8349 -2.0517  1.3047
  148SAPE  H16Y16389   1.580   4.354   8.690 -0.7678 -0.0175 -0.9572
  148SAPE  C31716390   1.790   4.309   8.688 -0.6754  0.6673 -0.4508
  148SAPE  H17X16391   1.802   4.330   8.796 -3.6850 -0.0658  0.1205
  148SAPE  H17Y16392   1.870   4.348   8.621 -0.8740  3.4269  0.7947
  148SAPE  C31816393   1.783   4.151   8.669  0.5359 -0.0485 -0.5440
  148SAPE  H18X16394   1.887   4.111   8.677  0.2139 -0.7332  0.3272
  148SAPE  H18Y16395   1.763   4.122   8.564 -1.0584  2.3168 -0.9732
  148SAPE  H18Z16396   1.714   4.090   8.732  0.5739  0.4301 -0.0261
  149SAPE     N16397   1.121   5.842   6.514 -0.7693  0.1143  0.2901
  149SAPE   HN116398   1.177   5.755   6.500  0.1127  0.7022  0.0607
  149SAPE   HN216399   1.061   5.827   6.597  1.3509 -0.0696  1.8864
  149SAPE   HN316400   1.059   5.841   6.431  0.8806  0.6306 -1.0150
  149SAPE   C1216401   1.206   5.966   6.513  0.7405 -0.1346 -0.6715
  149SAPE  H12A16402   1.252   5.966   6.411 -1.2567 -2.5288 -1.6717
  149SAPE  H12B16403   1.291   5.950   6.583 -0.6968 -0.7110  0.9859
  149SAPE   C1116404   1.128   6.096   6.530  0.2817 -0.7497 -0.3300
  149SAPE  H11A16405   1.186   6.184   6.496 -0.6699  0.3945  0.9194
  149SAPE  H11B16406   1.105   6.117   6.636 -2.2223  1.7208 -1.2653
  149SAPE     P16407   0.912   6.208   6.409 -0.4949  0.2284  0.2047
  149SAPE   O1316408   0.989   6.335   6.393  0.2975  0.0756  0.3414
  149SAPE   O1416409   0.823   6.165   6.301  0.1752 -0.2909  0.0297
  149SAPE   O1216410   1.006   6.089   6.463  0.5394  0.2649 -0.0424
  149SAPE   O1116411   0.815   6.225   6.531  0.4028 -0.6707  0.0513
  149SAPE    C116412   0.810   6.351   6.605  0.7825 -0.0257 -0.4429
  149SAPE    HA16413   0.810   6.438   6.535 -0.6169 -1.3254 -2.1854
  149SAPE    HB16414   0.712   6.358   6.657  1.4018  0.9611  0.6321
  149SAPE    C216415   0.926   6.377   6.709  0.6157 -0.2757  0.2211
  149SAPE    HS16416   1.018   6.386   6.648  0.2498 -0.1742 -0.3280
  149SAPE   O2116417   0.928   6.268   6.805  0.4592 -0.0639 -0.0407
  149SAPE   C2116418   1.041   6.239   6.855 -0.7573  0.6257 -0.7268
  149SAPE   O2216419   1.144   6.305   6.846 -0.2751  0.1101 -0.6932
  149SAPE   C2216420   1.020   6.118   6.935  0.1439  0.7267  0.0592
  149SAPE   H2R16421   0.920   6.122   6.983  0.1676  1.8929  0.0421
  149SAPE   H2S16422   1.014   6.029   6.869 -2.9949  0.5922  0.3627
  149SAPE    C316423   0.926   6.515   6.778  0.3949  0.0849  0.4361
  149SAPE    HX16424   0.927   6.598   6.705  2.8938  1.4265  1.8811
  149SAPE    HY16425   1.017   6.539   6.837 -0.1274 -0.5180  1.5303
  149SAPE   O3116426   0.809   6.524   6.859  0.9267  0.2661  0.1550
  149SAPE   C3116427   0.827   6.481   6.983 -0.7129  0.0414 -0.5578
  149SAPE   O3216428   0.931   6.477   7.046 -0.2604  0.3808 -0.3473
  149SAPE   C3216429   0.691   6.455   7.054 -0.1315 -0.3949 -0.0905
  149SAPE   H2X16430   0.662   6.361   7.004 -0.6745 -0.8875  1.1102
  149SAPE   H2Y16431   0.624   6.540   7.028  0.5949  0.5963  1.1482
  149SAPE   C2316432   1.134   6.096   7.047  0.4592 -0.1614  0.8222
  149SAPE   H3R16433   1.237   6.106   7.008  0.2630 -0.7133  0.1273
  149SAPE   H3S16434   1.112   5.998   7.094 -1.5541  0.0740  0.4554
  149SAPE   C2416435   1.123   6.192   7.172 -0.7980  0.0020 -0.5890
  149SAPE   H4R16436   1.134   6.297   7.137 -1.5759  0.6581  0.9854
  149SAPE   H4S16437   1.207   6.170   7.241 -1.9310 -0.9477  0.5439
  149SAPE   C2516438   0.989   6.186   7.240 -0.8859  0.2409 -0.2249
  149SAPE   H5R16439   0.914   6.250   7.191 -0.1969  1.3676  0.1596
  149SAPE   C2616440   0.958   6.112   7.345 -0.0820 -0.0536 -0.3382
  149SAPE   H6R16441   0.855   6.119   7.384 -0.3305 -0.2449 -0.9502
  149SAPE   C2716442   1.043   6.016   7.427 -0.4634  0.2690  0.5533
  149SAPE   H7R16443   1.026   6.029   7.536  3.4949  2.8191  1.0767
  149SAPE   H7S16444   1.152   6.036   7.425  0.2041 -2.9452 -0.7829
  149SAPE   C2816445   1.019   5.876   7.382  0.8721 -0.5175  0.8585
  149SAPE   H8R16446   1.080   5.854   7.292  0.6081  1.0884  0.2511
  149SAPE   C2916447   0.931   5.787   7.435  0.4091 -0.1966  0.5048
  149SAPE   H9R16448   0.940   5.687   7.391  2.9291  0.2193 -0.0742
  149SAPE  C21016449   0.845   5.816   7.556 -0.1651  0.3423 -0.2897
  149SAPE  H10R16450   0.743   5.778   7.535  0.0085 -1.0470  1.2142
  149SAPE  H10S16451   0.832   5.926   7.570  1.6057  0.5963 -0.4905
  149SAPE  C21116452   0.870   5.746   7.683 -0.3548 -0.0196  0.1386
  149SAPE  H11R16453   0.907   5.643   7.669  1.5251  0.7901 -1.3268
  149SAPE  C21216454   0.853   5.793   7.809 -0.2304  1.6349 -0.5768
  149SAPE  H12R16455   0.852   5.717   7.888 -3.7028  0.0652 -1.9003
  149SAPE  C21316456   0.804   5.929   7.858  0.6435 -0.3699  0.1699
  149SAPE  H13R16457   0.754   5.913   7.956 -1.3561 -0.3983 -0.7971
  149SAPE  H13S16458   0.730   5.964   7.783  1.4875 -0.0880 -0.5517
  149SAPE  C21416459   0.913   6.034   7.867 -0.1094 -0.1600 -0.9796
  149SAPE  H14R16460   0.968   6.050   7.773 -3.1662  1.1745 -2.6730
  149SAPE  C21516461   0.947   6.103   7.971  0.2519 -0.0368 -0.1042
  149SAPE  H15R16462   1.039   6.162   7.986  0.2222 -0.6075  3.2158
  149SAPE  C21616463   0.884   6.091   8.109 -0.0937  0.2229 -0.0998
  149SAPE  H16R16464   0.776   6.065   8.100  0.0346  0.4505 -2.9952
  149SAPE  H16S16465   0.900   6.185   8.166  3.9872  1.0357 -2.1976
  149SAPE  C21716466   0.931   5.973   8.193  0.2436 -1.0514 -1.1335
  149SAPE  H17R16467   1.042   5.985   8.196  0.0425  1.1155  0.2909
  149SAPE  H17S16468   0.908   5.880   8.138 -2.9352 -1.2556  0.3654
  149SAPE  C21816469   0.877   5.975   8.345 -0.3079  0.7120  0.1206
  149SAPE  H18R16470   0.768   5.957   8.348 -0.6289  2.2975 -0.9448
  149SAPE  H18S16471   0.895   6.077   8.387 -1.3641  0.6558  0.7287
  149SAPE  C21916472   0.949   5.870   8.430  0.0179  0.3304 -0.4025
  149SAPE  H19R16473   0.949   5.902   8.537  1.8642 -2.6811  0.6213
  149SAPE  H19S16474   1.055   5.855   8.401  0.4934 -1.2827  1.9148
  149SAPE  C22016475   0.887   5.727   8.423  1.4813 -0.1271 -0.5495
  149SAPE  H20R16476   0.928   5.666   8.506 -0.7247  0.5338  1.1255
  149SAPE  H20S16477   0.920   5.677   8.329  1.8667 -1.1167  0.1027
  149SAPE  H20T16478   0.777   5.739   8.423  1.5412  0.7684  1.5938
  149SAPE   C3316479   0.710   6.443   7.204 -0.4263 -0.6056 -0.5785
  149SAPE   H3X16480   0.708   6.543   7.253 -0.5167 -0.5478 -0.7000
  149SAPE   H3Y16481   0.806   6.398   7.235 -0.8363 -0.3987  1.0924
  149SAPE   C3416482   0.590   6.352   7.263 -1.4947 -0.0541  0.3547
  149SAPE   H4X16483   0.601   6.250   7.218  0.5343 -0.0659  0.7991
  149SAPE   H4Y16484   0.484   6.384   7.257 -1.7194 -0.9853 -1.9699
  149SAPE   C3516485   0.617   6.325   7.412 -0.0865  0.4761  0.0551
  149SAPE   H5X16486   0.614   6.416   7.476 -1.6617  0.4351  0.0874
  149SAPE   H5Y16487   0.726   6.302   7.414 -0.2616 -0.3154  1.0946
  149SAPE   C3616488   0.538   6.211   7.463 -0.4072 -0.6833 -0.4299
  149SAPE   H6X16489   0.552   6.119   7.401  0.6300 -2.0766  1.7557
  149SAPE   H6Y16490   0.429   6.225   7.449 -0.5471 -2.9683 -2.4960
  149SAPE   C3716491   0.580   6.165   7.603  0.4454 -0.2976  0.1907
  149SAPE   H7X16492   0.690   6.156   7.608  0.3789 -0.9706  0.5050
  149SAPE   H7Y16493   0.535   6.064   7.608  0.9306 -0.4650  1.3240
  149SAPE   C3816494   0.527   6.260   7.714  0.3157  0.2306 -0.6747
  149SAPE   H8X16495   0.432   6.309   7.683  0.3194 -0.1449 -1.3038
  149SAPE   H8Y16496   0.605   6.336   7.733  0.0068  0.7257 -1.3544
  149SAPE   C3916497   0.496   6.184   7.842 -0.1428 -0.2987  0.3106
  149SAPE   H9X16498   0.590   6.128   7.865 -0.1726  0.4635  2.6375
  149SAPE   H9Y16499   0.424   6.102   7.820  0.6969 -2.0205  3.2819
  149SAPE  C31016500   0.452   6.263   7.974 -0.4414 -0.0548 -0.1854
  149SAPE  H10X16501   0.354   6.313   7.958  0.1069  1.0094 -0.3196
  149SAPE  H10Y16502   0.525   6.346   7.982 -0.0034 -0.4139 -0.3854
  149SAPE  C31116503   0.463   6.180   8.109  0.1172 -0.3972 -0.3187
  149SAPE  H11X16504   0.541   6.101   8.104 -0.1967 -0.8157  0.9814
  149SAPE  H11Y16505   0.366   6.128   8.121  0.1875 -0.4531  0.0070
  149SAPE  C31216506   0.468   6.263   8.238  0.2377 -0.4631 -0.4010
  149SAPE  H12X16507   0.406   6.355   8.231  1.7062  0.5267 -0.9842
  149SAPE  H12Y16508   0.576   6.288   8.252  0.2060 -1.2212  1.5872
  149SAPE  C31316509   0.432   6.167   8.353  0.1402  0.2131  0.1074
  149SAPE  H13X16510   0.469   6.063   8.351 -2.4321 -0.7660 -0.0553
  149SAPE  H13Y16511   0.324   6.146   8.340  0.1238  1.4630 -2.4593
  149SAPE  C31416512   0.468   6.233   8.485 -0.0903  0.0367 -0.1151
  149SAPE  H14X16513   0.394   6.184   8.551 -0.8393  0.7953 -0.3736
  149SAPE  H14Y16514   0.467   6.344   8.488  0.7227  0.0636 -0.5249
  149SAPE  C31516515   0.602   6.185   8.543 -0.5433  0.3726 -0.5928
  149SAPE  H15X16516   0.687   6.215   8.478  1.0409 -1.6073  0.4499
  149SAPE  H15Y16517   0.609   6.078   8.574 -1.5872  0.7333  1.0230
  149SAPE  C31616518   0.639   6.271   8.669  0.3420 -0.5984 -0.9442
  149SAPE  H16X16519   0.581   6.237   8.758  1.6146 -1.5392 -0.4480
  149SAPE  H16Y16520   0.618   6.378   8.649  0.3010 -0.4968 -0.3715
  149SAPE  C31716521   0.784   6.244   8.702 -0.6881 -0.5623 -0.4352
  149SAPE  H17X16522   0.858   6.288   8.632  0.2697 -0.3039  0.7073
  149SAPE  H17Y16523   0.808   6.136   8.708  0.8743 -0.1548  1.7553
  149SAPE  C31816524   0.810   6.289   8.848 -0.1882  0.1232  0.1269
  149SAPE  H18X16525   0.752   6.226   8.917 -0.8330 -2.9132 -2.9258
  149SAPE  H18Y16526   0.780   6.396   8.859 -1.1793  0.1405 -2.1388
  149SAPE  H18Z16527   0.919   6.289   8.872 -0.3064  0.0904  0.6710
  150SAPE     N16528   0.141   0.814   6.590  0.0615  0.7708  0.1396
  150SAPE   HN116529   0.093   0.899   6.554 -2.6246 -1.0456 -0.8493
  150SAPE   HN216530   0.179   0.759   6.511 -2.0160  3.0629 -2.6349
  150SAPE   HN316531   0.075   0.751   6.641 -1.9424  1.6755 -1.2194
  150SAPE   C1216532   0.248   0.859   6.681 -0.5619 -0.6452 -0.2207
  150SAPE  H12A16533   0.274   0.766   6.736 -2.2630 -1.8448 -1.3430
  150SAPE  H12B16534   0.201   0.937   6.745  0.0310 -0.0002 -0.5548
  150SAPE   C1116535   0.361   0.924   6.600 -0.0486 -0.6409  1.0837
  150SAPE  H11A16536   0.411   0.853   6.531 -3.9190 -2.1300 -0.4638
  150SAPE  H11B16537   0.441   0.942   6.675  0.7015 -0.7965  0.3203
  150SAPE     P16538   0.357   1.114   6.411 -0.1541 -0.4244 -0.3609
  150SAPE   O1316539   0.323   1.023   6.303 -0.7055  0.4264 -0.1104
  150SAPE   O1416540   0.295   1.244   6.404 -0.3182  0.0853  0.1949
  150SAPE   O1216541   0.310   1.041   6.539  0.2108  0.2036  0.0417
  150SAPE   O1116542   0.509   1.134   6.427 -0.7128  0.4142  0.3387
  150SAPE    C116543   0.569   1.182   6.549  0.5700 -0.0252 -0.1785
  150SAPE    HA16544   0.586   1.291   6.547  0.2246  0.0611  0.9639
  150SAPE    HB16545   0.505   1.160   6.637 -0.2144  1.4663 -0.3548
  150SAPE    C216546   0.714   1.121   6.568  0.0628 -0.5775 -1.0809
  150SAPE    HS16547   0.768   1.162   6.480 -0.5818  1.9262 -0.3811
  150SAPE   O2116548   0.708   0.979   6.569 -0.0700  0.1700  0.1894
  150SAPE   C2116549   0.825   0.924   6.531 -0.3358 -0.4367  0.2340
  150SAPE   O2216550   0.925   0.982   6.490  0.0146  0.1873 -1.0166
  150SAPE   C2216551   0.825   0.771   6.548 -0.3035  0.5391  0.2314
  150SAPE   H2R16552   0.754   0.727   6.475 -0.1152 -0.5532  0.6863
  150SAPE   H2S16553   0.920   0.739   6.501 -0.9717  1.5545 -1.9416
  150SAPE    C316554   0.771   1.185   6.699  0.3851  0.0764  0.0884
  150SAPE    HX16555   0.799   1.289   6.671  0.4165  0.0691  0.0919
  150SAPE    HY16556   0.871   1.138   6.711  1.8475  2.8022 -0.4648
  150SAPE   O3116557   0.679   1.178   6.816 -0.1376  0.2275  0.4227
  150SAPE   C3116558   0.728   1.104   6.916 -0.4435  0.3634  0.2015
  150SAPE   O3216559   0.840   1.064   6.920 -0.2019 -0.2362  0.8908
  150SAPE   C3216560   0.620   1.060   7.015 -0.5298 -0.0024  0.4568
  150SAPE   H2X16561   0.569   0.973   6.969  1.2405 -0.3740 -0.8743
  150SAPE   H2Y16562   0.534   1.131   7.022 -1.5634 -1.2120  0.3624
  150SAPE   C2316563   0.803   0.722   6.693 -0.3520 -0.0915 -0.4117
  150SAPE   H3R16564   0.694   0.714   6.711 -0.1813  0.4401  0.9872
  150SAPE   H3S16565   0.844   0.796   6.764 -1.3567 -1.6015  1.8453
  150SAPE   C2416566   0.856   0.580   6.724 -0.3035 -0.0970  0.2492
  150SAPE   H4R16567   0.824   0.505   6.649 -0.4736  0.9798 -0.7755
  150SAPE   H4S16568   0.820   0.543   6.822 -1.7075  0.7272  0.0598
  150SAPE   C2516569   1.009   0.577   6.710  0.9962  0.2651 -0.4107
  150SAPE   H5R16570   1.054   0.585   6.610  0.8009 -2.7825 -0.8445
  150SAPE   C2616571   1.090   0.573   6.823  1.3449  0.1571  0.2162
  150SAPE   H6R16572   1.195   0.555   6.795  0.5881 -1.8404 -1.6736
  150SAPE   C2716573   1.061   0.551   6.966 -0.0731 -0.1307 -0.1905
  150SAPE   H7R16574   1.152   0.534   7.027 -0.3235 -0.2343  0.1598
  150SAPE   H7S16575   1.005   0.456   6.971 -0.8116  0.2694 -0.6225
  150SAPE   C2816576   0.967   0.654   7.033  0.0910  0.0388 -0.3813
  150SAPE   H8R16577   0.864   0.660   6.994  0.4746  1.3476 -1.2415
  150SAPE   C2916578   0.998   0.733   7.142  0.5961  0.1684  0.5087
  150SAPE   H9R16579   0.909   0.793   7.166  0.1101 -0.2208 -0.2673
  150SAPE  C21016580   1.122   0.738   7.226 -0.0007 -0.0988 -0.9084
  150SAPE  H10R16581   1.209   0.746   7.157  2.2107  0.7817  1.7915
  150SAPE  H10S16582   1.155   0.645   7.277 -1.2817 -0.1145 -0.0736
  150SAPE  C21116583   1.124   0.856   7.325 -0.2896  0.4821  0.1585
  150SAPE  H11R16584   1.141   0.953   7.275  0.6675  0.2271 -0.0350
  150SAPE  C21216585   1.123   0.849   7.461  0.3212  0.8178 -0.3194
  150SAPE  H12R16586   1.136   0.945   7.514  1.4092 -0.8112  2.6157
  150SAPE  C21316587   1.126   0.730   7.550 -0.1566  0.9591 -0.5730
  150SAPE  H13R16588   1.224   0.732   7.604  0.2135 -0.7799 -1.1154
  150SAPE  H13S16589   1.121   0.631   7.499  2.3321 -0.3107  1.4058
  150SAPE  C21416590   1.014   0.722   7.651  0.3869  0.0772  0.5142
  150SAPE  H14R16591   0.911   0.730   7.612  0.4069  0.9263  0.6156
  150SAPE  C21516592   1.031   0.709   7.781 -0.5666 -0.4899  0.0460
  150SAPE  H15R16593   0.944   0.715   7.847  0.2027  1.6072  0.9329
  150SAPE  C21616594   1.155   0.693   7.865  0.6024 -0.0849  0.3653
  150SAPE  H16R16595   1.150   0.773   7.943  0.8774  0.6668 -0.3741
  150SAPE  H16S16596   1.253   0.705   7.813  0.3634  2.6004  0.3885
  150SAPE  C21716597   1.162   0.562   7.946 -0.0522  0.2659 -0.5378
  150SAPE  H17R16598   1.155   0.486   7.866  0.6916  0.6813 -1.0078
  150SAPE  H17S16599   1.083   0.558   8.025  1.9238 -0.4007  1.5240
  150SAPE  C21816600   1.298   0.542   8.011  0.4014 -0.5156  0.3330
  150SAPE  H18R16601   1.316   0.627   8.081  0.7512  0.4833 -0.9352
  150SAPE  H18S16602   1.374   0.554   7.931  0.0737 -0.8846 -0.0322
  150SAPE  C21916603   1.315   0.407   8.070  0.7205  0.8900  0.6761
  150SAPE  H19R16604   1.307   0.338   7.983  1.2898  0.2686  1.1081
  150SAPE  H19S16605   1.228   0.367   8.127 -2.0812 -0.5882 -4.0625
  150SAPE  C22016606   1.455   0.395   8.133 -0.3298 -0.2072 -0.5506
  150SAPE  H20R16607   1.483   0.295   8.171  2.0754  1.2444  1.8377
  150SAPE  H20S16608   1.461   0.459   8.224  0.2713  0.5824 -1.1341
  150SAPE  H20T16609   1.533   0.444   8.071 -0.1145 -0.1334 -0.2240
  150SAPE   C3316610   0.682   1.036   7.154  0.0702 -0.3285  0.4346
  150SAPE   H3X16611   0.726   1.129   7.196 -2.4155  0.5865  1.1991
  150SAPE   H3Y16612   0.755   0.952   7.154 -1.7574 -2.0072 -0.1171
  150SAPE   C3416613   0.570   0.996   7.253 -0.1681 -0.0056 -0.2538
  150SAPE   H4X16614   0.524   0.900   7.222  1.5958 -1.3282  1.0484
  150SAPE   H4Y16615   0.500   1.082   7.268 -1.0311 -0.0557 -3.3126
  150SAPE   C3516616   0.627   0.963   7.395  0.0166  0.1129 -0.2243
  150SAPE   H5X16617   0.674   1.055   7.436 -1.5246  0.3533  1.1424
  150SAPE   H5Y16618   0.695   0.876   7.392 -1.6741 -1.3556  1.3689
  150SAPE   C3616619   0.508   0.930   7.493 -0.3480 -0.0940 -0.1722
  150SAPE   H6X16620   0.473   0.827   7.470  1.3193 -0.6247 -0.4535
  150SAPE   H6Y16621   0.433   1.008   7.469  0.5239  1.0170  0.6610
  150SAPE   C3716622   0.554   0.928   7.635  0.2556  0.0344 -0.8414
  150SAPE   H7X16623   0.609   1.010   7.685  0.1706 -1.5829  2.1182
  150SAPE   H7Y16624   0.635   0.851   7.630  0.5178  0.3641 -2.3313
  150SAPE   C3816625   0.448   0.870   7.727  0.0111  1.0104 -1.1004
  150SAPE   H8X16626   0.432   0.762   7.709 -0.7702  1.2293 -1.8338
  150SAPE   H8Y16627   0.350   0.920   7.706 -0.1705  1.1716  0.0646
  150SAPE   C3916628   0.486   0.896   7.871 -0.2473 -0.2213  0.7136
  150SAPE   H9X16629   0.400   0.881   7.939 -0.1644  0.5878  1.0175
  150SAPE   H9Y16630   0.523   0.999   7.889  2.7852 -0.6816 -1.9766
  150SAPE  C31016631   0.600   0.805   7.921  0.4973 -0.6198 -1.3478
  150SAPE  H10X16632   0.698   0.826   7.872  1.3003 -2.9218 -0.8420
  150SAPE  H10Y16633   0.565   0.702   7.901 -1.1320 -0.3951  0.1187
  150SAPE  C31116634   0.617   0.819   8.076 -0.1430  0.0349 -0.1818
  150SAPE  H11X16635   0.518   0.811   8.124  0.0396 -0.8998  0.0579
  150SAPE  H11Y16636   0.656   0.920   8.101 -0.4242 -0.6206  3.5204
  150SAPE  C31216637   0.712   0.711   8.135 -1.1114 -0.0865 -0.4201
  150SAPE  H12X16638   0.767   0.661   8.052 -3.4816 -1.7395 -1.1313
  150SAPE  H12Y16639   0.661   0.622   8.178 -0.4719 -0.3092 -0.1052
  150SAPE  C31316640   0.832   0.755   8.226  0.2881  0.0728 -1.0286
  150SAPE  H13X16641   0.874   0.855   8.202  0.9270  0.1228  0.2021
  150SAPE  H13Y16642   0.909   0.675   8.215 -1.3864 -1.6651 -0.5845
  150SAPE  C31416643   0.817   0.750   8.379 -0.2689  0.3124 -0.9300
  150SAPE  H14X16644   0.912   0.781   8.426 -0.6352  2.1718 -1.3289
  150SAPE  H14Y16645   0.797   0.654   8.431  0.5192  0.7897  0.3029
  150SAPE  C31516646   0.708   0.845   8.440  0.0765  0.1418 -0.0593
  150SAPE  H15X16647   0.620   0.842   8.371 -1.7120 -3.1161  2.0918
  150SAPE  H15Y16648   0.755   0.946   8.443  3.1118 -1.1945  1.8665
  150SAPE  C31616649   0.667   0.813   8.587 -0.0695  0.4417  0.2621
  150SAPE  H16X16650   0.621   0.712   8.594  1.4265 -0.2613  0.4216
  150SAPE  H16Y16651   0.595   0.895   8.608 -0.0068  0.1754  1.6465
  150SAPE  C31716652   0.772   0.822   8.703 -0.0960 -0.0200 -0.8755
  150SAPE  H17X16653   0.864   0.762   8.686 -1.4618 -3.0446  1.4347
  150SAPE  H17Y16654   0.723   0.772   8.789 -0.5434  0.0062 -1.1118
  150SAPE  C31816655   0.811   0.963   8.742 -0.2619 -0.2814 -0.1732
  150SAPE  H18X16656   0.723   1.024   8.771 -1.3842 -1.5433 -0.7951
  150SAPE  H18Y16657   0.869   1.013   8.661  0.4566 -1.2375 -0.2675
  150SAPE  H18Z16658   0.880   0.956   8.829 -1.9936 -0.9213  1.2353
  151SAPE     N16659   1.425   4.155   6.368 -0.5908  0.0083 -0.0309
  151SAPE   HN116660   1.410   4.066   6.317  0.3635 -1.4867  2.1680
  151SAPE   HN216661   1.379   4.134   6.459  0.7965 -2.9328  0.1028
  151SAPE   HN316662   1.369   4.227   6.318  0.5528 -0.1791 -1.6777
  151SAPE   C1216663   1.572   4.196   6.375 -0.4710  0.2055 -0.4320
  151SAPE  H12A16664   1.578   4.296   6.423  0.9114 -1.0019  2.1455
  151SAPE  H12B16665   1.607   4.203   6.270 -1.1486  2.3256 -0.5599
  151SAPE   C1116666   1.670   4.090   6.445  0.0759  1.0143  1.4107
  151SAPE  H11A16667   1.654   4.107   6.554 -0.8997  1.0164  1.2779
  151SAPE  H11B16668   1.775   4.120   6.427 -0.4082  1.2049 -1.4899
  151SAPE     P16669   1.762   3.852   6.405  0.2663 -0.0190 -0.1534
  151SAPE   O1316670   1.715   3.715   6.376 -0.0145  0.1784  0.3239
  151SAPE   O1416671   1.860   3.913   6.313 -0.4036  0.6006 -0.2982
  151SAPE   O1216672   1.641   3.951   6.407 -0.4479  0.1690 -0.2350
  151SAPE   O1116673   1.817   3.872   6.550  0.0653  0.1045 -0.0098
  151SAPE    C116674   1.868   3.761   6.624  0.1735  1.1765 -0.1397
  151SAPE    HA16675   1.916   3.686   6.557 -1.7663  0.4174 -0.7268
  151SAPE    HB16676   1.940   3.800   6.699 -1.1545  0.6059  1.4816
  151SAPE    C216677   1.748   3.694   6.701  0.1664  0.5315  0.2389
  151SAPE    HS16678   1.660   3.700   6.634  0.6137  1.7290 -0.2642
  151SAPE   O2116679   1.725   3.767   6.823 -0.0682  0.0445 -0.0202
  151SAPE   C2116680   1.626   3.853   6.821 -0.1710  0.2702 -0.2121
  151SAPE   O2216681   1.540   3.858   6.736  0.2663 -0.3792 -0.4338
  151SAPE   C2216682   1.629   3.952   6.941  0.3048  0.7967  0.0234
  151SAPE   H2R16683   1.530   3.952   6.992 -0.0197 -0.6979 -0.5502
  151SAPE   H2S16684   1.707   3.914   7.011  1.8740  1.4119 -1.3198
  151SAPE    C316685   1.772   3.541   6.731 -0.7064  0.5895 -0.8858
  151SAPE    HX16686   1.783   3.478   6.640  1.3451 -0.8055  0.2449
  151SAPE    HY16687   1.686   3.496   6.785 -1.6905 -0.4404 -3.1811
  151SAPE   O3116688   1.899   3.527   6.804  0.1601  0.5489  0.5197
  151SAPE   C3116689   1.899   3.517   6.936  1.1669 -0.2061 -0.0106
  151SAPE   O3216690   1.802   3.534   7.009  0.3330 -0.2246  0.3752
  151SAPE   C3216691   2.044   3.506   6.967 -0.4657  0.3405 -0.5092
  151SAPE   H2X16692   2.101   3.599   6.947  0.6798 -0.1822  0.1780
  151SAPE   H2Y16693   2.095   3.430   6.904  2.2279  1.3801  0.2698
  151SAPE   C2316694   1.678   4.093   6.902  0.4251  0.3688  0.3926
  151SAPE   H3R16695   1.609   4.136   6.827  1.9450  0.5597 -0.9606
  151SAPE   H3S16696   1.775   4.072   6.852 -0.8700 -1.8867 -1.3482
  151SAPE   C2416697   1.700   4.190   7.015 -0.1292 -0.0850  0.4265
  151SAPE   H4R16698   1.754   4.275   6.968 -0.9029 -0.1738 -0.6696
  151SAPE   H4S16699   1.770   4.132   7.078  0.5008  1.0552  0.8136
  151SAPE   C2516700   1.574   4.238   7.093 -0.3331 -0.2143  0.2867
  151SAPE   H5R16701   1.500   4.281   7.023 -0.3866 -0.3760  0.2439
  151SAPE   C2616702   1.541   4.232   7.225 -0.6831 -0.2751  0.3114
  151SAPE   H6R16703   1.444   4.279   7.245 -0.0455  0.6340  1.4706
  151SAPE   C2716704   1.624   4.174   7.335 -0.2890 -0.8062  0.3249
  151SAPE   H7R16705   1.699   4.106   7.289  0.3368  1.7660 -2.8090
  151SAPE   H7S16706   1.567   4.128   7.418  0.2622  0.9674  1.7414
  151SAPE   C2816707   1.689   4.303   7.393  0.1579 -0.1774 -0.1540
  151SAPE   H8R16708   1.745   4.358   7.316  2.1157 -1.2178  0.4614
  151SAPE   C2916709   1.665   4.363   7.516 -0.4267  0.2792  0.4797
  151SAPE   H9R16710   1.731   4.447   7.540 -0.2172  0.2542 -0.0038
  151SAPE  C21016711   1.581   4.320   7.633  0.6365 -0.5227  0.3669
  151SAPE  H10R16712   1.527   4.227   7.602  0.3304 -0.8108  1.6918
  151SAPE  H10S16713   1.501   4.396   7.644  1.3389  0.4116 -0.7614
  151SAPE  C21116714   1.661   4.293   7.754  0.3421 -0.0093  0.2541
  151SAPE  H11R16715   1.695   4.189   7.750  0.4715  0.0567 -1.7345
  151SAPE  C21216716   1.688   4.379   7.858 -0.2945  0.1052 -0.2326
  151SAPE  H12R16717   1.755   4.347   7.940  1.3068  0.7970 -1.2084
  151SAPE  C21316718   1.646   4.523   7.876  0.3056  0.2980  0.6815
  151SAPE  H13R16719   1.580   4.546   7.790 -0.9364 -0.9194  1.2566
  151SAPE  H13S16720   1.733   4.587   7.855  0.4739  0.1374  0.8834
  151SAPE  C21416721   1.564   4.552   7.999  0.1049 -0.3747  0.4219
  151SAPE  H14R16722   1.464   4.506   7.999 -0.5444  0.7713 -2.8494
  151SAPE  C21516723   1.596   4.643   8.090 -0.9806  0.2513 -0.2604
  151SAPE  H15R16724   1.534   4.647   8.181  0.1657 -3.4653  0.8878
  151SAPE  C21616725   1.723   4.730   8.098  0.3339  1.1473  1.0667
  151SAPE  H16R16726   1.698   4.831   8.059  0.1232  0.4601 -0.6774
  151SAPE  H16S16727   1.800   4.689   8.029  0.1027 -1.6314  2.3301
  151SAPE  C21716728   1.786   4.747   8.233 -0.7983  1.0097 -0.3153
  151SAPE  H17R16729   1.881   4.800   8.209 -0.8423  0.9603 -0.5989
  151SAPE  H17S16730   1.825   4.650   8.271  0.7235  2.2159  1.4008
  151SAPE  C21816731   1.703   4.816   8.350 -0.4891  0.3976  0.1070
  151SAPE  H18R16732   1.767   4.807   8.440 -1.4341  1.4180  0.9059
  151SAPE  H18S16733   1.627   4.742   8.382  2.6551 -2.1187  2.3916
  151SAPE  C21916734   1.655   4.958   8.321 -0.7413 -0.8476 -0.1056
  151SAPE  H19R16735   1.603   4.960   8.222  0.9402 -0.8506 -1.0325
  151SAPE  H19S16736   1.746   5.019   8.304 -1.0866 -0.3507 -0.1997
  151SAPE  C22016737   1.574   5.008   8.439 -0.4515  0.2927 -0.0362
  151SAPE  H20R16738   1.483   4.947   8.455  0.1536 -0.9023 -1.0104
  151SAPE  H20S16739   1.634   5.000   8.532 -0.5719 -0.6266 -0.0337
  151SAPE  H20T16740   1.543   5.115   8.443 -2.4266 -0.2351 -0.1770
  151SAPE   C3316741   2.075   3.465   7.121 -0.6404  0.0051  0.3312
  151SAPE   H3X16742   2.007   3.377   7.132  1.6365 -2.2741 -2.3333
  151SAPE   H3Y16743   2.037   3.549   7.183 -1.9676 -1.6708  1.9089
  151SAPE   C3416744   2.220   3.428   7.146 -0.5807  0.4547  0.2798
  151SAPE   H4X16745   2.272   3.521   7.181 -0.9583  0.3489  1.1347
  151SAPE   H4Y16746   2.283   3.387   7.064 -1.5708  1.0543 -0.8037
  151SAPE   C3516747   2.235   3.320   7.256  0.5220  0.6588 -0.7777
  151SAPE   H5X16748   2.342   3.291   7.265 -0.0411 -1.2372  0.4388
  151SAPE   H5Y16749   2.177   3.228   7.233  1.8440 -0.7415  1.1537
  151SAPE   C3616750   2.198   3.372   7.395  0.4283 -0.2668 -0.1532
  151SAPE   H6X16751   2.166   3.281   7.450 -0.1050  0.1734  0.2791
  151SAPE   H6Y16752   2.118   3.449   7.393  0.8911  0.2439  0.6695
  151SAPE   C3716753   2.312   3.421   7.488  0.3734  0.5562 -0.1629
  151SAPE   H7X16754   2.347   3.525   7.468 -0.0691  0.9061  0.7849
  151SAPE   H7Y16755   2.392   3.345   7.488  0.9007  1.1048 -0.2126
  151SAPE   C3816756   2.252   3.423   7.627  0.2213  0.9445  0.1409
  151SAPE   H8X16757   2.238   3.316   7.655  0.8676  0.7665 -0.2099
  151SAPE   H8Y16758   2.148   3.462   7.634 -0.2573 -0.2454 -0.0362
  151SAPE   C3916759   2.335   3.481   7.740 -0.1199  0.4223  0.1332
  151SAPE   H9X16760   2.372   3.580   7.706  0.7757 -0.3566 -1.2245
  151SAPE   H9Y16761   2.428   3.425   7.763 -1.2290 -2.1433 -1.1679
  151SAPE  C31016762   2.261   3.504   7.865  0.4694  0.6920 -0.4293
  151SAPE  H10X16763   2.204   3.414   7.896 -0.2849  1.1917 -0.3475
  151SAPE  H10Y16764   2.188   3.584   7.840 -0.8495 -0.5553 -0.6776
  151SAPE  C31116765   2.340   3.558   7.986  0.7346 -0.6014  0.7705
  151SAPE  H11X16766   2.400   3.649   7.969  0.2423 -0.0900  1.7266
  151SAPE  H11Y16767   2.411   3.482   8.024  1.1389 -0.7066 -0.1478
  151SAPE  C31216768   2.250   3.575   8.113  0.2309 -0.3671 -0.4235
  151SAPE  H12X16769   2.152   3.523   8.112 -0.2955  0.5634 -2.4683
  151SAPE  H12Y16770   2.224   3.683   8.110 -0.3048 -0.4524  0.5429
  151SAPE  C31316771   2.321   3.540   8.245 -0.2619 -0.1905  0.0604
  151SAPE  H13X16772   2.426   3.579   8.245 -0.3860  0.1655  1.3818
  151SAPE  H13Y16773   2.337   3.431   8.254  0.8783 -0.1912 -1.4378
  151SAPE  C31416774   2.242   3.574   8.372  0.4246  0.0892  0.4421
  151SAPE  H14X16775   2.131   3.564   8.372  0.6133 -2.8587 -0.0839
  151SAPE  H14Y16776   2.277   3.677   8.396  0.6041 -0.2595  1.7381
  151SAPE  C31516777   2.295   3.492   8.495 -0.0729 -0.3992 -0.2245
  151SAPE  H15X16778   2.405   3.500   8.482 -0.4179  0.8692 -2.9900
  151SAPE  H15Y16779   2.265   3.385   8.485  0.9622 -0.7280  0.0668
  151SAPE  C31616780   2.233   3.532   8.634 -0.2988 -0.0715 -0.5253
  151SAPE  H16X16781   2.123   3.548   8.643 -0.5483 -0.5752 -2.2460
  151SAPE  H16Y16782   2.286   3.624   8.666  0.3653  0.1662 -2.1812
  151SAPE  C31716783   2.262   3.415   8.734 -1.2701  0.5903  0.6903
  151SAPE  H17X16784   2.209   3.324   8.698 -1.2137  1.4338 -1.7628
  151SAPE  H17Y16785   2.223   3.445   8.833  0.5950 -1.2629  2.0641
  151SAPE  C31816786   2.416   3.400   8.751 -0.1072  0.3356  0.4507
  151SAPE  H18X16787   2.464   3.345   8.666  0.1825  0.5966  0.4414
  151SAPE  H18Y16788   2.434   3.342   8.844 -0.7549  0.3444  0.5804
  151SAPE  H18Z16789   2.465   3.499   8.764 -0.8368  0.4943  2.2821
  152SAPE     N16790   6.342   0.929   6.601  0.3992  0.6215 -0.6270
  152SAPE   HN116791   6.403   0.875   6.537  0.9453 -0.5881  0.8546
  152SAPE   HN216792   6.333   0.872   6.688  1.5770  2.9994  1.1924
  152SAPE   HN316793   6.249   0.946   6.558 -0.1451  1.6897  0.8466
  152SAPE   C1216794   6.398   1.066   6.646  0.0679 -0.0179 -0.1029
  152SAPE  H12A16795   6.472   1.044   6.726 -0.9462 -2.4263  0.2581
  152SAPE  H12B16796   6.315   1.114   6.702  0.3560 -0.6736  0.8971
  152SAPE   C1116797   6.438   1.146   6.523 -0.3261 -0.0015 -0.5336
  152SAPE  H11A16798   6.455   1.253   6.550  2.4006 -0.4345 -0.3043
  152SAPE  H11B16799   6.365   1.135   6.441  0.1819 -1.6222 -0.7952
  152SAPE     P16800   6.699   1.140   6.472 -0.1304  0.1978  0.7446
  152SAPE   O1316801   6.791   1.022   6.470 -0.5664 -0.6843 -0.1274
  152SAPE   O1416802   6.717   1.253   6.382 -0.0437 -0.5739 -0.5189
  152SAPE   O1216803   6.555   1.089   6.463 -0.5489 -0.3472  0.0674
  152SAPE   O1116804   6.705   1.201   6.621 -0.0826 -0.0878 -0.0356
  152SAPE    C116805   6.824   1.193   6.697  0.1120  0.0075 -0.5470
  152SAPE    HA16806   6.847   1.088   6.726 -0.6029 -0.2426 -0.8741
  152SAPE    HB16807   6.917   1.230   6.647  0.8022  0.5511  1.0703
  152SAPE    C216808   6.801   1.266   6.826 -0.6461 -0.4936 -0.0106
  152SAPE    HS16809   6.770   1.371   6.805 -1.3827 -0.5531  0.7577
  152SAPE   O2116810   6.923   1.272   6.901  0.2611 -0.3587  0.2317
  152SAPE   C2116811   7.007   1.358   6.868 -1.0548  0.1885  0.6723
  152SAPE   O2216812   6.991   1.436   6.777 -0.3604 -0.0018 -0.0914
  152SAPE   C2216813   7.137   1.356   6.952 -0.6965 -0.1647  0.5047
  152SAPE   H2R16814   7.167   1.254   6.984  2.7620  0.7377  0.4837
  152SAPE   H2S16815   7.219   1.389   6.884  0.3416 -0.8590  1.3882
  152SAPE    C316816   6.688   1.202   6.909 -0.4941 -0.2496  0.0019
  152SAPE    HX16817   6.733   1.102   6.929 -0.2468 -0.3387 -0.9610
  152SAPE    HY16818   6.591   1.189   6.856 -1.5397  1.2062  1.4682
  152SAPE   O3116819   6.672   1.282   7.029  0.1705  0.0649  0.6254
  152SAPE   C3116820   6.603   1.215   7.120 -0.1884 -0.3840  0.0455
  152SAPE   O3216821   6.569   1.099   7.107  0.0824  0.0166 -0.2391
  152SAPE   C3216822   6.600   1.299   7.249 -0.2112 -0.4239 -0.8347
  152SAPE   H2X16823   6.703   1.294   7.291 -1.6301  0.2828  3.1950
  152SAPE   H2Y16824   6.539   1.246   7.326 -0.7796  0.3975 -0.7058
  152SAPE   C2316825   7.134   1.454   7.070  0.4976 -0.8919  0.1626
  152SAPE   H3R16826   7.116   1.557   7.031  2.6979  0.1967  1.7660
  152SAPE   H3S16827   7.232   1.457   7.122  0.6148  0.0711 -0.0956
  152SAPE   C2416828   7.027   1.414   7.169  0.2625  1.1807  0.0432
  152SAPE   H4R16829   6.922   1.419   7.133  0.2680  0.2993 -0.1298
  152SAPE   H4S16830   7.036   1.497   7.242 -0.7574 -0.0398  1.6577
  152SAPE   C2516831   7.023   1.274   7.226  0.4213  0.0045  0.2134
  152SAPE   H5R16832   7.007   1.189   7.158  0.5219  0.9707 -1.0442
  152SAPE   C2616833   7.014   1.247   7.353 -0.4233  0.2206  0.4397
  152SAPE   H6R16834   7.017   1.143   7.387 -0.1047 -0.4390 -1.5042
  152SAPE   C2716835   7.028   1.340   7.467  0.1164 -1.0894  0.0633
  152SAPE   H7R16836   7.110   1.411   7.443 -0.1347 -1.2726 -1.4362
  152SAPE   H7S16837   7.076   1.282   7.549 -0.0715 -0.1816  0.8455
  152SAPE   C2816838   6.911   1.418   7.525 -0.2232 -0.2854  0.6890
  152SAPE   H8R16839   6.902   1.520   7.486 -0.9789  0.2763  2.2558
  152SAPE   C2916840   6.846   1.386   7.640  0.2647  0.8386 -0.1166
  152SAPE   H9R16841   6.746   1.431   7.650 -0.4745 -0.3522 -1.7012
  152SAPE  C21016842   6.872   1.267   7.735 -0.1718 -0.7017 -0.4019
  152SAPE  H10R16843   6.942   1.192   7.691 -1.1637 -0.8300 -1.8450
  152SAPE  H10S16844   6.778   1.209   7.752 -1.2744  1.0337 -0.3605
  152SAPE  C21116845   6.925   1.339   7.860  0.2167 -0.3639  0.1254
  152SAPE  H11R16846   7.007   1.410   7.845  0.2894 -0.6622 -0.9713
  152SAPE  C21216847   6.875   1.321   7.985  0.0137  0.0080  0.8274
  152SAPE  H12R16848   6.936   1.357   8.068  0.6265  0.3848  0.2247
  152SAPE  C21316849   6.759   1.233   8.034  0.4852 -0.1492  0.9698
  152SAPE  H13R16850   6.797   1.134   8.068 -0.3993  0.1194  2.8963
  152SAPE  H13S16851   6.685   1.217   7.953  0.9316  0.5604  0.4117
  152SAPE  C21416852   6.691   1.304   8.152 -0.0561  0.5739 -0.6096
  152SAPE  H14R16853   6.640   1.399   8.131  1.0364  1.5081  0.7653
  152SAPE  C21516854   6.721   1.273   8.281  0.0734 -0.5702  0.2019
  152SAPE  H15R16855   6.661   1.323   8.358  1.7234  1.0576  0.5210
  152SAPE  C21616856   6.810   1.167   8.336 -0.2880  0.6918  0.1284
  152SAPE  H16R16857   6.895   1.204   8.398  0.5690 -0.4692 -0.3236
  152SAPE  H16S16858   6.863   1.107   8.259 -0.0355 -0.5942  1.2741
  152SAPE  C21716859   6.739   1.061   8.430 -0.7696  0.3276 -0.3060
  152SAPE  H17R16860   6.813   0.978   8.436  1.0866  1.7290 -2.3111
  152SAPE  H17S16861   6.647   1.026   8.379 -0.5888  0.8872 -1.0305
  152SAPE  C21816862   6.727   1.107   8.577 -0.2110  0.0225  1.1134
  152SAPE  H18R16863   6.822   1.162   8.595  0.2931  0.2672 -1.7857
  152SAPE  H18S16864   6.730   1.021   8.646 -0.5388  0.2166  1.3743
  152SAPE  C21916865   6.601   1.192   8.597 -0.4345 -0.3740  0.0847
  152SAPE  H19R16866   6.517   1.147   8.539 -0.1732  0.2201 -0.7657
  152SAPE  H19S16867   6.617   1.294   8.556 -0.6435  0.1495  1.2535
  152SAPE  C22016868   6.569   1.213   8.742  0.0874 -0.7906  0.4203
  152SAPE  H20R16869   6.652   1.276   8.780  1.3981 -0.9231 -1.9951
  152SAPE  H20S16870   6.564   1.114   8.792  0.8811 -1.8458 -1.4774
  152SAPE  H20T16871   6.479   1.277   8.738  1.2849  0.9301 -0.0816
  152SAPE   C3316872   6.562   1.442   7.228 -0.1056  0.0901 -0.3352
  152SAPE   H3X16873   6.457   1.451   7.192 -0.5533  0.6481  1.0382
  152SAPE   H3Y16874   6.631   1.488   7.154  0.3443  0.3050  0.2122
  152SAPE   C3416875   6.569   1.527   7.357 -0.4524 -0.3197  0.1243
  152SAPE   H4X16876   6.518   1.623   7.336  2.1812  1.1821  0.2489
  152SAPE   H4Y16877   6.670   1.544   7.400 -2.2617  2.7047  3.8055
  152SAPE   C3516878   6.479   1.469   7.466 -0.1893 -0.1702 -0.8355
  152SAPE   H5X16879   6.530   1.376   7.498 -3.3438 -2.6227 -2.3083
  152SAPE   H5Y16880   6.381   1.444   7.419 -1.1493 -0.2350  1.1241
  152SAPE   C3616881   6.457   1.576   7.575 -0.1247  0.8209  0.4210
  152SAPE   H6X16882   6.378   1.649   7.546  0.6714  0.9742 -1.4997
  152SAPE   H6Y16883   6.553   1.626   7.597  1.5722 -0.3547 -3.4175
  152SAPE   C3716884   6.405   1.500   7.701  0.0102 -0.2951 -0.1665
  152SAPE   H7X16885   6.484   1.425   7.719  0.5804  0.3381  0.0209
  152SAPE   H7Y16886   6.307   1.449   7.696 -0.7686  0.8764  1.6764
  152SAPE   C3816887   6.405   1.578   7.833  0.8173  0.4828  0.0900
  152SAPE   H8X16888   6.321   1.650   7.824 -0.6494 -1.0488  0.8925
  152SAPE   H8Y16889   6.494   1.643   7.841  0.9124  0.4926 -0.9557
  152SAPE   C3916890   6.380   1.475   7.945 -0.1588  0.2151 -0.7397
  152SAPE   H9X16891   6.469   1.412   7.969 -0.8377  0.0679  1.7257
  152SAPE   H9Y16892   6.306   1.404   7.903  0.4665  0.6721 -2.7154
  152SAPE  C31016893   6.334   1.542   8.079 -0.1167  0.8071 -0.3953
  152SAPE  H10X16894   6.259   1.620   8.055 -1.5128 -0.8649 -1.6121
  152SAPE  H10Y16895   6.428   1.571   8.133  1.2881  1.6916 -3.1374
  152SAPE  C31116896   6.269   1.446   8.182 -0.1922  0.1110 -0.8637
  152SAPE  H11X16897   6.330   1.353   8.188  1.0534  0.9326 -0.3365
  152SAPE  H11Y16898   6.167   1.419   8.148 -1.8603  2.8117  1.5507
  152SAPE  C31216899   6.250   1.521   8.318 -0.5226 -0.0277  0.0717
  152SAPE  H12X16900   6.163   1.476   8.370  0.0488 -1.6927 -0.3628
  152SAPE  H12Y16901   6.220   1.621   8.279  0.9631  0.1388 -0.7362
  152SAPE  C31316902   6.378   1.529   8.398 -0.0858 -0.1961 -0.3068
  152SAPE  H13X16903   6.453   1.591   8.345 -0.3046 -0.2096 -0.6385
  152SAPE  H13Y16904   6.426   1.430   8.408 -0.8932 -0.7935 -1.9114
  152SAPE  C31416905   6.340   1.584   8.535 -0.6895 -0.1277 -0.3039
  152SAPE  H14X16906   6.270   1.514   8.584  1.1491 -2.4250 -0.8044
  152SAPE  H14Y16907   6.286   1.678   8.511  0.0331 -0.1022 -1.9635
  152SAPE  C31516908   6.456   1.587   8.630 -0.2163  0.1772  0.4145
  152SAPE  H15X16909   6.527   1.668   8.603 -0.4349  1.0999  2.3915
  152SAPE  H15Y16910   6.516   1.494   8.631  0.2807  0.4811  1.9662
  152SAPE  C31616911   6.416   1.615   8.778  1.0982 -0.9203 -0.4881
  152SAPE  H16X16912   6.347   1.535   8.814  1.2212 -0.1904  1.4430
  152SAPE  H16Y16913   6.367   1.714   8.779  3.2864  0.2125  0.2137
  152SAPE  C31716914   6.541   1.620   8.875  0.2316  0.2190 -0.3226
  152SAPE  H17X16915   6.583   1.518   8.864  0.5633  0.2783  0.3041
  152SAPE  H17Y16916   6.506   1.637   8.980  1.5673  0.5615  0.0832
  152SAPE  C31816917   6.644   1.726   8.842  0.2596  0.4084 -0.1948
  152SAPE  H18X16918   6.606   1.830   8.836  1.5402  1.0374  1.6405
  152SAPE  H18Y16919   6.684   1.701   8.741 -1.2756 -1.7360 -0.3484
  152SAPE  H18Z16920   6.729   1.712   8.912 -1.3104 -2.2049  1.3386
  153SAPE     N16921   4.274   1.391   6.313 -0.3449 -0.0787 -0.1053
  153SAPE   HN116922   4.263   1.492   6.287  0.1953 -0.1745 -0.7153
  153SAPE   HN216923   4.204   1.363   6.385 -1.1850 -0.8641 -1.2083
  153SAPE   HN316924   4.367   1.372   6.355  0.2252  1.2326 -0.7259
  153SAPE   C1216925   4.273   1.303   6.199  0.5374 -0.6605 -0.1208
  153SAPE  H12A16926   4.280   1.198   6.235 -3.1894 -1.9993 -2.7223
  153SAPE  H12B16927   4.358   1.329   6.132 -0.2636  1.3816 -0.4285
  153SAPE   C1116928   4.146   1.317   6.125 -0.2085  0.1962 -0.0188
  153SAPE  H11A16929   4.157   1.259   6.031  1.7402  1.2978 -0.5084
  153SAPE  H11B16930   4.137   1.421   6.087 -0.7874  0.5707  1.1180
  153SAPE     P16931   3.886   1.304   6.156 -0.4294 -0.6022  0.0287
  153SAPE   O1316932   3.879   1.400   6.046  0.4237 -0.4133  0.0539
  153SAPE   O1416933   3.824   1.171   6.127  0.1947  0.1121  0.2942
  153SAPE   O1216934   4.033   1.276   6.207 -0.4773  0.2654 -0.6878
  153SAPE   O1116935   3.817   1.370   6.283 -0.3536  0.0894 -0.4055
  153SAPE    C116936   3.825   1.304   6.411 -0.0993  0.0626 -0.0258
  153SAPE    HA16937   3.727   1.323   6.461 -0.8192  0.1842 -1.4328
  153SAPE    HB16938   3.822   1.193   6.400  0.1733  0.1641 -1.2071
  153SAPE    C216939   3.940   1.346   6.493  0.0456 -0.9699 -0.1389
  153SAPE    HS16940   4.021   1.362   6.419  0.2408  0.8458  0.4041
  153SAPE   O2116941   3.973   1.243   6.589  0.7647 -0.4755 -0.8502
  153SAPE   C2116942   4.095   1.202   6.595  0.6151 -0.0310 -0.5862
  153SAPE   O2216943   4.183   1.228   6.516 -0.5884  0.6253 -0.1072
  153SAPE   C2216944   4.113   1.097   6.700  0.1149 -0.4519  0.5206
  153SAPE   H2R16945   4.030   1.105   6.774 -2.5534 -2.1715 -2.0367
  153SAPE   H2S16946   4.099   1.001   6.646  0.5618  0.4370 -1.2249
  153SAPE    C316947   3.911   1.477   6.572 -0.0470 -0.0617 -0.3614
  153SAPE    HX16948   3.857   1.443   6.663 -1.4679 -0.0937 -1.1821
  153SAPE    HY16949   3.853   1.546   6.507 -1.0597 -0.3349  0.2349
  153SAPE   O3116950   4.036   1.546   6.593  0.1144  0.0121 -0.2864
  153SAPE   C3116951   4.019   1.654   6.666 -0.3663  0.4103 -0.4456
  153SAPE   O3216952   3.911   1.698   6.694 -0.4568  0.2599  0.2435
  153SAPE   C3216953   4.161   1.703   6.706 -0.2513  0.8860 -0.5195
  153SAPE   H2X16954   4.143   1.794   6.768 -0.3560  0.0274  0.7413
  153SAPE   H2Y16955   4.210   1.726   6.609  0.9054 -0.7719 -0.3539
  153SAPE   C2316956   4.263   1.085   6.756  0.2285 -0.0282 -0.2803
  153SAPE   H3R16957   4.278   1.168   6.828  1.1455 -0.4939  0.0833
  153SAPE   H3S16958   4.336   1.098   6.673 -0.1032 -0.9616 -0.7373
  153SAPE   C2416959   4.305   0.958   6.838  0.5068 -0.3963  0.3780
  153SAPE   H4R16960   4.342   0.882   6.766  0.0096  0.5327 -0.8798
  153SAPE   H4S16961   4.210   0.918   6.882  1.4057 -0.0263  2.7975
  153SAPE   C2516962   4.403   0.986   6.941  0.4261  0.3695 -0.4154
  153SAPE   H5R16963   4.507   0.970   6.910  0.2582 -0.4489 -0.5808
  153SAPE   C2616964   4.371   0.988   7.074  0.5152 -0.2642  1.1377
  153SAPE   H6R16965   4.450   0.995   7.150 -0.9525 -3.4030  3.1522
  153SAPE   C2716966   4.227   0.988   7.122  0.1871 -0.3333 -0.0043
  153SAPE   H7R16967   4.163   1.031   7.042  0.8870 -0.3677 -0.5930
  153SAPE   H7S16968   4.217   1.046   7.216  0.8193  0.9680 -0.7037
  153SAPE   C2816969   4.172   0.859   7.170  0.2041  0.0908 -0.4173
  153SAPE   H8R16970   4.122   0.804   7.089  0.3275 -0.1783 -0.3086
  153SAPE   C2916971   4.173   0.805   7.298  0.5425 -0.4449 -0.1582
  153SAPE   H9R16972   4.126   0.706   7.310 -0.4958 -0.2755 -2.3044
  153SAPE  C21016973   4.232   0.864   7.426 -0.8588  0.8308 -0.3965
  153SAPE  H10R16974   4.145   0.901   7.483 -0.6626  1.3046 -0.3928
  153SAPE  H10S16975   4.285   0.961   7.410 -0.7010  1.2372  2.2753
  153SAPE  C21116976   4.321   0.769   7.502  0.6629  0.1867  0.3479
  153SAPE  H11R16977   4.398   0.720   7.440  2.2413  1.0905  1.4950
  153SAPE  C21216978   4.311   0.725   7.632  0.6116  0.0721  0.3794
  153SAPE  H12R16979   4.377   0.646   7.670  2.2716  0.4321 -1.5799
  153SAPE  C21316980   4.205   0.769   7.731 -0.0188 -1.0824  0.3766
  153SAPE  H13R16981   4.197   0.694   7.812 -0.1495 -0.8374  0.5920
  153SAPE  H13S16982   4.111   0.776   7.672  1.3944  0.6628 -1.8495
  153SAPE  C21416983   4.217   0.909   7.787  0.0110 -0.1017  0.0459
  153SAPE  H14R16984   4.260   0.980   7.715  1.4093  0.3090  1.2481
  153SAPE  C21516985   4.184   0.949   7.908 -1.0468 -0.5589  0.0901
  153SAPE  H15R16986   4.192   1.057   7.932 -1.7227 -0.4426 -0.1811
  153SAPE  C21616987   4.125   0.873   8.016 -0.3817  0.3551 -1.1144
  153SAPE  H16R16988   4.102   0.772   7.977  1.2858  0.2325 -1.8663
  153SAPE  H16S16989   4.035   0.927   8.053 -0.3035 -0.7628  0.8353
  153SAPE  C21716990   4.231   0.847   8.132 -0.0233  0.9053 -0.3383
  153SAPE  H17R16991   4.321   0.792   8.098 -0.0268  0.0446  0.9740
  153SAPE  H17S16992   4.184   0.782   8.209 -1.0201 -0.1582 -1.7560
  153SAPE  C21816993   4.274   0.972   8.204  1.1446 -0.6655  0.6422
  153SAPE  H18R16994   4.187   1.035   8.235  1.7493  0.2743  0.4720
  153SAPE  H18S16995   4.326   1.039   8.133  1.7220  0.3334  1.9617
  153SAPE  C21916996   4.376   0.945   8.306 -0.5609 -0.1268 -0.6110
  153SAPE  H19R16997   4.407   1.050   8.328 -1.9392  0.0134  0.9321
  153SAPE  H19S16998   4.459   0.888   8.260  0.4850  1.6888 -1.0730
  153SAPE  C22016999   4.353   0.868   8.436 -0.1536  0.2279  0.4634
  153SAPE  H20R17000   4.289   0.914   8.515 -3.0122 -2.0332 -0.3524
  153SAPE  H20S17001   4.446   0.838   8.490  1.2309  2.9289 -0.2846
  153SAPE  H20T17002   4.302   0.771   8.414  1.5530 -1.4327  3.1345
  153SAPE   C3317003   4.243   1.597   6.785  0.6381 -0.4140 -0.0225
  153SAPE   H3X17004   4.345   1.637   6.803  1.1972 -1.7402 -0.1281
  153SAPE   H3Y17005   4.270   1.511   6.720  0.0234 -0.9842  0.4656
  153SAPE   C3417006   4.173   1.531   6.904  0.1520  0.8925 -0.4428
  153SAPE   H4X17007   4.098   1.457   6.867  1.3294 -0.0912 -0.9264
  153SAPE   H4Y17008   4.120   1.610   6.962 -1.3743  1.1086 -2.0431
  153SAPE   C3517009   4.281   1.463   6.990 -0.0984 -0.3103 -0.3714
  153SAPE   H5X17010   4.362   1.534   7.017  0.1553 -0.8342  0.2804
  153SAPE   H5Y17011   4.320   1.381   6.926 -1.7043 -1.2276 -0.2393
  153SAPE   C3617012   4.240   1.414   7.128  0.3264 -0.4402  0.2353
  153SAPE   H6X17013   4.162   1.335   7.118 -0.7599  0.5491  0.7388
  153SAPE   H6Y17014   4.208   1.501   7.188 -0.8611 -1.6258  1.3970
  153SAPE   C3717015   4.356   1.340   7.203 -0.0585 -0.8677  0.6615
  153SAPE   H7X17016   4.439   1.414   7.199 -0.6971 -0.1637 -0.0450
  153SAPE   H7Y17017   4.371   1.251   7.138  1.8052 -0.1880  0.0945
  153SAPE   C3817018   4.337   1.308   7.350  0.0696  0.5909 -0.2796
  153SAPE   H8X17019   4.266   1.223   7.361  0.8229  0.0999  0.9067
  153SAPE   H8Y17020   4.280   1.392   7.396 -1.0839  0.2086 -0.9782
  153SAPE   C3917021   4.460   1.283   7.432  0.4231  0.0420  0.8797
  153SAPE   H9X17022   4.512   1.380   7.431  0.5689  0.0158 -1.8804
  153SAPE   H9Y17023   4.522   1.205   7.383 -0.5054  0.6782 -1.4663
  153SAPE  C31017024   4.424   1.254   7.581  1.4305 -0.1984  0.0107
  153SAPE  H10X17025   4.349   1.172   7.580 -1.1279  2.0131 -0.3971
  153SAPE  H10Y17026   4.371   1.342   7.624  0.9115 -1.0802  1.2786
  153SAPE  C31117027   4.545   1.220   7.667 -0.1667 -0.0450 -0.6724
  153SAPE  H11X17028   4.616   1.306   7.667 -1.8729  1.4726 -3.1194
  153SAPE  H11Y17029   4.605   1.131   7.638  0.4707 -0.5217  1.7952
  153SAPE  C31217030   4.521   1.180   7.817 -0.0138 -0.3763 -0.0265
  153SAPE  H12X17031   4.626   1.166   7.851  0.0766 -1.8626 -0.8284
  153SAPE  H12Y17032   4.466   1.084   7.808  1.3491 -1.1063 -0.9270
  153SAPE  C31317033   4.449   1.288   7.894 -0.1233  0.2434 -0.3618
  153SAPE  H13X17034   4.339   1.281   7.880 -0.0592 -0.7720 -0.4428
  153SAPE  H13Y17035   4.484   1.386   7.855  0.3375  1.2170  2.2514
  153SAPE  C31417036   4.478   1.279   8.045 -0.2836 -0.5016 -0.5159
  153SAPE  H14X17037   4.475   1.173   8.076 -2.0744  0.2798  2.3445
  153SAPE  H14Y17038   4.398   1.329   8.104  0.2119  0.1327 -0.3631
  153SAPE  C31517039   4.615   1.333   8.095  0.6539 -0.4915  0.0314
  153SAPE  H15X17040   4.617   1.444   8.086 -1.4276 -0.4107  0.1727
  153SAPE  H15Y17041   4.698   1.289   8.036 -1.3076 -1.6064 -2.0841
  153SAPE  C31617042   4.639   1.309   8.251 -1.0795  0.3538 -0.3516
  153SAPE  H16X17043   4.606   1.206   8.275 -1.4987  0.6186  0.2650
  153SAPE  H16Y17044   4.581   1.377   8.318  1.2043  0.4649  1.6323
  153SAPE  C31717045   4.780   1.337   8.298  0.3073 -0.0128 -0.2413
  153SAPE  H17X17046   4.790   1.446   8.278 -0.2691  0.2034  0.5953
  153SAPE  H17Y17047   4.855   1.282   8.237  0.4604  0.9492 -0.9476
  153SAPE  C31817048   4.804   1.321   8.449  0.3345  0.2713  0.0339
  153SAPE  H18X17049   4.785   1.214   8.471 -1.8597 -0.0471 -2.7351
  153SAPE  H18Y17050   4.725   1.375   8.506 -0.8744 -3.6091  2.4342
  153SAPE  H18Z17051   4.909   1.345   8.473  0.3041  0.9234 -0.4628
  154SAPE     N17052   2.185   1.224   6.096  0.1704  0.3315 -0.2179
  154SAPE   HN117053   2.274   1.172   6.082 -0.8790 -2.0698  1.4247
  154SAPE   HN217054   2.208   1.324   6.076 -1.7150  0.5045 -2.0066
  154SAPE   HN317055   2.155   1.206   6.194  2.4129 -1.2095  0.2504
  154SAPE   C1217056   2.085   1.169   5.995  0.2137 -0.0374  0.3110
  154SAPE  H12A17057   2.126   1.153   5.893 -1.5478  2.3329 -0.8794
  154SAPE  H12B17058   2.009   1.247   5.972 -0.5156 -1.0218 -0.6720
  154SAPE   C1117059   2.011   1.052   6.046 -0.3057 -0.9467 -0.6953
  154SAPE  H11A17060   2.076   0.963   6.032  0.9723 -0.1084 -0.2586
  154SAPE  H11B17061   1.922   1.044   5.980 -1.1185  1.4076  0.0370
  154SAPE     P17062   1.864   0.940   6.223  0.3089 -0.1706  0.3042
  154SAPE   O1317063   1.755   0.935   6.124  0.6675 -0.2180 -0.2987
  154SAPE   O1417064   1.935   0.816   6.256 -0.4056 -0.1158  0.1377
  154SAPE   O1217065   1.965   1.057   6.180 -0.0884  0.3368  0.1062
  154SAPE   O1117066   1.806   0.991   6.357  0.5989  0.2891  0.3588
  154SAPE    C117067   1.899   1.037   6.462 -0.2840 -0.3616  0.2743
  154SAPE    HA17068   1.980   0.963   6.481  0.5638  0.2071 -0.9539
  154SAPE    HB17069   1.944   1.135   6.434  0.9049 -0.8953  0.2576
  154SAPE    C217070   1.820   1.039   6.598 -0.1546  0.3335  0.7988
  154SAPE    HS17071   1.880   1.105   6.664  2.3810 -1.0079 -0.0314
  154SAPE   O2117072   1.804   0.908   6.639  0.4910  0.8465 -0.4019
  154SAPE   C2117073   1.904   0.861   6.710 -0.3696 -0.5792  0.4865
  154SAPE   O2217074   2.011   0.917   6.728  0.3313 -0.8824 -1.2190
  154SAPE   C2217075   1.879   0.716   6.738 -0.6885  0.3639  0.9802
  154SAPE   H2R17076   1.770   0.697   6.742 -0.6847 -0.7214 -1.8225
  154SAPE   H2S17077   1.922   0.660   6.652 -0.9449  0.4060  0.8242
  154SAPE    C317078   1.677   1.090   6.595  0.0927  0.2699  0.3481
  154SAPE    HX17079   1.610   1.026   6.534 -0.5513 -0.4127  1.7326
  154SAPE    HY17080   1.678   1.191   6.547  1.5245  0.7067  1.2506
  154SAPE   O3117081   1.632   1.109   6.723  0.6160  0.3226 -0.5568
  154SAPE   C3117082   1.544   1.026   6.766  0.3592 -0.2801 -0.3717
  154SAPE   O3217083   1.509   0.920   6.715  0.5113 -0.1940  0.1073
  154SAPE   C3217084   1.490   1.078   6.901 -0.0721  0.0995 -0.3684
  154SAPE   H2X17085   1.379   1.070   6.892 -0.0381  0.3626 -1.1382
  154SAPE   H2Y17086   1.514   1.185   6.917  2.5115 -0.7498  2.4454
  154SAPE   C2317087   1.936   0.649   6.860  0.3601 -1.0961 -0.2802
  154SAPE   H3R17088   2.041   0.685   6.873  0.2723  0.1201 -2.4384
  154SAPE   H3S17089   1.927   0.540   6.842 -1.2227 -0.8292 -1.2886
  154SAPE   C2417090   1.850   0.677   6.991 -0.1588  0.2461 -0.1202
  154SAPE   H4R17091   1.844   0.784   7.022 -1.9919 -0.1373  0.9336
  154SAPE   H4S17092   1.915   0.647   7.076 -1.7792  0.6161  1.2984
  154SAPE   C2517093   1.711   0.620   6.993 -0.0125  0.0711  0.1844
  154SAPE   H5R17094   1.682   0.568   6.901 -2.1983 -1.0909  1.4723
  154SAPE   C2617095   1.628   0.618   7.099  0.0321  0.3953 -0.7508
  154SAPE   H6R17096   1.527   0.577   7.089  0.7087 -1.2955 -1.0020
  154SAPE   C2717097   1.667   0.673   7.231  0.3968  0.1664 -0.5022
  154SAPE   H7R17098   1.602   0.762   7.249 -0.2559 -0.3944 -0.0486
  154SAPE   H7S17099   1.767   0.720   7.229  1.2395 -1.6162 -2.0773
  154SAPE   C2817100   1.673   0.575   7.349 -0.0701  0.6046 -0.3633
  154SAPE   H8R17101   1.720   0.481   7.317 -0.8885 -0.0506  0.3212
  154SAPE   C2917102   1.632   0.572   7.485 -0.0746  0.1084  0.3366
  154SAPE   H9R17103   1.661   0.482   7.543 -3.7435 -2.0806 -0.8941
  154SAPE  C21017104   1.549   0.673   7.558  0.9013 -0.2742  0.2602
  154SAPE  H10R17105   1.484   0.617   7.629  0.0010  0.1221 -0.2265
  154SAPE  H10S17106   1.485   0.715   7.477 -1.3845 -1.3798  1.3935
  154SAPE  C21117107   1.630   0.772   7.630  1.1822 -0.9824 -0.2407
  154SAPE  H11R17108   1.682   0.843   7.564  0.5960 -0.3710 -0.0506
  154SAPE  C21217109   1.655   0.779   7.762  0.2298  0.3064  0.8180
  154SAPE  H12R17110   1.706   0.867   7.803  0.6475 -0.2457  1.5008
  154SAPE  C21317111   1.607   0.687   7.870  0.8117 -0.2425  0.0011
  154SAPE  H13R17112   1.565   0.594   7.826  3.0962 -1.6530  0.6069
  154SAPE  H13S17113   1.525   0.743   7.919  1.8880 -0.5980  2.3548
  154SAPE  C21417114   1.718   0.656   7.967 -0.1366  1.0055 -0.9376
  154SAPE  H14R17115   1.808   0.607   7.926  0.5430  0.9500  0.5450
  154SAPE  C21517116   1.731   0.699   8.094  0.3321  0.0077  0.7169
  154SAPE  H15R17117   1.823   0.675   8.147  0.5786 -1.4254 -0.3142
  154SAPE  C21617118   1.634   0.789   8.172 -0.8776  0.8471 -0.3093
  154SAPE  H16R17119   1.566   0.719   8.225 -0.0555  0.4159  0.2011
  154SAPE  H16S17120   1.569   0.847   8.103 -0.5759  0.3209 -1.0584
  154SAPE  C21717121   1.714   0.884   8.263 -0.0892  0.4188  0.0159
  154SAPE  H17R17122   1.751   0.838   8.357  1.0956  0.5689 -0.3559
  154SAPE  H17S17123   1.639   0.960   8.295  0.3592  0.4874  0.9575
  154SAPE  C21817124   1.843   0.943   8.194 -0.7182 -0.0845  0.1724
  154SAPE  H18R17125   1.814   0.986   8.095 -0.9428  0.1539  0.3395
  154SAPE  H18S17126   1.924   0.868   8.186 -0.7235 -0.4902  3.0468
  154SAPE  C21917127   1.918   1.058   8.264  0.7234  0.1378 -0.1263
  154SAPE  H19R17128   2.010   1.089   8.209  1.7253 -1.1345  0.7727
  154SAPE  H19S17129   1.952   1.018   8.362  1.2522 -0.5250 -0.5748
  154SAPE  C22017130   1.834   1.189   8.290 -0.3263  0.7201  0.3546
  154SAPE  H20R17131   1.727   1.163   8.307  0.1194 -0.7816  1.0560
  154SAPE  H20S17132   1.844   1.266   8.211  1.3749  1.8528  1.5835
  154SAPE  H20T17133   1.874   1.240   8.380 -1.3066  2.5336 -0.2047
  154SAPE   C3317134   1.549   0.993   7.022  0.5757  0.4577  0.2335
  154SAPE   H3X17135   1.660   1.000   7.021  0.5452  4.5754  2.1953
  154SAPE   H3Y17136   1.513   0.889   7.008  3.9654 -1.1975  2.3854
  154SAPE   C3417137   1.487   1.049   7.151  0.3224  0.2826  0.4242
  154SAPE   H4X17138   1.550   1.002   7.229 -0.9770  1.7896  2.4716
  154SAPE   H4Y17139   1.380   1.018   7.155  0.3371  0.3591  2.3183
  154SAPE   C3517140   1.513   1.197   7.188 -0.3994 -0.1377 -0.1522
  154SAPE   H5X17141   1.474   1.269   7.112  1.9600  1.6770  0.2438
  154SAPE   H5Y17142   1.622   1.219   7.188 -0.8420  2.4646  1.2014
  154SAPE   C3617143   1.442   1.241   7.321 -0.6075 -0.1982  0.9897
  154SAPE   H6X17144   1.335   1.225   7.300 -0.2117 -0.5890 -0.9068
  154SAPE   H6Y17145   1.456   1.350   7.342  0.1501 -0.1047  0.0947
  154SAPE   C3717146   1.496   1.171   7.446  0.1711  0.0737  0.8819
  154SAPE   H7X17147   1.606   1.185   7.432 -0.3688  1.5159 -3.0435
  154SAPE   H7Y17148   1.481   1.061   7.448 -0.2938  0.1247  0.1795
  154SAPE   C3817149   1.438   1.234   7.574  0.5100 -0.0664 -0.0259
  154SAPE   H8X17150   1.330   1.216   7.595  0.2691  0.6535 -0.6204
  154SAPE   H8Y17151   1.461   1.343   7.574  0.4507 -0.0405 -1.3769
  154SAPE   C3917152   1.507   1.178   7.696 -0.1763  0.1158  0.0625
  154SAPE   H9X17153   1.617   1.193   7.688 -0.1494 -0.2131 -0.1780
  154SAPE   H9Y17154   1.489   1.069   7.710 -1.9009  0.4839  1.0269
  154SAPE  C31017155   1.465   1.253   7.823 -0.2148 -0.7739  1.0360
  154SAPE  H10X17156   1.462   1.361   7.796  1.3376 -1.0066 -0.2243
  154SAPE  H10Y17157   1.544   1.251   7.901 -0.2202  1.2756  1.1505
  154SAPE  C31117158   1.334   1.206   7.878 -0.3016  0.3880  0.3759
  154SAPE  H11X17159   1.268   1.147   7.811  0.9891 -0.1208 -0.4936
  154SAPE  H11Y17160   1.269   1.293   7.899 -0.1484 -0.0186  2.9353
  154SAPE  C31217161   1.348   1.138   8.012  0.2452 -0.2046  0.5397
  154SAPE  H12X17162   1.421   1.055   7.999  0.4842 -0.2219  1.8824
  154SAPE  H12Y17163   1.244   1.104   8.026 -0.1103  0.9409  0.7718
  154SAPE  C31317164   1.400   1.215   8.128 -0.4694 -0.0807  0.2454
  154SAPE  H13X17165   1.358   1.317   8.118  0.2784  0.1656 -0.3797
  154SAPE  H13Y17166   1.510   1.228   8.123 -0.5849  0.4368 -1.2328
  154SAPE  C31417167   1.370   1.139   8.261 -0.0175 -0.2023 -0.1380
  154SAPE  H14X17168   1.402   1.205   8.345 -3.3026 -0.1924  1.2425
  154SAPE  H14Y17169   1.444   1.059   8.283  2.9425  2.2455 -0.4162
  154SAPE  C31517170   1.224   1.118   8.299 -0.1276  0.2045  0.0020
  154SAPE  H15X17171   1.174   1.062   8.217 -1.0520  3.2566 -1.6711
  154SAPE  H15Y17172   1.170   1.214   8.314 -1.2393 -0.5432  1.0223
  154SAPE  C31617173   1.204   1.038   8.430 -0.0061  0.1282 -0.8498
  154SAPE  H16X17174   1.098   1.026   8.462  0.7379 -2.5469  0.9958
  154SAPE  H16Y17175   1.247   1.105   8.507 -0.6759 -0.9923  0.5519
  154SAPE  C31717176   1.272   0.895   8.417  0.0516  1.8937  0.4713
  154SAPE  H17X17177   1.284   0.850   8.518  2.6416 -1.4806 -1.1400
  154SAPE  H17Y17178   1.374   0.894   8.374 -1.3496 -0.8604 -3.3450
  154SAPE  C31817179   1.196   0.793   8.330  0.2734 -0.0743 -0.2048
  154SAPE  H18X17180   1.215   0.684   8.337  0.3913  0.0360  1.8349
  154SAPE  H18Y17181   1.234   0.812   8.227 -0.9040 -0.3105 -0.6909
  154SAPE  H18Z17182   1.088   0.816   8.325  0.4211  1.6797  2.5229
  155SAPE     N17183   1.878   1.786   6.442  0.4830  0.3245  0.1193
  155SAPE   HN117184   1.909   1.837   6.358 -1.2217  0.1837 -0.6351
  155SAPE   HN217185   1.785   1.739   6.431 -0.6931  2.5338  0.1013
  155SAPE   HN317186   1.871   1.851   6.523 -2.1795  0.9180 -0.4984
  155SAPE   C1217187   1.975   1.679   6.489  0.6243  0.1012  0.2307
  155SAPE  H12A17188   1.995   1.612   6.403  0.5891  1.0990 -0.5704
  155SAPE  H12B17189   1.928   1.614   6.566 -0.2919 -1.0383 -1.2466
  155SAPE   C1117190   2.104   1.735   6.542  0.6033 -0.2200 -0.0194
  155SAPE  H11A17191   2.167   1.653   6.582 -0.0867 -0.8259 -0.1551
  155SAPE  H11B17192   2.090   1.803   6.629 -1.1373  2.5601 -2.2906
  155SAPE     P17193   2.256   1.767   6.331 -0.2934  0.2971 -0.1787
  155SAPE   O1317194   2.242   1.623   6.298 -0.1442  0.1510  0.2701
  155SAPE   O1417195   2.231   1.861   6.220 -1.0142 -0.0029 -0.1855
  155SAPE   O1217196   2.170   1.815   6.442 -0.8246  0.5255 -0.0800
  155SAPE   O1117197   2.404   1.797   6.381 -0.0280 -0.4668 -0.0882
  155SAPE    C117198   2.461   1.777   6.512  0.5208  0.0096  0.0887
  155SAPE    HA17199   2.525   1.865   6.537  2.9244 -1.6162  0.0005
  155SAPE    HB17200   2.392   1.754   6.596  1.1789 -1.8667  0.1700
  155SAPE    C217201   2.572   1.660   6.512  0.0404  0.1376 -0.0391
  155SAPE    HS17202   2.647   1.694   6.437 -0.6191 -0.8837 -1.2112
  155SAPE   O2117203   2.506   1.538   6.466 -0.0104  0.0155 -0.2876
  155SAPE   C2117204   2.590   1.448   6.415  0.9987 -0.0790  0.0747
  155SAPE   O2217205   2.706   1.461   6.393 -0.4556 -0.3340 -0.9624
  155SAPE   C2217206   2.501   1.320   6.378 -0.4808 -0.6412 -0.0017
  155SAPE   H2R17207   2.396   1.346   6.404  0.0094  0.4838  0.9185
  155SAPE   H2S17208   2.502   1.316   6.267 -0.8343 -0.9809  0.0083
  155SAPE    C317209   2.624   1.615   6.650 -0.0295  0.3600  0.8323
  155SAPE    HX17210   2.709   1.548   6.623  1.0656  1.2112  2.0449
  155SAPE    HY17211   2.543   1.563   6.707 -0.6640  1.0800  0.6084
  155SAPE   O3117212   2.671   1.735   6.715 -0.1571  0.6880  0.4163
  155SAPE   C3117213   2.693   1.716   6.851  0.3230 -0.0791  0.0068
  155SAPE   O3217214   2.699   1.612   6.907  0.2213  0.0552  0.0260
  155SAPE   C3217215   2.719   1.852   6.921  0.1002 -0.3314  0.9818
  155SAPE   H2X17216   2.674   1.936   6.864 -2.1735 -2.1774 -0.1329
  155SAPE   H2Y17217   2.827   1.876   6.915 -0.5479  2.5250 -1.4656
  155SAPE   C2317218   2.559   1.188   6.439 -0.0535 -0.0283 -0.3196
  155SAPE   H3R17219   2.667   1.170   6.423  0.4415  0.3684  2.0986
  155SAPE   H3S17220   2.504   1.101   6.398 -0.5767 -0.6790  1.6287
  155SAPE   C2417221   2.535   1.181   6.592 -0.5804  0.0286 -0.6079
  155SAPE   H4R17222   2.428   1.209   6.605  0.1168  2.8282 -0.0988
  155SAPE   H4S17223   2.587   1.260   6.651 -0.2893 -0.0158 -0.8100
  155SAPE   C2517224   2.567   1.044   6.638 -0.6227  0.5500  0.2497
  155SAPE   H5R17225   2.479   0.977   6.637 -0.5562  0.4696 -0.4005
  155SAPE   C2617226   2.682   0.996   6.679 -0.0595 -0.2730  0.5705
  155SAPE   H6R17227   2.686   0.891   6.711  0.3061  0.0993  1.8347
  155SAPE   C2717228   2.814   1.069   6.695  0.1917  0.4489 -0.2312
  155SAPE   H7R17229   2.797   1.168   6.743 -1.5702 -0.0195  0.2167
  155SAPE   H7S17230   2.847   1.088   6.591 -0.2186 -3.6794 -1.3092
  155SAPE   C2817231   2.924   0.978   6.751 -0.9039  0.7882 -0.0648
  155SAPE   H8R17232   3.002   0.955   6.677  0.1826  1.6349  0.7707
  155SAPE   C2917233   2.935   0.936   6.875  0.0209 -0.9173 -0.4837
  155SAPE   H9R17234   3.023   0.878   6.904  0.0354  0.1102  1.7286
  155SAPE  C21017235   2.835   0.966   6.983  0.2749  0.6426  0.8400
  155SAPE  H10R17236   2.753   1.036   6.959 -0.5162 -0.4767  0.1520
  155SAPE  H10S17237   2.879   1.017   7.071  1.3558  2.0953 -0.4797
  155SAPE  C21117238   2.763   0.831   7.025 -0.2054 -0.3191  0.1314
  155SAPE  H11R17239   2.745   0.761   6.942  0.5013 -0.0840 -0.2327
  155SAPE  C21217240   2.741   0.800   7.156  1.2848  0.2058  0.3835
  155SAPE  H12R17241   2.678   0.714   7.183 -0.0044  0.7611 -0.7116
  155SAPE  C21317242   2.778   0.891   7.276  0.2192  0.7780  0.4304
  155SAPE  H13R17243   2.703   0.861   7.351  1.6509 -0.4896  1.4112
  155SAPE  H13S17244   2.760   0.996   7.246 -0.4540  0.3193 -0.9021
  155SAPE  C21417245   2.911   0.863   7.326 -1.1981 -0.0562  0.1231
  155SAPE  H14R17246   2.991   0.833   7.256  0.4218 -1.0140  2.2778
  155SAPE  C21517247   2.951   0.872   7.455 -0.1092  0.2445 -0.0829
  155SAPE  H15R17248   3.056   0.853   7.481 -0.2082 -0.0288  0.1274
  155SAPE  C21617249   2.861   0.896   7.571 -0.2724 -0.5401  0.9575
  155SAPE  H16R17250   2.753   0.898   7.543 -0.1158 -3.9367 -0.4150
  155SAPE  H16S17251   2.901   0.995   7.602 -0.8105  0.9525 -2.6582
  155SAPE  C21717252   2.859   0.797   7.691 -0.6688 -0.1076  0.4733
  155SAPE  H17R17253   2.967   0.797   7.719 -0.0866  0.0746 -1.6231
  155SAPE  H17S17254   2.824   0.699   7.654 -1.2945  1.2937 -3.0668
  155SAPE  C21817255   2.773   0.853   7.803 -0.3363 -0.0324  0.1490
  155SAPE  H18R17256   2.666   0.857   7.774  0.3538  0.2010 -2.5790
  155SAPE  H18S17257   2.809   0.957   7.825 -0.2106  0.0119 -0.2620
  155SAPE  C21917258   2.799   0.777   7.933 -1.0606 -0.1514  0.0552
  155SAPE  H19R17259   2.898   0.728   7.938 -2.3251 -2.7533  1.7066
  155SAPE  H19S17260   2.732   0.689   7.927 -3.4840  1.6500 -1.1316
  155SAPE  C22017261   2.768   0.843   8.074  0.2696  0.1450 -0.7609
  155SAPE  H20R17262   2.771   0.774   8.161  1.9526  1.3538  0.1929
  155SAPE  H20S17263   2.669   0.892   8.081  0.4319  0.2741  1.2180
  155SAPE  H20T17264   2.829   0.933   8.096 -1.6853  1.1328  0.9174
  155SAPE   C3317265   2.669   1.853   7.067  0.4031  0.3634 -0.3498
  155SAPE   H3X17266   2.655   1.755   7.118  0.1655  0.8378  0.5055
  155SAPE   H3Y17267   2.570   1.903   7.061  1.5500  2.5896 -3.5506
  155SAPE   C3417268   2.766   1.935   7.153  0.2895 -0.2307  0.3304
  155SAPE   H4X17269   2.795   2.013   7.079  1.2832 -0.2557  0.6717
  155SAPE   H4Y17270   2.852   1.868   7.176 -0.5438 -0.7606  2.0687
  155SAPE   C3517271   2.710   2.004   7.281  0.4368 -0.6416  0.3215
  155SAPE   H5X17272   2.670   1.934   7.357  1.1231 -0.2552  1.0524
  155SAPE   H5Y17273   2.627   2.067   7.243  0.3586 -0.0969  1.3625
  155SAPE   C3617274   2.827   2.091   7.334  0.1063  0.0451 -0.3942
  155SAPE   H6X17275   2.797   2.148   7.425 -1.4322 -2.3790  0.7299
  155SAPE   H6Y17276   2.872   2.162   7.261  1.4834  2.5966  2.6867
  155SAPE   C3717277   2.962   2.018   7.369  0.1730 -0.2883 -0.2830
  155SAPE   H7X17278   2.993   1.973   7.272 -1.0462 -1.2611 -0.2499
  155SAPE   H7Y17279   2.935   1.939   7.442 -1.4928  1.7054  1.4134
  155SAPE   C3817280   3.065   2.116   7.427 -0.5012  0.0077 -0.2251
  155SAPE   H8X17281   3.071   2.206   7.363  1.9089 -0.4442 -0.7203
  155SAPE   H8Y17282   3.162   2.062   7.424 -0.3535  0.1964  0.8411
  155SAPE   C3917283   3.053   2.152   7.581  0.0770  0.0607  0.1198
  155SAPE   H9X17284   2.946   2.172   7.603  0.1810  0.8940 -0.1148
  155SAPE   H9Y17285   3.117   2.242   7.592  0.5774 -0.1286 -1.0347
  155SAPE  C31017286   3.108   2.045   7.679 -0.5668 -0.5311 -0.0944
  155SAPE  H10X17287   3.209   2.016   7.644 -1.4403 -1.0577 -2.3276
  155SAPE  H10Y17288   3.038   1.959   7.684 -1.2036  0.0384  1.6560
  155SAPE  C31117289   3.110   2.076   7.826  0.7666  0.5428 -0.1621
  155SAPE  H11X17290   3.003   2.100   7.841  0.3482 -0.9116 -0.6675
  155SAPE  H11Y17291   3.167   2.170   7.845  0.3922  1.1503 -1.8663
  155SAPE  C31217292   3.171   1.962   7.907 -0.2519 -0.5805 -0.5634
  155SAPE  H12X17293   3.274   1.941   7.870  0.3757 -0.1833  0.8988
  155SAPE  H12Y17294   3.117   1.866   7.893  1.3212 -1.6420  0.3533
  155SAPE  C31317295   3.186   2.002   8.053  0.2333  0.4821  0.5138
  155SAPE  H13X17296   3.081   2.020   8.087  0.5930  2.4903  0.6860
  155SAPE  H13Y17297   3.237   2.100   8.055  2.7649 -0.5655 -3.1167
  155SAPE  C31417298   3.244   1.890   8.141  0.1405  0.2560  0.4822
  155SAPE  H14X17299   3.321   1.834   8.085  1.3979  2.0875  0.3037
  155SAPE  H14Y17300   3.165   1.812   8.151  1.5522 -1.4068 -0.8758
  155SAPE  C31517301   3.308   1.929   8.283  0.6826 -0.0093  0.3240
  155SAPE  H15X17302   3.227   1.983   8.338 -0.6124 -1.0773 -0.4631
  155SAPE  H15Y17303   3.394   1.998   8.271  0.6098 -0.2367 -1.9712
  155SAPE  C31617304   3.324   1.803   8.366 -0.1891  0.7750 -0.1050
  155SAPE  H16X17305   3.378   1.725   8.308  0.7544  0.0471  1.6514
  155SAPE  H16Y17306   3.223   1.763   8.387 -0.1081 -0.0338 -1.1911
  155SAPE  C31717307   3.393   1.835   8.498  0.1994 -0.2746 -0.0565
  155SAPE  H17X17308   3.331   1.903   8.560  0.2561  1.3269 -1.6724
  155SAPE  H17Y17309   3.480   1.899   8.469  0.7933  0.2586  2.6519
  155SAPE  C31817310   3.462   1.721   8.570 -0.4002  0.0087 -0.0625
  155SAPE  H18X17311   3.522   1.659   8.500 -0.5224  0.1536 -0.2967
  155SAPE  H18Y17312   3.390   1.652   8.618  1.6958 -0.0705  3.2997
  155SAPE  H18Z17313   3.534   1.754   8.649 -0.7466  0.8052 -0.0736
  156SAPE     N17314   0.034   2.097   6.245  0.2651 -0.1009 -0.1245
  156SAPE   HN117315  -0.022   2.185   6.252 -1.6219 -1.2506 -0.1078
  156SAPE   HN217316   0.136   2.113   6.257  0.3932 -2.2421  2.8024
  156SAPE   HN317317   0.025   2.055   6.150  0.9597  0.1755 -0.3185
  156SAPE   C1217318   0.000   2.001   6.362  0.2019 -0.1855  0.4316
  156SAPE  H12A17319   0.097   1.951   6.385  0.1327 -0.5221  0.0084
  156SAPE  H12B17320  -0.084   1.934   6.335 -1.4498  0.9846  2.3869
  156SAPE   C1117321  -0.049   2.096   6.474  0.1219  0.0362  0.2737
  156SAPE  H11A17322  -0.070   2.024   6.557 -2.3926 -3.6110 -3.1639
  156SAPE  H11B17323  -0.149   2.135   6.444  0.1126  0.3810  0.7399
  156SAPE     P17324   0.009   2.347   6.487  0.5007  0.0561 -0.1275
  156SAPE   O1317325   0.124   2.439   6.495 -0.2871  0.0444  0.6342
  156SAPE   O1417326  -0.070   2.367   6.362 -0.5392 -0.6323 -0.6217
  156SAPE   O1217327   0.049   2.202   6.504  0.1351  0.5807 -0.1409
  156SAPE   O1117328  -0.087   2.382   6.609 -0.1580  0.0795  0.7607
  156SAPE    C117329  -0.047   2.352   6.739 -0.3109  0.0266  0.0449
  156SAPE    HA17330  -0.081   2.249   6.761  2.7507 -0.8456  1.1859
  156SAPE    HB17331   0.061   2.367   6.760 -0.8139 -0.0060  3.1608
  156SAPE    C217332  -0.122   2.452   6.831 -1.3969 -0.1926 -0.0977
  156SAPE    HS17333  -0.065   2.547   6.820  0.9743 -1.6884 -1.7900
  156SAPE   O2117334  -0.118   2.383   6.957 -0.2960  0.4052 -0.3508
  156SAPE   C2117335  -0.053   2.448   7.053  0.0705  1.1988 -0.8598
  156SAPE   O2217336  -0.017   2.566   7.042 -0.4919  0.7057 -0.2867
  156SAPE   C2217337  -0.035   2.346   7.172 -0.4286 -1.1136  1.0945
  156SAPE   H2R17338  -0.128   2.285   7.181 -0.3520 -1.4924 -0.4000
  156SAPE   H2S17339   0.042   2.271   7.145  1.0514  1.1925 -1.5840
  156SAPE    C317340  -0.264   2.480   6.794  0.2353 -0.9104  0.4113
  156SAPE    HX17341  -0.322   2.390   6.821 -1.6885  0.4169  0.8842
  156SAPE    HY17342  -0.262   2.508   6.686  0.9086  1.8437  1.0446
  156SAPE   O3117343  -0.312   2.591   6.879  0.1756 -0.4823  0.1512
  156SAPE   C3117344  -0.417   2.654   6.828 -0.4866 -0.8172  0.3410
  156SAPE   O3217345  -0.466   2.641   6.721 -0.0712  0.3972 -0.2269
  156SAPE   C3217346  -0.453   2.768   6.930 -0.3309 -0.2959 -0.6255
  156SAPE   H2X17347  -0.393   2.862   6.924 -1.6164  0.4768 -2.4858
  156SAPE   H2Y17348  -0.429   2.730   7.031 -0.1941 -0.0059 -0.5454
  156SAPE   C2317349   0.012   2.420   7.302  0.0561  0.1211 -0.2500
  156SAPE   H3R17350   0.086   2.501   7.287  0.5482  0.2230  2.3742
  156SAPE   H3S17351   0.063   2.352   7.374 -1.3989 -0.7405  0.0093
  156SAPE   C2417352  -0.107   2.480   7.385 -0.1452 -0.6389  0.3169
  156SAPE   H4R17353  -0.163   2.544   7.313 -1.3259 -1.0360  0.8650
  156SAPE   H4S17354  -0.063   2.544   7.464 -1.4923  1.1490 -0.2986
  156SAPE   C2517355  -0.213   2.376   7.422 -0.0698  0.0888  1.0731
  156SAPE   H5R17356  -0.268   2.333   7.337  1.5805  2.0401 -1.0914
  156SAPE   C2617357  -0.233   2.336   7.549 -0.2105  0.5999  0.4831
  156SAPE   H6R17358  -0.307   2.262   7.582 -0.4670  0.6282 -0.0085
  156SAPE   C2717359  -0.145   2.385   7.666 -0.1756 -0.3195  0.2623
  156SAPE   H7R17360  -0.177   2.486   7.699  0.4152  0.0987 -0.4072
  156SAPE   H7S17361  -0.041   2.407   7.633 -0.3603 -0.0560 -0.1605
  156SAPE   C2817362  -0.134   2.304   7.787 -0.6197  1.0283 -0.9050
  156SAPE   H8R17363  -0.139   2.195   7.771  0.6269  0.4358  2.0337
  156SAPE   C2917364  -0.140   2.330   7.917 -0.4232 -0.0985 -0.3370
  156SAPE   H9R17365  -0.141   2.247   7.990 -0.6149 -0.2715 -0.5347
  156SAPE  C21017366  -0.160   2.473   7.965  0.4370  0.7900 -0.5164
  156SAPE  H10R17367  -0.267   2.472   7.996  1.1221 -2.8953  2.5126
  156SAPE  H10S17368  -0.141   2.542   7.880  1.3806 -0.5004 -1.4007
  156SAPE  C21117369  -0.063   2.511   8.078  0.8763  0.2676  0.9733
  156SAPE  H11R17370   0.041   2.527   8.045  0.0575  1.8611 -1.0966
  156SAPE  C21217371  -0.092   2.525   8.204 -0.1940  0.1339 -0.8948
  156SAPE  H12R17372  -0.010   2.564   8.266 -1.8774  0.8506  1.0389
  156SAPE  C21317373  -0.229   2.504   8.268 -0.1321  0.5037  0.0745
  156SAPE  H13R17374  -0.221   2.409   8.325  0.0543 -0.6061 -1.7550
  156SAPE  H13S17375  -0.307   2.498   8.189  0.8761  1.6204 -1.0470
  156SAPE  C21417376  -0.263   2.614   8.367 -0.4316 -0.2177  0.2644
  156SAPE  H14R17377  -0.237   2.716   8.334 -1.8872  0.4180  0.9792
  156SAPE  C21517378  -0.343   2.605   8.471 -0.5444 -0.1269  0.2502
  156SAPE  H15R17379  -0.351   2.693   8.537 -0.6089 -1.1345  1.6260
  156SAPE  C21617380  -0.416   2.480   8.515 -0.7470  0.5499  0.2274
  156SAPE  H16R17381  -0.445   2.420   8.426  0.7766 -0.9465  0.6820
  156SAPE  H16S17382  -0.508   2.512   8.567  0.1856  0.6308  1.8784
  156SAPE  C21717383  -0.346   2.381   8.604  0.1024 -0.0349 -0.5193
  156SAPE  H17R17384  -0.264   2.325   8.554  1.8633  0.3667  1.7664
  156SAPE  H17S17385  -0.425   2.308   8.633  0.5713  0.1127  1.1932
  156SAPE  C21817386  -0.289   2.449   8.734 -0.5479  1.1140 -0.2654
  156SAPE  H18R17387  -0.372   2.492   8.794  0.0167  0.0448  1.3680
  156SAPE  H18S17388  -0.225   2.531   8.696 -0.1414  0.9531  0.0676
  156SAPE  C21917389  -0.213   2.363   8.827 -0.7063  0.2812 -0.5903
  156SAPE  H19R17390  -0.272   2.276   8.862  0.2419  0.3654  1.3601
  156SAPE  H19S17391  -0.201   2.429   8.916 -0.6529  0.3532 -0.6510
  156SAPE  C22017392  -0.079   2.320   8.764  0.0509 -0.0098  0.0107
  156SAPE  H20R17393  -0.025   2.408   8.723  2.0192 -0.8019  0.7484
  156SAPE  H20S17394  -0.094   2.242   8.686 -1.5488  1.0852 -0.8248
  156SAPE  H20T17395  -0.015   2.270   8.841 -0.8560 -2.6034 -0.8258
  156SAPE   C3317396  -0.607   2.805   6.924  0.5625 -0.0402  0.4206
  156SAPE   H3X17397  -0.672   2.720   6.955 -0.0089  0.8765  1.8165
  156SAPE   H3Y17398  -0.645   2.848   6.829  1.2418  0.7691  0.5024
  156SAPE   C3417399  -0.621   2.910   7.040 -0.3457  0.3669 -0.1907
  156SAPE   H4X17400  -0.552   2.994   7.020  3.3114 -1.7045  2.4512
  156SAPE   H4Y17401  -0.585   2.866   7.136 -0.2207  0.6333 -0.1139
  156SAPE   C3517402  -0.761   2.968   7.066 -0.1970 -0.4669 -0.4389
  156SAPE   H5X17403  -0.799   3.016   6.973 -0.4707 -1.1618 -0.6959
  156SAPE   H5Y17404  -0.760   3.032   7.156  0.1059 -0.1443 -0.6685
  156SAPE   C3617405  -0.862   2.858   7.102  0.5976  0.3456 -0.4381
  156SAPE   H6X17406  -0.869   2.786   7.017 -0.5232 -1.3159  0.9865
  156SAPE   H6Y17407  -0.959   2.910   7.112  1.2641  1.8849 -1.6694
  156SAPE   C3717408  -0.837   2.788   7.232  0.2120  0.4885  0.1889
  156SAPE   H7X17409  -0.749   2.722   7.214 -0.2446  0.3486 -1.6810
  156SAPE   H7Y17410  -0.926   2.726   7.250 -0.8336  1.0277 -2.5908
  156SAPE   C3817411  -0.807   2.888   7.345 -0.0229  0.2043  0.2354
  156SAPE   H8X17412  -0.879   2.972   7.339  0.0384  0.2413  0.0012
  156SAPE   H8Y17413  -0.704   2.927   7.329  0.3713 -2.0531 -4.5709
  156SAPE   C3917414  -0.837   2.824   7.485  0.0019  0.4380 -0.1096
  156SAPE   H9X17415  -0.748   2.837   7.550  0.7237 -2.6065 -0.3432
  156SAPE   H9Y17416  -0.841   2.716   7.460 -0.6634  0.4705 -0.1615
  156SAPE  C31017417  -0.954   2.882   7.560  0.8662  0.3770 -0.6459
  156SAPE  H10X17418  -1.031   2.873   7.480  0.3888  0.6911 -0.2259
  156SAPE  H10Y17419  -0.947   2.991   7.579  1.1362 -0.0837  2.3671
  156SAPE  C31117420  -0.997   2.818   7.689  0.6959 -0.2742  0.4429
  156SAPE  H11X17421  -1.014   2.711   7.664 -2.3045  0.6303 -2.1214
  156SAPE  H11Y17422  -1.100   2.849   7.719  0.5658 -1.8103  1.7353
  156SAPE  C31217423  -0.908   2.847   7.806 -0.1663 -0.5341 -1.2203
  156SAPE  H12X17424  -0.897   2.954   7.830 -1.2134 -0.5842 -0.4343
  156SAPE  H12Y17425  -0.810   2.806   7.775  0.7740  2.8714 -3.2383
  156SAPE  C31317426  -0.964   2.775   7.933  0.7935 -0.6372 -0.6897
  156SAPE  H13X17427  -1.002   2.674   7.908 -2.9417 -0.2280  2.4081
  156SAPE  H13Y17428  -1.055   2.827   7.969  1.4140  0.7197 -1.0045
  156SAPE  C31417429  -0.878   2.771   8.056  0.1490  0.0367  0.4527
  156SAPE  H14X17430  -0.834   2.872   8.072 -1.7360  1.1858 -1.1480
  156SAPE  H14Y17431  -0.789   2.705   8.045 -0.0714 -0.1772 -0.1070
  156SAPE  C31517432  -0.953   2.755   8.189 -0.0622  0.8925  0.0578
  156SAPE  H15X17433  -0.973   2.648   8.210  1.1558  0.6919  0.2848
  156SAPE  H15Y17434  -1.054   2.800   8.183 -0.8807 -0.4318  2.4984
  156SAPE  C31617435  -0.883   2.802   8.318  0.5753 -0.2540  0.0684
  156SAPE  H16X17436  -0.851   2.908   8.309  0.2170 -0.0118  1.5196
  156SAPE  H16Y17437  -0.789   2.748   8.343  0.9072  1.1318  2.0224
  156SAPE  C31717438  -0.975   2.799   8.444 -0.2925  0.0177  1.1047
  156SAPE  H17X17439  -1.005   2.694   8.465  0.1266 -0.1349  0.9460
  156SAPE  H17Y17440  -1.072   2.847   8.423  0.5138  1.6492  0.9237
  156SAPE  C31817441  -0.925   2.872   8.570 -0.7586  0.0201 -0.4454
  156SAPE  H18X17442  -1.001   2.872   8.652  1.7198 -0.4683  1.9895
  156SAPE  H18Y17443  -0.889   2.972   8.539 -0.5616  0.1389  0.1516
  156SAPE  H18Z17444  -0.833   2.825   8.610 -0.4695  0.7412 -0.2406
  157SAPE     N17445   3.151   3.929   6.484  0.5609  0.2478 -0.3211
  157SAPE   HN117446   3.225   3.862   6.454  0.3069 -1.7777  3.1109
  157SAPE   HN217447   3.070   3.934   6.419  0.6399  0.8024 -0.3827
  157SAPE   HN317448   3.193   4.024   6.494  2.1696 -0.6378  2.3863
  157SAPE   C1217449   3.109   3.869   6.613 -0.3020  0.0763 -0.2625
  157SAPE  H12A17450   3.022   3.925   6.654  0.7241  2.1136 -0.7294
  157SAPE  H12B17451   3.194   3.867   6.684 -1.0775  3.0465  0.9150
  157SAPE   C1117452   3.077   3.721   6.574  0.0329  0.6002  0.7156
  157SAPE  H11A17453   2.994   3.720   6.500  0.4439  1.9733  0.2007
  157SAPE  H11B17454   3.044   3.668   6.666 -1.5744 -2.7204 -1.5630
  157SAPE     P17455   3.222   3.557   6.424 -0.2772 -0.0947 -0.2698
  157SAPE   O1317456   3.160   3.619   6.299 -0.3097 -0.0335 -0.3639
  157SAPE   O1417457   3.361   3.520   6.433 -0.5320  0.1924  0.0878
  157SAPE   O1217458   3.201   3.656   6.540  0.2908  0.7607 -0.0195
  157SAPE   O1117459   3.134   3.442   6.472  0.0825  0.6258 -0.2912
  157SAPE    C117460   3.179   3.319   6.532 -0.6605  0.5978  0.5850
  157SAPE    HA17461   3.120   3.237   6.487 -1.3824  1.4503 -0.0474
  157SAPE    HB17462   3.284   3.303   6.499  0.0512  3.1379  1.4020
  157SAPE    C217463   3.194   3.326   6.684  0.2851 -0.2925  0.3676
  157SAPE    HS17464   3.101   3.363   6.733 -0.3076 -0.0417 -0.9071
  157SAPE   O2117465   3.305   3.408   6.713 -0.0343  0.1548 -0.2570
  157SAPE   C2117466   3.283   3.515   6.791 -0.3719 -0.0842  0.0415
  157SAPE   O2217467   3.182   3.545   6.853 -0.2098  0.1441  0.0518
  157SAPE   C2217468   3.408   3.603   6.789 -0.1298  0.3347 -0.2229
  157SAPE   H2R17469   3.494   3.555   6.737 -0.8498  0.2612 -1.3807
  157SAPE   H2S17470   3.381   3.690   6.726  1.1527  1.1703  0.3469
  157SAPE    C317471   3.236   3.184   6.740  0.1128  0.1242  0.8665
  157SAPE    HX17472   3.341   3.170   6.707  0.0365 -1.0413  1.0988
  157SAPE    HY17473   3.179   3.105   6.688  0.8411  0.0520  0.1655
  157SAPE   O3117474   3.236   3.187   6.883 -0.1710 -0.1243 -0.3317
  157SAPE   C3117475   3.120   3.126   6.933  0.6594 -0.2173  0.3731
  157SAPE   O3217476   3.029   3.086   6.861  0.2763 -0.0164  0.7071
  157SAPE   C3217477   3.107   3.150   7.088  0.2521  0.0760  0.1684
  157SAPE   H2X17478   3.157   3.246   7.112 -0.1828  0.2753  0.2774
  157SAPE   H2Y17479   3.159   3.067   7.140 -1.4050 -1.2902 -0.2639
  157SAPE   C2317480   3.456   3.627   6.936  0.3943 -0.6366  0.6961
  157SAPE   H3R17481   3.373   3.649   7.007 -0.6467  4.8079 -1.6270
  157SAPE   H3S17482   3.512   3.724   6.933  0.1761 -0.4908  1.1406
  157SAPE   C2417483   3.559   3.527   6.992 -0.5814 -0.2681  0.1301
  157SAPE   H4R17484   3.639   3.513   6.916 -0.6286 -1.0735  0.2154
  157SAPE   H4S17485   3.503   3.431   7.002 -1.7013  0.4300  0.6810
  157SAPE   C2517486   3.610   3.576   7.125  0.0014 -0.0687 -0.8464
  157SAPE   H5R17487   3.695   3.645   7.118  0.7526 -1.0410 -1.6751
  157SAPE   C2617488   3.564   3.537   7.249 -0.6353 -0.0786 -0.1286
  157SAPE   H6R17489   3.613   3.575   7.340  0.3337 -2.0744  0.2315
  157SAPE   C2717490   3.456   3.443   7.275  0.0067 -0.4923  0.3000
  157SAPE   H7R17491   3.478   3.360   7.346 -0.4669 -1.3760 -0.5611
  157SAPE   H7S17492   3.432   3.376   7.190 -1.4635  0.3683  0.0128
  157SAPE   C2817493   3.321   3.502   7.281  0.4564 -0.0342  0.0194
  157SAPE   H8R17494   3.281   3.544   7.188  0.3965 -0.7808 -0.3035
  157SAPE   C2917495   3.240   3.501   7.392 -0.3499 -0.3091  0.7912
  157SAPE   H9R17496   3.144   3.554   7.393  0.5790  1.4764  2.0969
  157SAPE  C21017497   3.273   3.463   7.533  0.3212  0.0580 -0.7738
  157SAPE  H10R17498   3.318   3.362   7.528 -2.0937 -1.0233 -3.1676
  157SAPE  H10S17499   3.173   3.460   7.580 -0.1069  0.7411 -1.6182
  157SAPE  C21117500   3.368   3.556   7.603 -0.8099  0.3614 -0.1304
  157SAPE  H11R17501   3.403   3.644   7.546 -1.0226  0.8848  0.5299
  157SAPE  C21217502   3.419   3.540   7.728  0.0644 -0.4124 -0.7511
  157SAPE  H12R17503   3.475   3.622   7.774 -1.3293  1.1627 -1.7272
  157SAPE  C21317504   3.384   3.427   7.825  0.6246  0.1749  0.3032
  157SAPE  H13R17505   3.396   3.325   7.782 -0.9972  0.1833 -0.2159
  157SAPE  H13S17506   3.273   3.430   7.826  0.5981 -0.6033  0.7403
  157SAPE  C21417507   3.451   3.439   7.965 -0.3815 -0.2676  0.2337
  157SAPE  H14R17508   3.531   3.369   7.993  1.5001  1.6794  0.0107
  157SAPE  C21517509   3.408   3.528   8.054  0.4758  0.1384 -0.1427
  157SAPE  H15R17510   3.446   3.525   8.157  0.0846  2.0804  0.0978
  157SAPE  C21617511   3.298   3.627   8.039 -0.4196  0.4555 -0.6415
  157SAPE  H16R17512   3.236   3.591   7.955 -0.3238 -3.4797  0.7797
  157SAPE  H16S17513   3.346   3.727   8.024 -2.8907  1.8812  0.4550
  157SAPE  C21717514   3.213   3.633   8.171 -0.0919  0.5350 -0.1488
  157SAPE  H17R17515   3.180   3.531   8.200  1.1317  0.1842  0.0751
  157SAPE  H17S17516   3.118   3.685   8.145  0.4556  2.8219  1.9988
  157SAPE  C21817517   3.270   3.711   8.285 -0.2365 -0.3299  0.3968
  157SAPE  H18R17518   3.263   3.819   8.259 -1.3397 -0.7583 -1.2597
  157SAPE  H18S17519   3.378   3.685   8.295 -0.5478 -2.0361 -0.4018
  157SAPE  C21917520   3.202   3.700   8.421 -0.1897  0.1428  0.7936
  157SAPE  H19R17521   3.281   3.740   8.488  2.0213  0.3674 -1.7990
  157SAPE  H19S17522   3.177   3.596   8.453 -0.0779  0.3535  1.5928
  157SAPE  C22017523   3.073   3.779   8.441  0.0490  0.4382 -0.1058
  157SAPE  H20R17524   2.985   3.737   8.387 -1.1097  1.5940  0.8224
  157SAPE  H20S17525   3.094   3.886   8.417  1.7163 -0.0575 -0.9912
  157SAPE  H20T17526   3.036   3.776   8.545 -0.8570  2.0803 -0.3457
  157SAPE   C3317527   2.954   3.144   7.127  0.7231  0.6790 -0.2287
  157SAPE   H3X17528   2.914   3.041   7.116  0.8004  0.2768  2.4578
  157SAPE   H3Y17529   2.905   3.225   7.069  2.3149  1.4383 -0.5554
  157SAPE   C3417530   2.928   3.180   7.272 -0.1003  0.3094 -0.3013
  157SAPE   H4X17531   2.818   3.173   7.285 -0.2125  1.9087 -0.1738
  157SAPE   H4Y17532   2.949   3.287   7.293 -0.5450  0.1610  0.9803
  157SAPE   C3517533   3.011   3.104   7.374 -0.2718 -0.6078 -0.1453
  157SAPE   H5X17534   3.115   3.144   7.383 -1.0695  1.4190  0.4987
  157SAPE   H5Y17535   3.006   2.997   7.343 -3.1522 -0.2107 -1.3098
  157SAPE   C3617536   2.944   3.119   7.517  0.2217 -0.2859  0.9334
  157SAPE   H6X17537   2.856   3.051   7.523 -0.9862  1.2793  1.6489
  157SAPE   H6Y17538   2.921   3.225   7.537 -0.0261 -0.6301  2.6609
  157SAPE   C3717539   3.038   3.070   7.626  0.1384  0.4934 -0.2805
  157SAPE   H7X17540   3.132   3.128   7.627 -0.3962  1.4504  2.1727
  157SAPE   H7Y17541   3.071   2.964   7.629 -0.2115  0.3871  2.5553
  157SAPE   C3817542   2.969   3.097   7.763 -0.4972 -0.3162 -0.5170
  157SAPE   H8X17543   2.870   3.051   7.745 -1.0564  0.5063  0.3578
  157SAPE   H8Y17544   2.957   3.205   7.786 -0.1845 -0.6716  1.4989
  157SAPE   C3917545   3.036   3.015   7.877 -0.4294 -0.2430 -0.5222
  157SAPE   H9X17546   3.054   2.907   7.858 -2.1945 -1.1593  2.3837
  157SAPE   H9Y17547   2.963   3.012   7.960  0.1817 -2.2945 -0.0035
  157SAPE  C31017548   3.162   3.079   7.938 -0.0295  0.7949 -0.4805
  157SAPE  H10X17549   3.144   3.189   7.934 -0.6082  0.7065 -0.4821
  157SAPE  H10Y17550   3.260   3.058   7.890  1.4127  2.9610  1.2793
  157SAPE  C31117551   3.176   3.031   8.082  0.2201 -0.2901 -0.3400
  157SAPE  H11X17552   3.235   2.937   8.085  1.2104  0.3363  0.3530
  157SAPE  H11Y17553   3.082   3.015   8.139  2.3000 -0.2208  3.3830
  157SAPE  C31217554   3.263   3.124   8.172 -0.2923  0.4042  0.1436
  157SAPE  H12X17555   3.237   3.231   8.160 -1.4162  0.3108  1.4845
  157SAPE  H12Y17556   3.368   3.116   8.137  0.0895 -0.0660  1.3410
  157SAPE  C31317557   3.259   3.084   8.317  0.8969  0.1555  0.7609
  157SAPE  H13X17558   3.352   3.024   8.327  0.8862  0.2614  1.6162
  157SAPE  H13Y17559   3.174   3.020   8.350  0.7881 -0.3520 -0.4287
  157SAPE  C31417560   3.271   3.205   8.419 -0.3644  0.0225 -0.0927
  157SAPE  H14X17561   3.287   3.162   8.520 -0.4788 -2.2654 -0.9962
  157SAPE  H14Y17562   3.181   3.269   8.420 -0.6563 -0.3921  0.2312
  157SAPE  C31517563   3.400   3.281   8.384 -0.2018 -0.8759  0.1044
  157SAPE  H15X17564   3.371   3.360   8.311 -1.1679 -0.9323  0.4250
  157SAPE  H15Y17565   3.476   3.218   8.333  0.4364 -0.4157  0.4725
  157SAPE  C31617566   3.468   3.342   8.506 -0.0739  0.6308  0.4372
  157SAPE  H16X17567   3.569   3.369   8.467  0.2832 -0.0171  0.8842
  157SAPE  H16Y17568   3.479   3.267   8.588 -1.1299  0.4852  0.4541
  157SAPE  C31717569   3.397   3.461   8.560 -0.0318  0.0015 -0.4141
  157SAPE  H17X17570   3.289   3.441   8.579  0.0348  0.2594  0.2738
  157SAPE  H17Y17571   3.392   3.535   8.477  1.4642 -0.1947 -0.7005
  157SAPE  C31817572   3.474   3.519   8.678  0.1548 -0.5958  0.0068
  157SAPE  H18X17573   3.579   3.548   8.660  0.9025 -2.2484  1.3959
  157SAPE  H18Y17574   3.473   3.447   8.763 -0.8515 -0.7359 -0.1046
  157SAPE  H18Z17575   3.420   3.609   8.713 -1.5920 -1.6117  0.0635
  158SAPE     N17576   0.024   1.500   6.384  0.0425  0.2776  0.0239
  158SAPE   HN117577  -0.039   1.560   6.327 -2.8431 -1.4958  1.0838
  158SAPE   HN217578   0.118   1.525   6.348 -0.2081  1.0327 -0.1205
  158SAPE   HN317579  -0.002   1.400   6.379  2.5653 -0.4243 -0.3466
  158SAPE   C1217580   0.025   1.543   6.527  0.0127  0.4640 -0.2943
  158SAPE  H12A17581   0.126   1.582   6.551 -0.0478 -0.4545  1.7117
  158SAPE  H12B17582  -0.001   1.453   6.588 -0.2406  1.6630  1.4137
  158SAPE   C1117583  -0.091   1.651   6.554 -1.2201  0.7440  0.4410
  158SAPE  H11A17584  -0.056   1.741   6.499 -0.7928  0.5951  0.4660
  158SAPE  H11B17585  -0.097   1.667   6.664 -0.4466  1.8065  0.3395
  158SAPE     P17586  -0.293   1.636   6.374 -0.4135  0.1585  0.0207
  158SAPE   O1317587  -0.195   1.627   6.265  0.1399 -0.2112 -0.2836
  158SAPE   O1417588  -0.414   1.551   6.368 -0.2865 -0.1355 -0.4686
  158SAPE   O1217589  -0.215   1.596   6.507 -0.8043  0.4092 -0.1260
  158SAPE   O1117590  -0.344   1.784   6.393  0.4596  0.3390 -0.2600
  158SAPE    C117591  -0.353   1.850   6.515 -0.0155  0.8229 -0.2623
  158SAPE    HA17592  -0.262   1.826   6.574  0.2327  0.4669 -0.7867
  158SAPE    HB17593  -0.338   1.957   6.490 -1.8196  1.1708  0.0263
  158SAPE    C217594  -0.490   1.827   6.589 -0.0867 -0.3054  0.2908
  158SAPE    HS17595  -0.500   1.895   6.675  1.4121  0.2104  0.0828
  158SAPE   O2117596  -0.513   1.689   6.627  0.5827 -0.7918 -0.3428
  158SAPE   C2117597  -0.435   1.648   6.720 -0.0738 -0.0584 -0.0233
  158SAPE   O2217598  -0.359   1.713   6.791 -0.2578 -0.2505  0.0682
  158SAPE   C2217599  -0.436   1.492   6.738  0.6616  0.1593 -0.1896
  158SAPE   H2R17600  -0.435   1.452   6.634  0.8366 -1.6099  0.4546
  158SAPE   H2S17601  -0.338   1.466   6.784  1.1165 -0.5049 -1.4697
  158SAPE    C317602  -0.617   1.865   6.499 -0.4245  0.7424  0.9896
  158SAPE    HX17603  -0.647   1.778   6.438 -0.0615 -0.1661  2.0772
  158SAPE    HY17604  -0.578   1.940   6.427  0.7015 -1.8410 -1.2463
  158SAPE   O3117605  -0.726   1.913   6.581  0.4198 -0.0030 -0.5493
  158SAPE   C3117606  -0.801   1.814   6.636  0.4291  0.1322 -0.0046
  158SAPE   O3217607  -0.786   1.697   6.616  0.2856  0.4033  0.4433
  158SAPE   C3217608  -0.889   1.892   6.733 -0.6311  0.3648 -0.2060
  158SAPE   H2X17609  -0.966   1.934   6.665  1.1786  2.0798 -1.2934
  158SAPE   H2Y17610  -0.838   1.978   6.780  1.4924  0.0740 -1.8038
  158SAPE   C2317611  -0.560   1.454   6.824  0.0412 -0.1000 -0.1181
  158SAPE   H3R17612  -0.600   1.356   6.790  0.2757  0.3434 -1.7688
  158SAPE   H3S17613  -0.642   1.527   6.805 -0.8174 -1.1522 -0.5309
  158SAPE   C2417614  -0.528   1.442   6.972  0.4793  0.0432 -0.5698
  158SAPE   H4R17615  -0.472   1.530   7.011 -0.5132  0.3063  0.3090
  158SAPE   H4S17616  -0.466   1.350   6.977 -0.2073 -0.4017  0.0849
  158SAPE   C2517617  -0.655   1.406   7.047 -0.5024 -0.1854 -0.5104
  158SAPE   H5R17618  -0.724   1.491   7.062  0.0947  0.1055  0.6862
  158SAPE   C2617619  -0.689   1.292   7.105 -0.2823  0.4884  0.0099
  158SAPE   H6R17620  -0.783   1.291   7.163  0.4238 -2.7627  1.3209
  158SAPE   C2717621  -0.604   1.170   7.105  0.1740 -0.2210 -0.6552
  158SAPE   H7R17622  -0.519   1.197   7.172  0.0484 -0.9129 -0.2132
  158SAPE   H7S17623  -0.559   1.142   7.007 -0.5779 -1.1115 -0.7564
  158SAPE   C2817624  -0.664   1.042   7.159 -0.2641  0.0792  0.5688
  158SAPE   H8R17625  -0.685   0.968   7.081  0.2835  0.2680  0.2390
  158SAPE   C2917626  -0.652   0.995   7.278  0.2713 -0.1476 -0.1009
  158SAPE   H9R17627  -0.709   0.902   7.292 -0.0240 -0.0862 -0.8620
  158SAPE  C21017628  -0.598   1.060   7.404  0.2391 -0.0709  0.0572
  158SAPE  H10R17629  -0.655   1.033   7.496 -0.7797  0.0771 -0.5101
  158SAPE  H10S17630  -0.604   1.169   7.383  1.1641 -0.0821 -0.2819
  158SAPE  C21117631  -0.450   1.030   7.430 -0.6736 -0.1696 -0.6269
  158SAPE  H11R17632  -0.381   1.019   7.346  1.0066  0.0813  0.6713
  158SAPE  C21217633  -0.391   1.019   7.552  0.2939 -0.9413 -0.8238
  158SAPE  H12R17634  -0.284   0.992   7.559  0.8340  1.1143 -0.3590
  158SAPE  C21317635  -0.462   1.031   7.687  0.7441 -0.2691 -0.2882
  158SAPE  H13R17636  -0.472   0.932   7.735 -1.9385  1.4044  2.9799
  158SAPE  H13S17637  -0.565   1.071   7.678  1.0004  0.2945 -0.8400
  158SAPE  C21417638  -0.369   1.112   7.777  0.3639 -0.2281  0.8942
  158SAPE  H14R17639  -0.321   1.199   7.730 -2.0121  1.0828  0.7669
  158SAPE  C21517640  -0.357   1.104   7.910  0.0807  0.3790  0.6464
  158SAPE  H15R17641  -0.313   1.188   7.966 -0.5673  0.8698  0.4284
  158SAPE  C21617642  -0.418   0.997   7.995 -0.8059  0.1170  0.2887
  158SAPE  H16R17643  -0.337   0.921   8.002  1.7784  2.3410 -2.7690
  158SAPE  H16S17644  -0.515   0.957   7.957  0.5496 -1.3649 -1.8307
  158SAPE  C21717645  -0.436   1.045   8.136  0.4213  0.1216  0.0761
  158SAPE  H17R17646  -0.524   1.112   8.146  1.9065  2.1349  0.1861
  158SAPE  H17S17647  -0.346   1.101   8.170  0.1020 -0.2593  1.6430
  158SAPE  C21817648  -0.451   0.925   8.241  0.1071  0.1849  0.3509
  158SAPE  H18R17649  -0.360   0.862   8.236 -1.4904 -2.3055  0.8459
  158SAPE  H18S17650  -0.528   0.864   8.189 -3.1250  3.8551  0.4172
  158SAPE  C21917651  -0.492   0.961   8.377 -0.5889 -0.1177  0.4726
  158SAPE  H19R17652  -0.431   1.041   8.423  1.7551  0.2665 -2.9385
  158SAPE  H19S17653  -0.476   0.864   8.430  3.4417  0.1594  0.0177
  158SAPE  C22017654  -0.639   0.999   8.390 -0.7618 -0.0820 -0.1651
  158SAPE  H20R17655  -0.660   1.097   8.341  1.5919  1.2363  1.2668
  158SAPE  H20S17656  -0.661   1.015   8.498  1.2659 -0.9070  0.3971
  158SAPE  H20T17657  -0.707   0.918   8.356 -2.1979  0.4290  1.3594
  158SAPE   C3317658  -0.955   1.803   6.838 -0.2831 -0.2441 -0.1754
  158SAPE   H3X17659  -1.025   1.732   6.788 -0.0156 -0.7025  0.0910
  158SAPE   H3Y17660  -1.028   1.871   6.887 -0.9043 -0.6317 -0.5481
  158SAPE   C3417661  -0.859   1.742   6.952  0.5571  0.0321  0.4793
  158SAPE   H4X17662  -0.776   1.680   6.913  1.2853  0.6027  1.1016
  158SAPE   H4Y17663  -0.912   1.667   7.015  0.1326  0.8648  1.1280
  158SAPE   C3517664  -0.798   1.853   7.036 -0.4987  0.2208 -0.0243
  158SAPE   H5X17665  -0.879   1.928   7.050 -0.2374  0.7032 -0.9955
  158SAPE   H5Y17666  -0.727   1.909   6.971 -0.6308  0.4575  0.0310
  158SAPE   C3617667  -0.734   1.807   7.163 -0.3439 -0.1394  0.3854
  158SAPE   H6X17668  -0.642   1.751   7.137 -0.2844  0.4769 -0.7558
  158SAPE   H6Y17669  -0.802   1.747   7.227  0.3505 -1.0262  0.3207
  158SAPE   C3717670  -0.681   1.918   7.248  0.7336 -0.2092 -0.2975
  158SAPE   H7X17671  -0.632   1.995   7.185 -0.8533  0.2655 -1.0213
  158SAPE   H7Y17672  -0.766   1.971   7.296  1.5193  1.7972 -1.0217
  158SAPE   C3817673  -0.603   1.875   7.366 -0.8745  0.4900 -0.0525
  158SAPE   H8X17674  -0.502   1.848   7.329 -0.5868 -0.5507  1.3959
  158SAPE   H8Y17675  -0.650   1.785   7.410 -2.6822  1.7884  0.8193
  158SAPE   C3917676  -0.575   1.982   7.469  0.2145  0.6740 -0.2071
  158SAPE   H9X17677  -0.674   2.022   7.499 -0.4036  0.0551 -1.3420
  158SAPE   H9Y17678  -0.529   2.062   7.408 -0.2342 -0.1236 -1.6540
  158SAPE  C31017679  -0.488   1.929   7.578  0.1297  0.3716 -0.0770
  158SAPE  H10X17680  -0.382   1.920   7.545 -0.0579 -0.8267 -0.4060
  158SAPE  H10Y17681  -0.512   1.825   7.610 -0.7074  0.5061 -0.2418
  158SAPE  C31117682  -0.502   2.014   7.714  0.1037 -0.4837 -0.1247
  158SAPE  H11X17683  -0.607   1.993   7.741 -0.2617  1.7374  0.3665
  158SAPE  H11Y17684  -0.495   2.123   7.696 -0.8769 -0.3687  0.1366
  158SAPE  C31217685  -0.394   1.976   7.813 -0.1139 -0.2819 -0.1600
  158SAPE  H12X17686  -0.314   2.050   7.789 -0.5605  0.7247  1.3028
  158SAPE  H12Y17687  -0.373   1.867   7.810 -1.5396 -0.6778  1.9610
  158SAPE  C31317688  -0.435   2.001   7.953  0.0807  0.2159  0.6368
  158SAPE  H13X17689  -0.490   2.097   7.967 -0.5329  0.1825 -1.2396
  158SAPE  H13Y17690  -0.343   1.998   8.016  1.0648  0.2549 -0.7620
  158SAPE  C31417691  -0.526   1.890   8.009 -0.5009 -0.5964  0.2125
  158SAPE  H14X17692  -0.471   1.795   7.995 -0.2014 -0.2010 -1.5228
  158SAPE  H14Y17693  -0.616   1.874   7.945 -1.8076  1.4131  1.4256
  158SAPE  C31517694  -0.574   1.913   8.154 -0.2484  0.4435 -0.0447
  158SAPE  H15X17695  -0.642   1.834   8.190 -0.8334  0.5410 -0.8930
  158SAPE  H15Y17696  -0.627   2.010   8.167 -1.2583 -0.4815  4.0560
  158SAPE  C31617697  -0.464   1.914   8.253 -0.8116  0.1704 -0.6242
  158SAPE  H16X17698  -0.390   1.979   8.203 -1.3023 -0.4240 -2.1783
  158SAPE  H16Y17699  -0.413   1.820   8.285  1.6803  1.1565 -1.4424
  158SAPE  C31717700  -0.493   1.991   8.383 -0.5280 -0.2005  0.6451
  158SAPE  H17X17701  -0.588   1.955   8.429  0.1064 -3.2075 -0.1599
  158SAPE  H17Y17702  -0.513   2.095   8.351  2.0275  0.7011  1.6963
  158SAPE  C31817703  -0.372   2.000   8.476  0.2127  0.5371 -0.3518
  158SAPE  H18X17704  -0.282   2.035   8.422  0.6500 -2.8912 -2.1104
  158SAPE  H18Y17705  -0.339   1.904   8.521  0.8057  0.5019 -0.8392
  158SAPE  H18Z17706  -0.395   2.067   8.561 -1.2650  0.0757 -0.3565
  159SAPE     N17707   4.947   5.317   6.269 -0.3536  0.0148  0.1831
  159SAPE   HN117708   4.952   5.419   6.248 -0.1775  0.1613  0.9224
  159SAPE   HN217709   4.881   5.301   6.348  0.2175 -1.0963  0.4518
  159SAPE   HN317710   5.038   5.283   6.307  0.0421 -1.8936 -2.2309
  159SAPE   C1217711   4.907   5.231   6.151 -0.2972  0.5454 -0.1480
  159SAPE  H12A17712   4.972   5.259   6.065  0.2985  0.1650  0.1768
  159SAPE  H12B17713   4.799   5.245   6.129 -0.4510 -0.4446 -0.0530
  159SAPE   C1117714   4.945   5.084   6.194  0.6801 -0.1239 -0.1125
  159SAPE  H11A17715   5.056   5.075   6.188  0.9249  2.5915 -1.3091
  159SAPE  H11B17716   4.898   5.013   6.122 -2.7025  1.1730  0.6552
  159SAPE     P17717   4.729   5.010   6.333  0.2011  0.2705 -0.2067
  159SAPE   O1317718   4.652   5.138   6.343 -0.0372  0.2996 -0.2607
  159SAPE   O1417719   4.681   4.924   6.224 -0.1081 -0.3214 -0.1228
  159SAPE   O1217720   4.883   5.044   6.317  0.0173  0.1882 -0.3815
  159SAPE   O1117721   4.727   4.925   6.467 -0.2961 -0.2407  0.5173
  159SAPE    C117722   4.807   4.959   6.584  0.1075 -0.1576 -0.4357
  159SAPE    HA17723   4.889   4.888   6.608  0.3097  0.8126  2.0865
  159SAPE    HB17724   4.852   5.060   6.573  2.5979 -1.0851  0.4717
  159SAPE    C217725   4.716   4.977   6.711 -0.1905 -0.0438  0.2113
  159SAPE    HS17726   4.626   5.036   6.684 -2.7255 -3.1405  1.2422
  159SAPE   O2117727   4.798   5.019   6.819  0.3814 -0.4052 -0.0328
  159SAPE   C2117728   4.814   5.150   6.814  0.1391 -0.1304  0.8788
  159SAPE   O2217729   4.758   5.226   6.742  0.4257  0.2827  0.0858
  159SAPE   C2217730   4.891   5.195   6.935 -0.3526  0.0013 -0.0030
  159SAPE   H2R17731   4.876   5.125   7.020 -2.6906  0.7505  0.2733
  159SAPE   H2S17732   4.996   5.177   6.905 -0.7166 -1.0717 -0.6674
  159SAPE    C317733   4.654   4.829   6.741  0.9875 -0.2526  0.3171
  159SAPE    HX17734   4.742   4.774   6.780  0.7648  0.4171  1.8071
  159SAPE    HY17735   4.619   4.796   6.641 -0.6361 -0.3414  0.8894
  159SAPE   O3117736   4.537   4.846   6.831 -0.0553 -0.2343 -0.0311
  159SAPE   C3117737   4.499   4.733   6.885 -0.5025  0.1778  0.2364
  159SAPE   O3217738   4.555   4.627   6.866 -0.9829  0.3611 -0.1452
  159SAPE   C3217739   4.380   4.765   6.983 -0.2351  0.2965  0.9031
  159SAPE   H2X17740   4.305   4.686   6.958 -1.9028  1.6486  1.4498
  159SAPE   H2Y17741   4.336   4.864   6.959 -1.3516  0.4573  3.3197
  159SAPE   C2317742   4.870   5.340   6.988 -0.0800 -0.8776  0.3397
  159SAPE   H3R17743   4.771   5.362   7.032  0.9983  1.8830  1.6271
  159SAPE   H3S17744   4.875   5.427   6.920  0.2619  0.3547  1.8764
  159SAPE   C2417745   4.976   5.375   7.097  0.2415  0.1728 -0.5310
  159SAPE   H4R17746   4.972   5.307   7.184  0.5720 -0.2672 -0.8542
  159SAPE   H4S17747   4.957   5.479   7.133 -0.3984 -0.2161  0.2736
  159SAPE   C2517748   5.114   5.359   7.044  0.1812 -0.0937 -0.4960
  159SAPE   H5R17749   5.126   5.406   6.946 -0.2754  1.0677 -0.0165
  159SAPE   C2617750   5.225   5.300   7.096  0.0703  0.1079  0.1084
  159SAPE   H6R17751   5.314   5.300   7.032 -1.2360 -0.0958 -1.7821
  159SAPE   C2717752   5.230   5.228   7.234 -0.0400 -0.8623 -0.0572
  159SAPE   H7R17753   5.162   5.141   7.237 -0.8991 -0.2993 -1.9783
  159SAPE   H7S17754   5.213   5.296   7.320 -0.0774 -1.2098  0.2109
  159SAPE   C2817755   5.373   5.187   7.264  0.8545 -0.9957 -0.3454
  159SAPE   H8R17756   5.442   5.169   7.180  0.8925 -2.1544 -0.0891
  159SAPE   C2917757   5.446   5.185   7.377 -0.2416 -0.4472 -0.4119
  159SAPE   H9R17758   5.551   5.153   7.383  0.3235  1.5655  2.4452
  159SAPE  C21017759   5.403   5.228   7.514 -0.2204 -0.1033  0.1830
  159SAPE  H10R17760   5.312   5.292   7.507  0.1020  0.4723  1.0721
  159SAPE  H10S17761   5.489   5.287   7.552 -1.6226  2.6821 -0.6578
  159SAPE  C21117762   5.376   5.117   7.607  0.0429 -0.0016 -0.6771
  159SAPE  H11R17763   5.274   5.081   7.623  0.4719 -0.6170  0.8410
  159SAPE  C21217764   5.471   5.053   7.685  0.5424 -0.1178 -0.3546
  159SAPE  H12R17765   5.432   4.980   7.758 -2.9935  0.9606 -1.0014
  159SAPE  C21317766   5.620   5.070   7.683 -0.0812 -0.2762 -0.0284
  159SAPE  H13R17767   5.647   5.133   7.596 -1.2827  1.1376  0.5753
  159SAPE  H13S17768   5.658   4.969   7.659  0.2777  0.1386 -1.2946
  159SAPE  C21417769   5.676   5.118   7.813  0.0724  0.0163 -0.6559
  159SAPE  H14R17770   5.622   5.205   7.852  0.3405  0.7162 -1.7880
  159SAPE  C21517771   5.777   5.064   7.886  0.3100  0.8474  0.0545
  159SAPE  H15R17772   5.809   5.113   7.979 -0.1316 -2.0449  1.8661
  159SAPE  C21617773   5.851   4.936   7.847 -0.1397  0.3771 -0.3234
  159SAPE  H16R17774   5.873   4.930   7.738  1.1136 -3.1604 -0.0060
  159SAPE  H16S17775   5.790   4.844   7.862  1.2878 -0.3163  1.6789
  159SAPE  C21717776   5.981   4.904   7.919 -0.4192 -0.4524 -0.5792
  159SAPE  H17R17777   6.059   4.982   7.909 -3.5744  3.0095 -0.4422
  159SAPE  H17S17778   6.026   4.814   7.873  1.0034  0.2505 -0.5997
  159SAPE  C21817779   5.950   4.880   8.069  0.1984  0.6681  0.3576
  159SAPE  H18R17780   5.856   4.822   8.060 -0.3389  1.6800 -0.9196
  159SAPE  H18S17781   5.918   4.968   8.128 -1.2278  1.2701 -1.2418
  159SAPE  C21917782   6.054   4.788   8.141 -0.4202  0.3927 -0.1375
  159SAPE  H19R17783   6.139   4.796   8.069 -1.9504  1.7784 -1.9015
  159SAPE  H19S17784   6.014   4.685   8.139  2.5801 -0.8460 -1.6371
  159SAPE  C22017785   6.095   4.833   8.284  0.4335  0.4019  1.0097
  159SAPE  H20R17786   6.147   4.930   8.270  0.2828  0.2580 -0.6549
  159SAPE  H20S17787   6.167   4.760   8.327 -0.2277 -0.3506  0.8609
  159SAPE  H20T17788   6.006   4.843   8.350 -2.0598 -0.1635 -2.0422
  159SAPE   C3317789   4.422   4.758   7.128  0.2756 -0.1078 -0.6752
  159SAPE   H3X17790   4.345   4.809   7.190 -0.9444 -0.3141 -1.9879
  159SAPE   H3Y17791   4.519   4.801   7.161 -1.3301  1.1012  3.0380
  159SAPE   C3417792   4.426   4.612   7.185  0.3440  0.2199  0.0014
  159SAPE   H4X17793   4.509   4.561   7.131  0.9912 -0.4048  1.5452
  159SAPE   H4Y17794   4.330   4.558   7.174  0.1602  0.8499 -1.8451
  159SAPE   C3517795   4.475   4.601   7.328 -1.0341 -0.3100  0.5200
  159SAPE   H5X17796   4.578   4.631   7.354 -1.4547  0.0257  1.8930
  159SAPE   H5Y17797   4.466   4.494   7.358 -2.6515  0.1431  1.8243
  159SAPE   C3617798   4.401   4.693   7.426 -0.0247 -0.3659 -0.6015
  159SAPE   H6X17799   4.298   4.651   7.414  0.4370 -1.3016 -1.4816
  159SAPE   H6Y17800   4.410   4.799   7.396  2.8210 -1.1075 -2.8534
  159SAPE   C3717801   4.455   4.679   7.568  0.3672 -0.0194  0.1137
  159SAPE   H7X17802   4.551   4.733   7.577  0.3706 -0.2134  1.4784
  159SAPE   H7Y17803   4.476   4.574   7.599  0.6719  0.1897  0.6224
  159SAPE   C3817804   4.365   4.744   7.674  0.0940 -0.6283 -0.4500
  159SAPE   H8X17805   4.259   4.711   7.670  0.3187 -1.3708 -3.7596
  159SAPE   H8Y17806   4.359   4.848   7.637  0.4323 -0.2586  0.5118
  159SAPE   C3917807   4.422   4.740   7.817  0.1894 -0.6006 -0.3165
  159SAPE   H9X17808   4.500   4.818   7.832 -1.4994  0.9988  0.6368
  159SAPE   H9Y17809   4.464   4.639   7.836  1.4849 -0.2177 -1.0147
  159SAPE  C31017810   4.319   4.777   7.930  0.5759 -0.4493 -0.0841
  159SAPE  H10X17811   4.224   4.723   7.910  0.0726  0.3389  0.1355
  159SAPE  H10Y17812   4.292   4.884   7.918 -1.1813 -0.7008  1.2327
  159SAPE  C31117813   4.374   4.763   8.073  0.1007 -0.4005  0.0528
  159SAPE  H11X17814   4.457   4.836   8.086 -1.3256  1.6442 -1.6905
  159SAPE  H11Y17815   4.421   4.662   8.067 -0.1363 -0.4134 -2.2774
  159SAPE  C31217816   4.276   4.776   8.184  0.3250 -0.3222  0.3917
  159SAPE  H12X17817   4.183   4.718   8.167  0.1832 -0.0900  0.3625
  159SAPE  H12Y17818   4.247   4.884   8.182  2.0193  0.1547 -0.1248
  159SAPE  C31317819   4.340   4.763   8.320 -0.0132  0.3787  0.1274
  159SAPE  H13X17820   4.440   4.811   8.330  1.2647 -1.8477 -1.1526
  159SAPE  H13Y17821   4.361   4.656   8.340 -0.2833  0.4004  0.5453
  159SAPE  C31417822   4.253   4.806   8.445 -0.4647  0.1288  0.3605
  159SAPE  H14X17823   4.153   4.761   8.433 -0.0871 -1.2388  1.9103
  159SAPE  H14Y17824   4.264   4.916   8.458  0.5652  0.3049 -1.6942
  159SAPE  C31517825   4.316   4.747   8.568 -0.1078  0.9061  0.0311
  159SAPE  H15X17826   4.417   4.793   8.579  0.1325  0.3586  0.1194
  159SAPE  H15Y17827   4.329   4.637   8.559 -2.0839  0.5704  0.6388
  159SAPE  C31617828   4.241   4.763   8.705  0.3596  0.2036 -0.0113
  159SAPE  H16X17829   4.158   4.689   8.703  0.0061  0.2353  4.2663
  159SAPE  H16Y17830   4.201   4.867   8.708  2.4656  1.0308  0.8394
  159SAPE  C31717831   4.323   4.744   8.832 -0.9094 -0.0154 -0.2442
  159SAPE  H17X17832   4.259   4.751   8.923 -0.4940  0.7607  0.0036
  159SAPE  H17Y17833   4.389   4.833   8.840 -0.7689 -0.1394 -0.0104
  159SAPE  C31817834   4.412   4.616   8.834 -0.3104  0.0024 -0.1007
  159SAPE  H18X17835   4.452   4.600   8.936 -2.5625 -0.0433  0.8543
  159SAPE  H18Y17836   4.495   4.616   8.760 -0.9288  1.6496 -0.8439
  159SAPE  H18Z17837   4.346   4.529   8.812 -0.9162  0.6629 -0.9895
  160SAPE     N17838   5.862   3.854   6.270 -0.3774  0.1333 -0.9674
  160SAPE   HN117839   5.802   3.921   6.322 -1.2342 -1.2415 -0.1239
  160SAPE   HN217840   5.821   3.840   6.175 -0.7459 -0.6394 -0.7018
  160SAPE   HN317841   5.845   3.762   6.315 -3.4050  1.4898  0.9828
  160SAPE   C1217842   6.009   3.893   6.294 -0.3515 -0.9333  0.2363
  160SAPE  H12A17843   6.026   3.971   6.217 -0.1618 -1.2217 -0.0166
  160SAPE  H12B17844   6.074   3.807   6.266 -1.4025 -1.3337 -1.1114
  160SAPE   C1117845   6.045   3.945   6.438 -0.2089 -0.2351  1.1299
  160SAPE  H11A17846   6.152   3.973   6.428  0.0177 -1.4803 -0.3490
  160SAPE  H11B17847   6.025   3.864   6.511  2.0516 -1.5507  0.4106
  160SAPE     P17848   5.978   4.132   6.598  0.4390  0.1860  0.3981
  160SAPE   O1317849   6.103   4.201   6.581 -0.0913 -0.1735  0.0817
  160SAPE   O1417850   5.862   4.223   6.634 -0.4336  1.0847 -0.1073
  160SAPE   O1217851   5.960   4.058   6.456  0.3564 -0.8649 -0.7784
  160SAPE   O1117852   6.002   4.030   6.716 -0.2461 -0.6246  0.1257
  160SAPE    C117853   5.907   3.946   6.775 -0.5323  0.1043  0.7122
  160SAPE    HA17854   5.851   3.887   6.698  1.5137 -1.1867  0.1557
  160SAPE    HB17855   5.958   3.868   6.834 -0.6911  0.0427  0.7694
  160SAPE    C217856   5.805   4.005   6.879 -0.0082 -0.4397 -0.2652
  160SAPE    HS17857   5.763   4.101   6.844 -0.0677 -0.4624 -0.2552
  160SAPE   O2117858   5.880   4.025   6.996 -0.1645  0.3265  0.1275
  160SAPE   C2117859   5.923   4.132   7.033 -0.5110  0.3902 -0.6537
  160SAPE   O2217860   5.896   4.243   6.990  0.4161 -0.1435  0.1272
  160SAPE   C2217861   5.997   4.116   7.167 -0.4755  0.1314  0.2185
  160SAPE   H2R17862   5.934   4.062   7.240  0.5488 -0.0411  1.0050
  160SAPE   H2S17863   6.084   4.051   7.143  1.6937  2.6336  0.8809
  160SAPE    C317864   5.688   3.911   6.913 -0.0593 -0.4634 -0.6042
  160SAPE    HX17865   5.725   3.806   6.917  1.1843 -0.0256 -0.1100
  160SAPE    HY17866   5.619   3.918   6.826 -3.0729  0.7123  1.6772
  160SAPE   O3117867   5.620   3.949   7.036 -0.3964 -0.5184  0.3376
  160SAPE   C3117868   5.491   3.946   7.040 -0.0045  0.8467  0.1028
  160SAPE   O3217869   5.416   3.939   6.945  0.2464 -0.6279 -0.4259
  160SAPE   C3217870   5.454   3.952   7.191  0.4691 -0.1792  0.0569
  160SAPE   H2X17871   5.542   3.968   7.256  0.3402 -3.5319  1.2395
  160SAPE   H2Y17872   5.421   3.850   7.220 -0.3077  0.7872  2.9508
  160SAPE   C2317873   6.052   4.251   7.238 -0.1530 -0.1452 -0.7232
  160SAPE   H3R17874   5.981   4.282   7.317  0.8397 -0.8643  0.5006
  160SAPE   H3S17875   6.058   4.323   7.154  1.2629 -0.1153 -0.6195
  160SAPE   C2417876   6.189   4.237   7.305 -0.2676  0.3305  1.1926
  160SAPE   H4R17877   6.255   4.195   7.226 -1.9156 -2.2980  1.0585
  160SAPE   H4S17878   6.174   4.153   7.376  1.3021 -0.6574  0.4323
  160SAPE   C2517879   6.246   4.364   7.360  0.4793  0.4484  0.3769
  160SAPE   H5R17880   6.279   4.441   7.289 -0.5624  0.2658 -0.3198
  160SAPE   C2617881   6.249   4.387   7.492 -0.3964  0.5808 -0.3313
  160SAPE   H6R17882   6.303   4.468   7.543  0.5235  0.2676 -0.7781
  160SAPE   C2717883   6.190   4.303   7.601  0.3598  0.0922  0.5315
  160SAPE   H7R17884   6.086   4.274   7.574  0.6718 -0.0848 -0.4947
  160SAPE   H7S17885   6.176   4.365   7.692 -0.0978  0.8725 -0.0672
  160SAPE   C2817886   6.257   4.170   7.637  0.0986 -0.3892 -0.7117
  160SAPE   H8R17887   6.354   4.152   7.588 -0.1395 -2.3836 -0.5468
  160SAPE   C2917888   6.223   4.098   7.751 -0.3487 -0.5820 -0.2893
  160SAPE   H9R17889   6.276   4.006   7.781 -1.3125 -0.3651  2.3220
  160SAPE  C21017890   6.114   4.121   7.854  0.1871 -0.2081 -0.1127
  160SAPE  H10R17891   6.074   4.018   7.869 -1.4343  0.8785  5.0866
  160SAPE  H10S17892   6.032   4.189   7.823 -0.4189 -0.7218  0.3444
  160SAPE  C21117893   6.163   4.182   7.981  0.6782 -0.9836 -0.3278
  160SAPE  H11R17894   6.187   4.289   7.976  3.4332 -1.4535  0.7124
  160SAPE  C21217895   6.201   4.109   8.090 -0.2453  0.1592 -0.4881
  160SAPE  H12R17896   6.243   4.165   8.176 -2.6731  1.3059  0.0516
  160SAPE  C21317897   6.195   3.964   8.111  0.4957  0.2256  0.6381
  160SAPE  H13R17898   6.266   3.934   8.190  0.0686  0.9358  1.2994
  160SAPE  H13S17899   6.242   3.916   8.022  0.7688  1.2583  0.2059
  160SAPE  C21417900   6.056   3.900   8.139  0.2059 -0.0976  0.5414
  160SAPE  H14R17901   5.996   3.881   8.048 -0.3937  0.0116  0.9032
  160SAPE  C21517902   6.002   3.866   8.254  0.6410  0.5551 -0.3577
  160SAPE  H15R17903   5.905   3.816   8.262  0.4347  0.7267 -1.6190
  160SAPE  C21617904   6.075   3.878   8.387 -0.2588 -0.2625  0.0181
  160SAPE  H16R17905   5.994   3.902   8.459  0.0892 -0.0257  0.3298
  160SAPE  H16S17906   6.148   3.962   8.386 -1.3666  0.7406 -0.2661
  160SAPE  C21717907   6.139   3.746   8.431 -0.6084 -0.4909 -0.0032
  160SAPE  H17R17908   6.215   3.724   8.353  1.8348  3.1177  1.1144
  160SAPE  H17S17909   6.056   3.671   8.426 -0.8687 -0.2722  0.8431
  160SAPE  C21817910   6.205   3.749   8.565  0.3644  0.3062  0.7079
  160SAPE  H18R17911   6.127   3.766   8.643  0.1068 -0.0317  0.5247
  160SAPE  H18S17912   6.274   3.836   8.563 -0.8734  1.3408 -1.9487
  160SAPE  C21917913   6.299   3.628   8.596 -0.5895  0.5309 -0.0803
  160SAPE  H19R17914   6.369   3.643   8.681  0.4937 -1.4601 -0.5699
  160SAPE  H19S17915   6.373   3.612   8.514 -0.8861  0.5805 -0.3606
  160SAPE  C22017916   6.210   3.504   8.613 -0.3951 -0.3747  0.4086
  160SAPE  H20R17917   6.269   3.418   8.651 -0.9401  0.7196  4.1551
  160SAPE  H20S17918   6.156   3.463   8.525  1.0821 -2.1593  0.2771
  160SAPE  H20T17919   6.134   3.525   8.691 -0.1070  1.3947  0.2504
  160SAPE   C3317920   5.339   4.047   7.226  0.1026 -0.4002 -0.5642
  160SAPE   H3X17921   5.259   4.021   7.154 -0.8718  1.8389 -0.4020
  160SAPE   H3Y17922   5.375   4.152   7.214 -0.8524  0.1642  1.1428
  160SAPE   C3417923   5.283   4.040   7.372 -0.5110  0.4460  0.2394
  160SAPE   H4X17924   5.216   3.952   7.383  0.0136 -0.0498 -0.4368
  160SAPE   H4Y17925   5.221   4.131   7.385 -1.7281 -0.1689 -1.0558
  160SAPE   C3517926   5.398   4.035   7.478 -0.4658 -0.1873 -0.2298
  160SAPE   H5X17927   5.465   4.123   7.468  0.0855 -0.6884 -1.0040
  160SAPE   H5Y17928   5.459   3.947   7.447  0.6625  0.8699 -1.1011
  160SAPE   C3617929   5.357   4.033   7.624 -0.1731  0.0200 -0.2447
  160SAPE   H6X17930   5.445   4.036   7.692 -1.7624  2.8672  1.9235
  160SAPE   H6Y17931   5.296   3.941   7.639 -3.2926  2.1357  0.9883
  160SAPE   C3717932   5.271   4.153   7.668 -0.0239  0.8413  0.1872
  160SAPE   H7X17933   5.168   4.136   7.631  0.0707 -1.6616  0.8745
  160SAPE   H7Y17934   5.310   4.251   7.634 -0.8821  0.5689 -1.6723
  160SAPE   C3817935   5.273   4.151   7.825 -0.5327  0.3297  0.1211
  160SAPE   H8X17936   5.380   4.155   7.855 -0.3779 -1.1409 -0.1429
  160SAPE   H8Y17937   5.224   4.057   7.859  0.1691  0.0875  0.4812
  160SAPE   C3917938   5.205   4.277   7.879 -0.5011  0.6896 -0.2570
  160SAPE   H9X17939   5.110   4.292   7.824 -0.6483  0.7750  0.0142
  160SAPE   H9Y17940   5.267   4.358   7.833  1.0156  0.0099  0.4961
  160SAPE  C31017941   5.210   4.276   8.027 -0.1113  0.2147 -0.9198
  160SAPE  H10X17942   5.192   4.379   8.065 -0.9141  0.3366 -1.6030
  160SAPE  H10Y17943   5.309   4.258   8.074  1.2931  1.5532 -3.1577
  160SAPE  C31117944   5.105   4.186   8.089  0.6470  0.4528 -0.1523
  160SAPE  H11X17945   5.133   4.080   8.068  0.3020  0.4319 -0.5307
  160SAPE  H11Y17946   5.007   4.214   8.044  0.3110  2.3946  1.6556
  160SAPE  C31217947   5.093   4.206   8.240  0.3011 -0.9278 -0.1596
  160SAPE  H12X17948   5.072   4.312   8.265 -1.3690 -1.4901  0.9677
  160SAPE  H12Y17949   5.188   4.179   8.292  0.3752 -2.0822 -0.8609
  160SAPE  C31317950   4.970   4.124   8.288  0.0030 -1.1125 -0.0402
  160SAPE  H13X17951   4.955   4.025   8.240 -3.0090 -1.2630  1.0069
  160SAPE  H13Y17952   4.884   4.189   8.261 -0.2286 -0.3603  2.2665
  160SAPE  C31417953   4.970   4.113   8.444  0.4499 -0.5304  0.1775
  160SAPE  H14X17954   5.000   4.210   8.489 -0.1001  0.7388 -2.0599
  160SAPE  H14Y17955   5.051   4.039   8.465 -0.0470 -0.6968  1.6025
  160SAPE  C31517956   4.848   4.050   8.507 -0.2579 -0.4486 -0.4820
  160SAPE  H15X17957   4.763   4.121   8.500  0.9743  1.1817  0.4069
  160SAPE  H15Y17958   4.847   4.043   8.618 -2.4358 -4.3585 -0.5771
  160SAPE  C31617959   4.804   3.917   8.445  0.7535 -0.2552 -0.0971
  160SAPE  H16X17960   4.880   3.841   8.474  1.4302  0.1552 -0.7780
  160SAPE  H16Y17961   4.807   3.920   8.334  1.2456 -1.0708 -0.1103
  160SAPE  C31717962   4.669   3.865   8.515 -0.1274 -0.7288 -0.0061
  160SAPE  H17X17963   4.584   3.936   8.505  2.0411  1.9519 -0.7984
  160SAPE  H17Y17964   4.697   3.857   8.622 -0.0710 -0.3768  0.0064
  160SAPE  C31817965   4.643   3.723   8.471 -0.4056  0.5008 -0.1404
  160SAPE  H18X17966   4.545   3.685   8.508  0.5354 -1.8755  0.0293
  160SAPE  H18Y17967   4.719   3.650   8.505 -0.9641  0.1246  0.3291
  160SAPE  H18Z17968   4.642   3.713   8.361 -1.6274 -2.1087  0.0342
  161SOPE     N17969   4.189   5.755  11.045  0.5531  0.0509  0.2281
  161SOPE   HN117970   4.169   5.662  11.087  0.0773 -0.0327 -0.1726
  161SOPE   HN217971   4.257   5.813  11.098  0.4008 -0.0801  0.5712
  161SOPE   HN317972   4.096   5.802  11.045  1.4577  1.9571  0.8111
  161SOPE   C1217973   4.228   5.726  10.904  0.0076  0.5055  0.3022
  161SOPE  H12A17974   4.313   5.655  10.909 -0.9046 -0.5648  1.2680
  161SOPE  H12B17975   4.278   5.817  10.865 -1.2506  0.7920 -0.7115
  161SOPE   C1117976   4.130   5.674  10.799  0.6225  0.2598  0.4687
  161SOPE  H11A17977   4.099   5.571  10.825 -2.7470  0.7888 -0.8976
  161SOPE  H11B17978   4.169   5.663  10.695 -2.0656 -0.6303 -0.5491
  161SOPE     P17979   3.990   5.890  10.732 -0.3749  0.0238  0.2088
  161SOPE   O1317980   4.126   5.942  10.699  0.4058 -0.1068 -0.2696
  161SOPE   O1417981   3.913   5.972  10.824  0.1760 -0.1161  0.1873
  161SOPE   O1217982   4.008   5.748  10.796  0.1605 -0.1922 -0.1504
  161SOPE   O1117983   3.910   5.859  10.602 -0.5303  0.5146  1.0685
  161SOPE    C117984   3.801   5.754  10.609 -0.0858  0.6391 -0.3627
  161SOPE    HA17985   3.724   5.792  10.539  2.4864  0.6475 -3.3782
  161SOPE    HB17986   3.752   5.762  10.708  0.8803  2.3990  0.0318
  161SOPE    C217987   3.844   5.607  10.577 -0.0259 -0.0687 -0.1527
  161SOPE    HS17988   3.891   5.568  10.670 -0.8702 -1.9697 -0.4606
  161SOPE   O2117989   3.935   5.598  10.463 -0.1174  0.1219 -0.1824
  161SOPE   C2117990   4.008   5.490  10.461  0.7755 -0.1632 -0.7770
  161SOPE   O2217991   4.001   5.402  10.544  0.1405  0.4624  0.1642
  161SOPE   C2217992   4.101   5.488  10.336 -0.2756 -0.6206 -0.8005
  161SOPE   H2R17993   4.135   5.383  10.322 -0.3443 -0.9031  0.8654
  161SOPE   H2S17994   4.191   5.547  10.365 -1.1666  0.5987 -0.4441
  161SOPE    C317995   3.717   5.527  10.552  0.7571 -0.0370  0.5685
  161SOPE    HX17996   3.655   5.548  10.642  0.4990 -0.0546  0.3979
  161SOPE    HY17997   3.746   5.420  10.550  1.2804  0.0472 -2.7662
  161SOPE   O3117998   3.643   5.579  10.437 -0.8199 -0.1617 -0.1779
  161SOPE   C3117999   3.559   5.496  10.381  0.3343 -0.5777  0.3838
  161SOPE   O3218000   3.551   5.380  10.417  0.8121 -0.3235 -0.4040
  161SOPE   C3218001   3.496   5.561  10.255  0.2537 -0.2268  0.0952
  161SOPE   H2X18002   3.396   5.516  10.236  0.0596  1.1717 -2.7617
  161SOPE   H2Y18003   3.570   5.542  10.175  1.8370  0.0381  1.4505
  161SOPE   C2318004   4.040   5.547  10.204 -0.2125  0.3060  0.1278
  161SOPE   H3R18005   4.127   5.577  10.142  0.8209 -0.6890  1.0445
  161SOPE   H3S18006   3.982   5.635  10.238 -0.8830  0.4059 -1.2230
  161SOPE   C2418007   3.944   5.452  10.136 -0.1187  0.3436 -0.2161
  161SOPE   H4R18008   4.017   5.371  10.115  2.2067  2.2667  0.1117
  161SOPE   H4S18009   3.872   5.412  10.211 -2.1126  0.2237 -2.0762
  161SOPE   C2518010   3.871   5.516  10.016  0.0433  0.4839 -0.0851
  161SOPE   H5R18011   3.798   5.593  10.049  0.2920  0.2075  1.1612
  161SOPE   H5S18012   3.939   5.555   9.937 -0.2019 -0.8070 -0.9658
  161SOPE   C2618013   3.793   5.410   9.937 -0.0241 -0.1474  0.5557
  161SOPE   H6R18014   3.861   5.339   9.885 -1.6438 -1.4955  0.1780
  161SOPE   H6S18015   3.728   5.353  10.008  0.6972  1.8059  2.8911
  161SOPE   C2718016   3.704   5.475   9.830 -0.7172 -0.1653  0.8447
  161SOPE   H7R18017   3.720   5.585   9.826 -1.1845 -0.0496 -3.8653
  161SOPE   H7S18018   3.748   5.447   9.732 -0.2598  1.4676  0.5405
  161SOPE   C2818019   3.557   5.447   9.837  0.6964  0.0969  0.8912
  161SOPE   H8R18020   3.531   5.345   9.803 -1.5919  1.0363 -0.4731
  161SOPE   H8S18021   3.510   5.466   9.936 -1.3749 -0.3926  0.0499
  161SOPE   C2918022   3.495   5.539   9.737  0.2383  0.2694 -0.1979
  161SOPE   H9118023   3.493   5.644   9.772 -0.7803 -0.4246  1.9931
  161SOPE  C21018024   3.456   5.509   9.614  0.2113 -0.2705 -1.0859
  161SOPE  H10118025   3.414   5.585   9.547 -1.3562  0.5638  0.7268
  161SOPE  C21118026   3.473   5.371   9.545  0.0489 -0.6987 -0.2908
  161SOPE  H11R18027   3.391   5.312   9.592  0.2043  1.0478  2.3813
  161SOPE  H11S18028   3.567   5.322   9.578  0.0396 -0.8812 -0.5310
  161SOPE  C21218029   3.471   5.380   9.393 -0.3273  0.2130 -0.9820
  161SOPE  H12R18030   3.552   5.446   9.357  2.1357 -2.0081  0.1297
  161SOPE  H12S18031   3.376   5.432   9.366 -0.1915  0.8122 -0.3312
  161SOPE  C21318032   3.466   5.239   9.331  0.2056  0.6596 -0.5561
  161SOPE  H13R18033   3.390   5.171   9.374  0.6655  0.7874  0.4720
  161SOPE  H13S18034   3.561   5.182   9.333 -1.0597 -1.5234  0.5461
  161SOPE  C21418035   3.428   5.249   9.178  0.1123 -0.2646  0.0687
  161SOPE  H14R18036   3.328   5.295   9.161 -0.2519 -0.8241  0.6655
  161SOPE  H14S18037   3.427   5.148   9.132 -0.5601 -0.5229  0.6403
  161SOPE  C21518038   3.528   5.334   9.089  0.2184  0.4464  0.5006
  161SOPE  H15R18039   3.626   5.283   9.092 -0.5134 -1.3095 -1.9843
  161SOPE  H15S18040   3.532   5.437   9.131  1.4389  0.1185  1.2363
  161SOPE  C21618041   3.499   5.355   8.942  0.1035  0.3813  0.0530
  161SOPE  H16R18042   3.591   5.375   8.883  0.9655  1.2074  1.6268
  161SOPE  H16S18043   3.422   5.432   8.922 -0.3432  0.1632  0.8918
  161SOPE  C21718044   3.419   5.235   8.879 -0.3839 -0.1236  0.2682
  161SOPE  H17R18045   3.322   5.231   8.933 -1.6758  0.0814 -1.9378
  161SOPE  H17S18046   3.477   5.143   8.903 -0.5446  0.1043  1.6148
  161SOPE  C21818047   3.404   5.250   8.733  0.1940 -0.6926  0.3380
  161SOPE  H18R18048   3.504   5.260   8.685  0.3525  0.8525  0.9431
  161SOPE  H18S18049   3.358   5.343   8.694  0.8167 -0.6824 -0.3861
  161SOPE  H18T18050   3.343   5.165   8.695  0.4824 -2.1573  2.9175
  161SOPE   C3318051   3.486   5.713  10.244 -0.9811  0.1902  0.1067
  161SOPE   H3X18052   3.571   5.763  10.295  0.3847 -0.4747 -1.4235
  161SOPE   H3Y18053   3.405   5.756  10.308  1.1335  0.0244  3.0959
  161SOPE   C3418054   3.479   5.767  10.102 -0.4840 -0.0718 -0.0774
  161SOPE   H4X18055   3.567   5.727  10.048 -0.2567 -2.6029  2.0050
  161SOPE   H4Y18056   3.480   5.878  10.108  0.6864 -0.1433  1.3647
  161SOPE   C3518057   3.348   5.728  10.027  0.4905  0.0624 -0.1407
  161SOPE   H5X18058   3.262   5.737  10.097  0.5396 -0.9925  0.0712
  161SOPE   H5Y18059   3.361   5.627   9.983 -0.9896 -0.5012  0.6300
  161SOPE   C3618060   3.312   5.822   9.912 -0.2507  0.1758  0.0543
  161SOPE   H6X18061   3.406   5.825   9.853  0.4745 -0.5109  1.1291
  161SOPE   H6Y18062   3.285   5.923   9.950 -1.2194  0.1260 -0.4819
  161SOPE   C3718063   3.192   5.775   9.826 -0.5350 -0.2797 -0.0090
  161SOPE   H7X18064   3.104   5.806   9.886  1.7525  0.5267  3.1911
  161SOPE   H7Y18065   3.192   5.665   9.807 -1.2831  0.0334 -2.0107
  161SOPE   C3818066   3.189   5.845   9.684 -0.7739  0.5276  0.0022
  161SOPE   H8X18067   3.277   5.802   9.632 -1.6739 -3.8540  1.6662
  161SOPE   H8Y18068   3.195   5.955   9.701  3.0528  0.8648 -2.4320
  161SOPE   C3918069   3.062   5.810   9.603 -0.3623  0.3443 -0.2835
  161SOPE   H9X18070   2.974   5.833   9.667  0.6550  0.7431  1.0187
  161SOPE   H9Y18071   3.054   5.700   9.593  1.0166  0.2487 -0.5029
  161SOPE  C31018072   3.058   5.873   9.471  0.1399 -0.8210 -0.0175
  161SOPE  H10X18073   3.123   5.820   9.398  0.1216 -0.2611 -0.4482
  161SOPE  H10Y18074   3.099   5.975   9.482  1.6654 -1.1867 -1.8074
  161SOPE  C31118075   2.924   5.894   9.398  0.2862 -0.1007 -0.3504
  161SOPE  H11X18076   2.849   5.949   9.461  0.9607  0.5129 -0.0655
  161SOPE  H11Y18077   2.892   5.791   9.374 -2.7739  0.7477 -0.4517
  161SOPE  C31218078   2.939   5.969   9.258  0.0711  0.0141 -0.0561
  161SOPE  H12X18079   3.019   5.920   9.198 -0.0562 -1.4490  0.9254
  161SOPE  H12Y18080   2.975   6.071   9.285 -0.3755  0.0835  0.2864
  161SOPE  C31318081   2.815   5.983   9.168  0.0285  0.1068 -0.5817
  161SOPE  H13X18082   2.738   6.042   9.222 -1.3373 -2.7921  0.8762
  161SOPE  H13Y18083   2.767   5.884   9.150  0.8482 -0.5807  0.7853
  161SOPE  C31418084   2.847   6.051   9.030  0.0787  0.3133 -0.6725
  161SOPE  H14X18085   2.932   6.121   9.049  0.9354 -0.9517  0.3752
  161SOPE  H14Y18086   2.761   6.113   8.999  1.3799  1.1576 -2.7771
  161SOPE  C31518087   2.909   5.947   8.937  1.0922  0.6681  0.3956
  161SOPE  H15X18088   2.843   5.857   8.935 -0.5301  1.7691  1.6287
  161SOPE  H15Y18089   3.002   5.910   8.987 -0.4076 -1.6157  1.7130
  161SOPE  C31618090   2.950   6.009   8.808 -0.1878  0.0409 -0.9374
  161SOPE  H16X18091   3.025   5.941   8.762 -0.5185 -0.5070 -0.6843
  161SOPE  H16Y18092   3.006   6.101   8.834  1.5696 -0.9530 -1.0328
  161SOPE  C31718093   2.841   6.042   8.708 -0.5340  0.3522  0.2236
  161SOPE  H17X18094   2.748   6.080   8.756 -0.4333  1.1916 -0.2178
  161SOPE  H17Y18095   2.809   5.950   8.655  2.2071  0.6609 -2.2572
  161SOPE  C31818096   2.871   6.153   8.612 -0.0862  0.4365  0.3153
  161SOPE  H18X18097   2.896   6.250   8.660  1.0610  0.7430 -0.8390
  161SOPE  H18Y18098   2.780   6.174   8.550  0.8157  1.5907 -0.6650
  161SOPE  H18Z18099   2.946   6.119   8.538 -1.8542  2.1725 -2.4926
  162SOPE     N18100   3.032   5.290  10.986  0.3091  0.0817 -0.0085
  162SOPE   HN118101   3.114   5.286  10.922  0.2440 -2.3145 -0.0357
  162SOPE   HN218102   2.989   5.385  10.990 -2.3762 -1.0458 -0.3554
  162SOPE   HN318103   3.067   5.277  11.084 -1.1578  1.0946  0.6970
  162SOPE   C1218104   2.939   5.178  10.937  0.0430 -1.3264  0.0627
  162SOPE  H12A18105   2.930   5.192  10.827  2.7266  0.0066 -0.0713
  162SOPE  H12B18106   2.844   5.192  10.993 -0.7621 -0.4774 -1.4569
  162SOPE   C1118107   2.996   5.039  10.963 -0.5385  0.8957 -0.1369
  162SOPE  H11A18108   2.924   4.969  10.916  2.4069 -0.6186 -2.8366
  162SOPE  H11B18109   2.999   5.008  11.069 -0.1074 -1.9557 -0.9050
  162SOPE     P18110   3.197   4.883  10.901 -0.0306  0.0968  0.0174
  162SOPE   O1318111   3.184   4.821  11.033 -0.5908  0.2965  0.2974
  162SOPE   O1418112   3.333   4.893  10.838  0.2564  0.1657 -0.3237
  162SOPE   O1218113   3.127   5.020  10.900  0.4117 -0.1864  0.0948
  162SOPE   O1118114   3.107   4.796  10.795  0.9656  0.0565 -0.3747
  162SOPE    C118115   3.137   4.815  10.657  0.3139 -0.1454 -0.1570
  162SOPE    HA18116   3.226   4.755  10.629  1.1813  1.2937 -0.6291
  162SOPE    HB18117   3.163   4.921  10.633  0.3957  0.7369  3.2494
  162SOPE    C218118   3.020   4.772  10.572  0.4109  0.0997 -0.8235
  162SOPE    HS18119   3.014   4.664  10.595 -0.1802 -0.1951 -2.2727
  162SOPE   O2118120   3.056   4.791  10.434  0.0489 -0.0680 -0.3282
  162SOPE   C2118121   2.996   4.712  10.346 -0.7468 -0.5293  0.5325
  162SOPE   O2218122   2.925   4.614  10.372  0.0514  0.1885 -0.1320
  162SOPE   C2218123   3.016   4.763  10.201  0.0141 -0.0842 -0.1879
  162SOPE   H2R18124   3.117   4.733  10.165  0.5851  1.0792  0.4009
  162SOPE   H2S18125   3.010   4.873  10.194 -0.2453 -0.0660  0.2677
  162SOPE    C318126   2.886   4.840  10.604  0.3720 -0.2117 -0.2087
  162SOPE    HX18127   2.903   4.949  10.611 -0.6901 -0.1041  1.2085
  162SOPE    HY18128   2.866   4.825  10.713  1.1678  1.0548  0.1281
  162SOPE   O3118129   2.772   4.823  10.506  0.2031 -0.0627  0.1298
  162SOPE   C3118130   2.664   4.775  10.554 -0.2955  0.2402  0.2935
  162SOPE   O3218131   2.646   4.730  10.665 -0.6960  0.1711  0.0544
  162SOPE   C3218132   2.559   4.774  10.440 -0.0839 -0.5495 -0.3819
  162SOPE   H2X18133   2.599   4.727  10.347 -0.2218 -0.3095 -0.5622
  162SOPE   H2Y18134   2.546   4.883  10.424  1.2868 -0.2861  0.2089
  162SOPE   C2318135   2.904   4.715  10.103 -0.6147 -0.3463 -0.3371
  162SOPE   H3R18136   2.807   4.722  10.156 -0.3864 -0.3266  0.0865
  162SOPE   H3S18137   2.916   4.611  10.066  1.0535 -0.0755 -0.6660
  162SOPE   C2418138   2.897   4.799   9.982  0.3308 -0.2691 -0.0822
  162SOPE   H4R18139   2.877   4.904  10.010 -1.2042 -0.9625  1.6069
  162SOPE   H4S18140   2.995   4.794   9.929  0.7670  0.6857  0.6212
  162SOPE   C2518141   2.785   4.737   9.892 -0.1804 -0.5787  0.0957
  162SOPE   H5R18142   2.825   4.640   9.856  0.0856 -0.6019  0.4446
  162SOPE   H5S18143   2.694   4.728   9.956 -0.1852 -0.0430  0.1718
  162SOPE   C2618144   2.745   4.818   9.764  0.1325 -0.3006  0.5564
  162SOPE   H6R18145   2.675   4.893   9.804  0.5883  0.5093 -0.1230
  162SOPE   H6S18146   2.834   4.870   9.723 -0.6770 -0.6635 -1.8249
  162SOPE   C2718147   2.690   4.736   9.649 -0.1117  0.4607 -0.2840
  162SOPE   H7R18148   2.760   4.655   9.620 -0.5518  0.4293 -1.2778
  162SOPE   H7S18149   2.592   4.695   9.677 -0.1533  1.2450  0.7900
  162SOPE   C2818150   2.666   4.812   9.516 -0.9277  0.3133 -0.4856
  162SOPE   H8R18151   2.638   4.732   9.444  2.8912 -2.0096  0.3605
  162SOPE   H8S18152   2.575   4.876   9.521 -1.2657 -0.0743 -1.3231
  162SOPE   C2918153   2.781   4.892   9.462  0.2937 -0.2831 -0.0586
  162SOPE   H9118154   2.800   4.986   9.515  0.9122  0.5574 -1.7030
  162SOPE  C21018155   2.865   4.861   9.366  0.9063  0.1315  0.5186
  162SOPE  H10118156   2.943   4.931   9.333  0.1429  0.2918 -1.0677
  162SOPE  C21118157   2.873   4.729   9.299  0.0145 -0.2937  0.2618
  162SOPE  H11R18158   2.846   4.649   9.371  0.6365 -0.3397  0.4560
  162SOPE  H11S18159   2.966   4.698   9.246  0.5980  0.4015  0.8487
  162SOPE  C21218160   2.772   4.715   9.183 -0.0136 -0.2490  0.3342
  162SOPE  H12R18161   2.788   4.797   9.109  1.8526  0.0817  1.0492
  162SOPE  H12S18162   2.675   4.730   9.233 -0.1930  2.7463 -0.6979
  162SOPE  C21318163   2.773   4.577   9.111  0.6883 -0.6671 -0.6129
  162SOPE  H13R18164   2.683   4.572   9.046 -0.1721  0.3185  0.4490
  162SOPE  H13S18165   2.777   4.491   9.182 -0.2558 -0.5086 -0.3552
  162SOPE  C21418166   2.896   4.567   9.022 -0.6183  0.2682  0.5254
  162SOPE  H14R18167   2.987   4.514   9.059  0.0324 -0.1977 -1.5658
  162SOPE  H14S18168   2.914   4.672   8.990  2.1382 -0.3990 -0.4367
  162SOPE  C21518169   2.857   4.476   8.899  0.0047 -0.8690 -0.4962
  162SOPE  H15R18170   2.763   4.517   8.857 -0.7784  0.0463  2.0106
  162SOPE  H15S18171   2.835   4.378   8.946  2.1935 -0.1717  2.2039
  162SOPE  C21618172   2.967   4.472   8.788 -0.5562 -0.5997 -0.3862
  162SOPE  H16R18173   3.044   4.403   8.830 -0.0304 -0.3983 -0.9935
  162SOPE  H16S18174   2.996   4.579   8.789 -3.7243  0.3534  1.2335
  162SOPE  C21718175   2.920   4.424   8.648 -0.2078 -0.4160 -1.0242
  162SOPE  H17R18176   3.004   4.432   8.576 -0.8362  1.0283 -1.6464
  162SOPE  H17S18177   2.834   4.486   8.614 -1.4353 -2.2173 -1.3693
  162SOPE  C21818178   2.873   4.278   8.647  0.1728 -0.2609 -0.1112
  162SOPE  H18R18179   2.828   4.241   8.741  1.7605 -1.8957  0.0700
  162SOPE  H18S18180   2.951   4.210   8.606 -0.7195  0.7290 -3.8955
  162SOPE  H18T18181   2.789   4.271   8.575 -0.4932 -0.7087  0.6977
  162SOPE   C3318182   2.428   4.709  10.469 -0.2192  0.4103  0.0483
  162SOPE   H3X18183   2.387   4.733  10.570 -0.7251 -3.5261  0.9119
  162SOPE   H3Y18184   2.440   4.599  10.477 -0.5862  0.1749 -2.1595
  162SOPE   C3418185   2.321   4.719  10.362  0.5312  0.5481 -0.0132
  162SOPE   H4X18186   2.290   4.823  10.339  0.3694  0.8837  1.5775
  162SOPE   H4Y18187   2.227   4.663  10.384  0.2589  0.5776 -1.0803
  162SOPE   C3518188   2.380   4.660  10.228  0.4706 -0.6642 -0.0298
  162SOPE   H5X18189   2.427   4.563  10.254  1.4821 -0.1773 -0.0266
  162SOPE   H5Y18190   2.455   4.737  10.203 -2.3432  2.1651 -0.4593
  162SOPE   C3618191   2.276   4.634  10.116  0.0473 -0.0129 -0.1777
  162SOPE   H6X18192   2.218   4.728  10.119 -3.4159 -2.0174  1.1444
  162SOPE   H6Y18193   2.208   4.548  10.132  0.0912  0.0109  0.1507
  162SOPE   C3718194   2.344   4.617   9.983 -0.2192 -0.5184  0.5717
  162SOPE   H7X18195   2.382   4.514   9.971 -0.3778 -0.3559 -1.9014
  162SOPE   H7Y18196   2.419   4.694   9.956 -1.3830  0.5505  0.2730
  162SOPE   C3818197   2.238   4.624   9.866 -0.2394  0.4064  0.0327
  162SOPE   H8X18198   2.187   4.722   9.872 -1.3404 -0.1967  0.8579
  162SOPE   H8Y18199   2.168   4.541   9.887  0.2505 -0.8747 -2.9819
  162SOPE   C3918200   2.296   4.602   9.720  0.3344  0.3779 -0.7877
  162SOPE   H9X18201   2.354   4.508   9.712 -2.1880 -1.2361 -1.3850
  162SOPE   H9Y18202   2.369   4.683   9.701  1.3241 -0.7874 -2.2105
  162SOPE  C31018203   2.198   4.586   9.615  0.2822  0.4988  0.2513
  162SOPE  H10X18204   2.112   4.652   9.638  1.7085  2.0175  1.4234
  162SOPE  H10Y18205   2.167   4.479   9.621  0.3728  0.4120 -0.6347
  162SOPE  C31118206   2.256   4.600   9.474 -0.0711  0.3025  0.4473
  162SOPE  H11X18207   2.299   4.699   9.450 -0.8122  0.8920  1.4709
  162SOPE  H11Y18208   2.184   4.569   9.396  1.0241 -2.2278  0.3585
  162SOPE  C31218209   2.379   4.513   9.434  0.4050  0.3280 -1.1860
  162SOPE  H12X18210   2.366   4.404   9.450  0.3856  0.3709 -0.9079
  162SOPE  H12Y18211   2.458   4.552   9.502  1.7355 -0.6847 -2.1008
  162SOPE  C31318212   2.431   4.539   9.296 -0.1761  0.1026 -0.2405
  162SOPE  H13X18213   2.534   4.502   9.278  0.3659  0.4772  1.7860
  162SOPE  H13Y18214   2.462   4.645   9.294  2.8629 -0.7015 -1.7133
  162SOPE  C31418215   2.338   4.523   9.179 -0.3467  0.1161 -0.3353
  162SOPE  H14X18216   2.246   4.583   9.190 -0.5934 -0.3609  0.2663
  162SOPE  H14Y18217   2.309   4.415   9.176 -2.8777  0.7100  0.3518
  162SOPE  C31518218   2.402   4.556   9.043 -0.9373  0.3397  0.2304
  162SOPE  H15X18219   2.473   4.478   9.009 -0.3425  1.2091 -0.5848
  162SOPE  H15Y18220   2.460   4.651   9.054 -0.0657 -0.1703  0.0881
  162SOPE  C31618221   2.301   4.593   8.929  0.4563  0.1072 -0.2666
  162SOPE  H16X18222   2.362   4.634   8.845 -1.1982  2.3990 -0.4195
  162SOPE  H16Y18223   2.249   4.685   8.962 -0.1440  0.0947 -1.1427
  162SOPE  C31718224   2.214   4.472   8.885  0.4672 -0.4368  0.3944
  162SOPE  H17X18225   2.140   4.441   8.962  2.4073 -2.8352  1.4335
  162SOPE  H17Y18226   2.270   4.376   8.888 -1.9999 -2.0959 -1.7855
  162SOPE  C31818227   2.129   4.494   8.757 -0.1433 -0.1989 -0.3302
  162SOPE  H18X18228   2.037   4.547   8.790  0.6423  1.0570 -0.0820
  162SOPE  H18Y18229   2.098   4.401   8.706  2.1222 -0.0939 -2.0341
  162SOPE  H18Z18230   2.188   4.561   8.690  2.3781 -0.9704  1.0028
  163SOPE     N18231   3.312   2.831  11.075  0.3949 -0.8853 -0.1541
  163SOPE   HN118232   3.322   2.886  10.987 -1.2973 -0.0802  0.1306
  163SOPE   HN218233   3.328   2.740  11.028  0.7992 -0.8315 -0.1264
  163SOPE   HN318234   3.214   2.826  11.108  1.1027  0.2182  2.3443
  163SOPE   C1218235   3.407   2.862  11.190  0.5020 -0.5909  0.7413
  163SOPE  H12A18236   3.370   2.799  11.273 -5.1425  2.0854  0.7183
  163SOPE  H12B18237   3.386   2.966  11.223 -0.8489 -0.1803 -1.2432
  163SOPE   C1118238   3.545   2.834  11.156 -0.5795  0.1541  0.2491
  163SOPE  H11A18239   3.619   2.851  11.237  2.7309  0.0768 -2.5318
  163SOPE  H11B18240   3.571   2.901  11.071 -3.8604  0.1919 -0.8647
  163SOPE     P18241   3.682   2.639  11.050  0.1949  0.2774  0.2141
  163SOPE   O1318242   3.665   2.491  11.045 -0.8268 -0.0779 -0.3505
  163SOPE   O1418243   3.806   2.685  11.128  0.3439  0.0312 -0.0420
  163SOPE   O1218244   3.551   2.700  11.112 -0.2173 -0.0568 -0.0187
  163SOPE   O1118245   3.692   2.702  10.908 -0.0010  0.5944 -0.2500
  163SOPE    C118246   3.572   2.723  10.833 -0.2257  0.4496 -0.3000
  163SOPE    HA18247   3.502   2.783  10.894  1.1572 -0.3882  2.2952
  163SOPE    HB18248   3.514   2.631  10.810 -1.4763  0.7534  1.4980
  163SOPE    C218249   3.599   2.792  10.702 -0.2424 -0.5298 -0.6158
  163SOPE    HS18250   3.499   2.788  10.654 -1.2367  0.2492  1.3156
  163SOPE   O2118251   3.699   2.717  10.638 -0.3482  0.4496  0.1074
  163SOPE   C2118252   3.705   2.743  10.506 -0.8100 -0.4978  0.5715
  163SOPE   O2218253   3.635   2.819  10.449  0.1481 -0.4511  0.8937
  163SOPE   C2218254   3.822   2.663  10.441  0.1969 -0.0105  0.1816
  163SOPE   H2R18255   3.907   2.666  10.512  0.8237 -1.8048 -0.4483
  163SOPE   H2S18256   3.860   2.713  10.349  1.4808 -1.1429  0.0579
  163SOPE    C318257   3.651   2.935  10.736 -0.3490 -0.1650  0.1180
  163SOPE    HX18258   3.755   2.930  10.774 -0.1458 -1.0355 -0.5092
  163SOPE    HY18259   3.587   2.974  10.818 -1.5147  0.3856 -1.0099
  163SOPE   O3118260   3.655   3.027  10.627 -0.4474  0.3138  0.8242
  163SOPE   C3118261   3.548   3.103  10.609  0.0047 -0.5502  0.1369
  163SOPE   O3218262   3.450   3.096  10.684  0.1277  0.5807 -0.5051
  163SOPE   C3218263   3.579   3.191  10.481  0.3188  0.1907  0.6569
  163SOPE   H2X18264   3.606   3.125  10.396  1.8617 -0.7095  1.7870
  163SOPE   H2Y18265   3.675   3.243  10.500  0.2536  0.9048 -0.8396
  163SOPE   C2318266   3.776   2.519  10.382  0.1410 -0.3587  0.0992
  163SOPE   H3R18267   3.671   2.523  10.347 -0.0304 -0.8489  0.5453
  163SOPE   H3S18268   3.768   2.462  10.477 -1.0953  1.4181  1.1366
  163SOPE   C2418269   3.877   2.457  10.284  0.7491  0.3788 -0.0835
  163SOPE   H4R18270   3.977   2.457  10.331  1.1516 -0.3604 -0.9170
  163SOPE   H4S18271   3.840   2.353  10.275  1.1529  0.2280  0.0221
  163SOPE   C2518272   3.896   2.526  10.148 -0.4691 -0.0813 -0.6612
  163SOPE   H5R18273   3.798   2.548  10.100 -0.0698 -1.0060 -1.9428
  163SOPE   H5S18274   3.943   2.625  10.164 -2.3960  0.7236  0.4555
  163SOPE   C2618275   3.995   2.447  10.057 -0.0829  0.3379 -0.0892
  163SOPE   H6R18276   4.095   2.438  10.104 -0.4676 -1.5414  0.4408
  163SOPE   H6S18277   3.958   2.346  10.031 -0.2336  0.0092  1.3524
  163SOPE   C2718278   4.025   2.524   9.923  0.0793  0.3203 -0.3845
  163SOPE   H7R18279   4.066   2.620   9.959  2.0909 -0.3955 -0.6372
  163SOPE   H7S18280   4.098   2.462   9.866 -2.8703 -2.1176 -1.8209
  163SOPE   C2818281   3.899   2.552   9.845 -0.3890  0.2149  0.4168
  163SOPE   H8R18282   3.856   2.455   9.812  1.6329 -0.7693  0.4947
  163SOPE   H8S18283   3.821   2.603   9.905  0.1718  0.7717  0.6961
  163SOPE   C2918284   3.930   2.634   9.730  0.0070 -0.2943  0.4133
  163SOPE   H9118285   3.935   2.741   9.753 -1.2896  0.2363 -1.5970
  163SOPE  C21018286   3.933   2.597   9.599  0.7877  0.2185 -0.1426
  163SOPE  H10118287   3.948   2.676   9.524  1.0381  1.1312  0.8332
  163SOPE  C21118288   3.920   2.462   9.543  0.1940 -0.4958  0.5380
  163SOPE  H11R18289   3.914   2.470   9.433  1.2086 -0.3688  0.4835
  163SOPE  H11S18290   3.822   2.420   9.574 -0.7678  1.7271  0.6972
  163SOPE  C21218291   4.032   2.356   9.578  0.2617 -0.3011 -0.0118
  163SOPE  H12R18292   3.997   2.258   9.540  0.6383 -0.2783 -0.4269
  163SOPE  H12S18293   4.049   2.337   9.686  1.0115 -0.2923 -0.1200
  163SOPE  C21318294   4.167   2.382   9.509  0.1984 -0.7623  0.0740
  163SOPE  H13R18295   4.249   2.322   9.554  1.9199  1.5977  0.2339
  163SOPE  H13S18296   4.182   2.491   9.519 -0.6801 -0.5147 -1.0549
  163SOPE  C21418297   4.168   2.343   9.360 -0.6141 -0.4531 -0.0648
  163SOPE  H14R18298   4.134   2.436   9.311 -0.3220 -0.6846 -0.7187
  163SOPE  H14S18299   4.099   2.258   9.345 -2.2413  0.6053  1.1370
  163SOPE  C21518300   4.304   2.314   9.310 -0.3747  0.4173 -0.0375
  163SOPE  H15R18301   4.356   2.236   9.370 -0.2530  0.8411  0.4110
  163SOPE  H15S18302   4.370   2.401   9.325 -0.1287  0.3322 -0.5865
  163SOPE  C21618303   4.310   2.261   9.160  0.3776  0.9411 -1.1058
  163SOPE  H16R18304   4.258   2.164   9.146  0.3084  0.4425  1.9689
  163SOPE  H16S18305   4.416   2.239   9.134  1.1147  0.2487  2.1095
  163SOPE  C21718306   4.255   2.372   9.073  0.8500 -0.5428  0.2888
  163SOPE  H17R18307   4.295   2.474   9.094 -1.0524 -0.0110  1.5446
  163SOPE  H17S18308   4.147   2.386   9.091  0.8736  1.0167 -0.5643
  163SOPE  C21818309   4.284   2.342   8.922 -0.6314 -0.4392 -0.6227
  163SOPE  H18R18310   4.384   2.306   8.891 -0.7119  0.0375 -1.4515
  163SOPE  H18S18311   4.261   2.432   8.861 -1.0708 -0.8020 -0.9980
  163SOPE  H18T18312   4.212   2.260   8.901 -0.7498 -0.0147 -1.8997
  163SOPE   C3318313   3.462   3.288  10.455 -0.0693  1.2718  1.0275
  163SOPE   H3X18314   3.426   3.323  10.554  2.3200 -0.5810  2.6508
  163SOPE   H3Y18315   3.370   3.251  10.405 -0.3460  1.1332  1.6346
  163SOPE   C3418316   3.509   3.405  10.360  0.1505  0.6798  0.1179
  163SOPE   H4X18317   3.595   3.455  10.409  0.4753  1.0782 -0.8344
  163SOPE   H4Y18318   3.428   3.481  10.362  1.5603  2.2724  3.2280
  163SOPE   C3518319   3.551   3.358  10.224 -0.6103 -0.0179  0.5055
  163SOPE   H5X18320   3.466   3.300  10.181 -1.2587 -0.0387  1.7735
  163SOPE   H5Y18321   3.635   3.285  10.233 -1.6882 -1.7043 -1.9651
  163SOPE   C3618322   3.573   3.479  10.121 -0.8881 -0.1326  0.3945
  163SOPE   H6X18323   3.643   3.551  10.167 -1.7371  1.9903 -1.4521
  163SOPE   H6Y18324   3.476   3.533  10.109 -1.6786 -1.3866  0.8912
  163SOPE   C3718325   3.626   3.438   9.983 -0.7733  0.6439 -0.4973
  163SOPE   H7X18326   3.723   3.388  10.003 -0.6663  1.9070  2.6441
  163SOPE   H7Y18327   3.641   3.527   9.918  0.9221  1.5037  0.9883
  163SOPE   C3818328   3.530   3.342   9.919  0.2224  0.0075  0.6372
  163SOPE   H8X18329   3.424   3.369   9.941 -0.3991 -1.3932 -0.4916
  163SOPE   H8Y18330   3.540   3.239   9.958 -0.5375 -1.9197 -3.7596
  163SOPE   C3918331   3.547   3.343   9.764  0.1824  0.0886 -0.7000
  163SOPE   H9X18332   3.652   3.314   9.743  1.5184  1.0226  3.7508
  163SOPE   H9Y18333   3.535   3.451   9.738 -2.0001 -0.0952 -0.6753
  163SOPE  C31018334   3.426   3.264   9.709 -0.5758 -0.4350 -0.5928
  163SOPE  H10X18335   3.324   3.298   9.739 -1.2303 -1.2656 -1.8103
  163SOPE  H10Y18336   3.441   3.157   9.736 -0.8032 -0.3074  0.0677
  163SOPE  C31118337   3.425   3.277   9.563 -0.4365  0.2330 -0.0414
  163SOPE  H11X18338   3.528   3.267   9.522 -0.7085 -1.5029 -0.3957
  163SOPE  H11Y18339   3.385   3.375   9.531 -1.5514  0.0502  0.7589
  163SOPE  C31218340   3.335   3.160   9.507  0.5031 -0.7245 -0.2649
  163SOPE  H12X18341   3.232   3.201   9.518  1.1612  0.7433  0.8966
  163SOPE  H12Y18342   3.351   3.073   9.574  0.2814 -0.6794 -0.1496
  163SOPE  C31318343   3.360   3.137   9.358 -0.8156  0.0148 -0.0217
  163SOPE  H13X18344   3.460   3.093   9.341 -1.2031 -0.6117 -0.7338
  163SOPE  H13Y18345   3.352   3.224   9.290  1.1249  0.4652  0.2714
  163SOPE  C31418346   3.268   3.031   9.296  0.3666 -0.3837 -0.5125
  163SOPE  H14X18347   3.162   3.064   9.292  0.4522 -0.0873 -0.3923
  163SOPE  H14Y18348   3.291   2.944   9.361 -0.6553  0.4341  1.0201
  163SOPE  C31518349   3.315   3.005   9.158  0.0652 -0.1602  0.2048
  163SOPE  H15X18350   3.421   2.972   9.166 -0.3833 -1.0304  4.2124
  163SOPE  H15Y18351   3.321   3.101   9.102  1.9247  0.7470  1.8426
  163SOPE  C31618352   3.222   2.918   9.073  1.4971  0.6999 -1.1012
  163SOPE  H16X18353   3.126   2.974   9.077  1.6627  0.9322  0.6920
  163SOPE  H16Y18354   3.214   2.816   9.116  0.8277  0.4346 -1.8367
  163SOPE  C31718355   3.277   2.881   8.938  1.1951 -0.5593  0.4271
  163SOPE  H17X18356   3.378   2.839   8.959  1.7790 -0.1242 -1.3457
  163SOPE  H17Y18357   3.285   2.977   8.882  1.1336  0.3177  1.8584
  163SOPE  C31818358   3.203   2.775   8.860  0.6111 -0.3016  0.1680
  163SOPE  H18X18359   3.231   2.783   8.753 -1.9252 -0.4567 -0.5568
  163SOPE  H18Y18360   3.094   2.794   8.867  0.6467  0.4868 -1.1319
  163SOPE  H18Z18361   3.223   2.672   8.897 -0.7430 -0.7347 -0.2597
  164SOPE     N18362   4.488   0.754  10.878 -0.0270 -0.8415 -0.0856
  164SOPE   HN118363   4.550   0.829  10.916  1.3894 -1.2008 -1.5816
  164SOPE   HN218364   4.412   0.804  10.828 -0.2378 -0.0834  0.9565
  164SOPE   HN318365   4.445   0.702  10.957 -2.6682  0.8991 -0.2491
  164SOPE   C1218366   4.558   0.676  10.779 -0.8445  0.0331 -0.6584
  164SOPE  H12A18367   4.489   0.613  10.719 -0.7052 -0.6675 -0.1079
  164SOPE  H12B18368   4.617   0.607  10.843 -0.7132  0.5934 -0.1662
  164SOPE   C1118369   4.658   0.752  10.693  0.8944 -0.2579 -0.2221
  164SOPE  H11A18370   4.610   0.838  10.641  0.7550  0.9753  1.8705
  164SOPE  H11B18371   4.697   0.678  10.619 -0.7586 -0.6935 -0.7137
  164SOPE     P18372   4.905   0.733  10.772 -0.5144  0.0213 -0.3113
  164SOPE   O1318373   4.893   0.618  10.859  0.2622  0.3322  0.3119
  164SOPE   O1418374   5.014   0.828  10.802 -0.1500 -0.8084 -0.1411
  164SOPE   O1218375   4.767   0.804  10.763  0.1220 -0.3845 -0.3769
  164SOPE   O1118376   4.927   0.673  10.628  0.2666 -0.1394  0.5341
  164SOPE    C118377   4.951   0.764  10.519  0.5107 -0.4392  0.2267
  164SOPE    HA18378   5.011   0.851  10.555 -0.0350 -0.8468  2.2619
  164SOPE    HB18379   4.853   0.787  10.472 -0.9524  0.7509  3.5425
  164SOPE    C218380   5.052   0.692  10.418  0.2329 -0.0961  0.3069
  164SOPE    HS18381   5.061   0.762  10.332  0.8122  0.9327  1.1775
  164SOPE   O2118382   5.027   0.561  10.372 -0.0139  0.0826 -0.3779
  164SOPE   C2118383   4.904   0.540  10.333 -0.5625 -0.3728 -0.1140
  164SOPE   O2218384   4.809   0.614  10.339  0.2027  0.4983  0.2432
  164SOPE   C2218385   4.897   0.391  10.282 -0.3864  0.3142  0.4918
  164SOPE   H2R18386   4.793   0.361  10.259  0.2641  0.1122 -2.6743
  164SOPE   H2S18387   4.944   0.319  10.353  1.8429 -0.2226 -1.4133
  164SOPE    C318388   5.190   0.692  10.480 -0.4216 -0.7307  0.3895
  164SOPE    HX18389   5.185   0.627  10.570  0.2758 -1.6483 -0.2133
  164SOPE    HY18390   5.204   0.798  10.513  0.9558 -0.5113 -0.7857
  164SOPE   O3118391   5.288   0.673  10.380 -0.1414  0.3281 -0.2931
  164SOPE   C3118392   5.361   0.559  10.391  0.3884 -0.2211 -0.0219
  164SOPE   O3218393   5.374   0.488  10.491  0.1381  0.0477  0.2813
  164SOPE   C3218394   5.408   0.515  10.254 -0.5523 -0.9824 -0.0587
  164SOPE   H2X18395   5.370   0.412  10.237 -1.1709 -0.9371  0.9380
  164SOPE   H2Y18396   5.519   0.512  10.260 -0.5159  0.6186  0.6210
  164SOPE   C2318397   4.980   0.389  10.151  0.7451 -0.8763 -1.1843
  164SOPE   H3R18398   4.990   0.288  10.106  1.5889  0.0356 -3.1654
  164SOPE   H3S18399   5.084   0.423  10.172  1.1286 -2.4640 -0.3858
  164SOPE   C2418400   4.919   0.457  10.033 -0.0303  0.5344  1.0068
  164SOPE   H4R18401   4.827   0.404  10.001  0.1842 -0.4396  1.9334
  164SOPE   H4S18402   4.897   0.563  10.059  3.6956  1.5907  0.4441
  164SOPE   C2518403   5.017   0.458   9.911 -0.1887  0.2059 -0.3633
  164SOPE   H5R18404   5.112   0.508   9.940  0.1713 -0.0069 -1.1555
  164SOPE   H5S18405   5.019   0.352   9.877 -0.7236  0.4619 -1.2024
  164SOPE   C2618406   4.975   0.537   9.791  0.5106 -0.3148  0.4022
  164SOPE   H6R18407   4.867   0.518   9.775 -0.5394  3.0350  2.3963
  164SOPE   H6S18408   4.988   0.644   9.817  1.6304  0.0675 -1.6023
  164SOPE   C2718409   5.065   0.499   9.677  0.1137 -0.5261 -0.2094
  164SOPE   H7R18410   5.165   0.470   9.717  0.5664  0.1403 -0.8248
  164SOPE   H7S18411   5.026   0.410   9.623 -0.0270  0.0587 -1.0960
  164SOPE   C2818412   5.079   0.609   9.572  0.2395 -0.0511 -0.5588
  164SOPE   H8R18413   4.976   0.649   9.565  0.3243  0.4856  0.8803
  164SOPE   H8S18414   5.132   0.697   9.614 -1.1146  0.7229 -0.4470
  164SOPE   C2918415   5.146   0.560   9.450  0.0344  0.0674  0.4713
  164SOPE   H9118416   5.224   0.486   9.475 -0.7236 -0.1078  2.5194
  164SOPE  C21018417   5.099   0.541   9.325 -0.2589 -0.5788  0.6964
  164SOPE  H10118418   5.157   0.490   9.247 -0.9912  0.3788 -0.5224
  164SOPE  C21118419   4.968   0.607   9.282  0.2998 -0.5598 -0.2469
  164SOPE  H11R18420   4.942   0.690   9.350  2.3607 -0.7785  0.9077
  164SOPE  H11S18421   4.890   0.528   9.291 -0.1298 -0.0765  0.2864
  164SOPE  C21218422   4.976   0.644   9.130 -0.9471 -0.3310 -0.3317
  164SOPE  H12R18423   5.022   0.565   9.067 -0.6635 -0.4116 -0.0271
  164SOPE  H12S18424   5.037   0.736   9.123  0.0592 -0.9701 -0.1156
  164SOPE  C21318425   4.848   0.692   9.078  0.0119  0.2033  0.0761
  164SOPE  H13R18426   4.812   0.772   9.146 -1.6873 -1.1595  0.8429
  164SOPE  H13S18427   4.765   0.618   9.072 -0.5301  0.8221 -0.2014
  164SOPE  C21418428   4.865   0.759   8.942 -0.0664  0.3958  0.5839
  164SOPE  H14R18429   4.920   0.681   8.884 -1.3925 -0.9581  1.0773
  164SOPE  H14S18430   4.931   0.847   8.959  0.2249  0.1251  0.8675
  164SOPE  C21518431   4.740   0.788   8.867  0.7806  0.0562 -0.3402
  164SOPE  H15R18432   4.686   0.876   8.907 -2.3563 -1.4232 -1.0075
  164SOPE  H15S18433   4.679   0.695   8.863  0.1985  0.4461 -3.3492
  164SOPE  C21618434   4.762   0.809   8.723  0.2642  0.2507 -0.7681
  164SOPE  H16R18435   4.667   0.829   8.669  0.4222 -0.5588 -1.3774
  164SOPE  H16S18436   4.812   0.715   8.692 -1.4992 -0.9594 -0.0725
  164SOPE  C21718437   4.861   0.929   8.673 -0.6517  0.3214 -0.7255
  164SOPE  H17R18438   4.954   0.922   8.733 -1.0546  0.4342 -0.0776
  164SOPE  H17S18439   4.804   1.025   8.675 -0.7302  0.2717 -0.6139
  164SOPE  C21818440   4.889   0.913   8.524 -0.1148  0.4621  0.0401
  164SOPE  H18R18441   4.956   0.829   8.494 -0.7392  0.2915 -0.9329
  164SOPE  H18S18442   4.945   1.004   8.493  1.2583 -0.7126 -1.1023
  164SOPE  H18T18443   4.796   0.916   8.464  0.9526  2.3108 -1.6586
  164SOPE   C3318444   5.388   0.604  10.132  0.1959 -0.2502 -0.8565
  164SOPE   H3X18445   5.417   0.707  10.160  1.9729 -0.4053 -1.9950
  164SOPE   H3Y18446   5.281   0.618  10.106 -0.1981  1.9261  1.5446
  164SOPE   C3418447   5.474   0.556  10.018 -0.9774 -0.0858 -0.1052
  164SOPE   H4X18448   5.449   0.457   9.974  4.5731 -1.3953 -1.0436
  164SOPE   H4Y18449   5.584   0.543  10.019 -0.9397  0.2370  0.2656
  164SOPE   C3518450   5.445   0.645   9.889  0.8787  0.5481 -0.1505
  164SOPE   H5X18451   5.486   0.745   9.913  0.2066  1.2718 -1.8543
  164SOPE   H5Y18452   5.337   0.661   9.869  0.5251 -2.7242 -1.5355
  164SOPE   C3618453   5.524   0.585   9.768  0.2934 -0.7140 -0.3885
  164SOPE   H6X18454   5.499   0.479   9.747  0.0056 -0.5021 -1.1599
  164SOPE   H6Y18455   5.633   0.595   9.785  0.3482 -0.8554 -0.6619
  164SOPE   C3718456   5.480   0.643   9.631 -0.3634 -0.3328 -0.9421
  164SOPE   H7X18457   5.489   0.754   9.625  0.9665 -0.4520 -1.4738
  164SOPE   H7Y18458   5.377   0.620   9.596 -0.4445  0.1088 -1.0065
  164SOPE   C3818459   5.564   0.596   9.510 -0.3334  0.6157 -0.0915
  164SOPE   H8X18460   5.594   0.491   9.532  1.3423  1.4786  2.1658
  164SOPE   H8Y18461   5.661   0.649   9.502 -0.2975  0.6442  0.4845
  164SOPE   C3918462   5.493   0.590   9.380  0.2780  0.1156  0.0016
  164SOPE   H9X18463   5.399   0.650   9.386  1.2726  1.8155 -0.7130
  164SOPE   H9Y18464   5.455   0.487   9.367 -0.5675  0.3697  0.3810
  164SOPE  C31018465   5.577   0.655   9.266  1.0229  0.0317 -0.0818
  164SOPE  H10X18466   5.677   0.607   9.270  0.4922 -1.3063 -1.6018
  164SOPE  H10Y18467   5.587   0.763   9.290 -0.0750 -0.0057  0.6136
  164SOPE  C31118468   5.513   0.640   9.130 -0.2517 -0.0176 -0.2164
  164SOPE  H11X18469   5.479   0.538   9.102 -0.6653  0.1284 -0.2666
  164SOPE  H11Y18470   5.587   0.680   9.057 -2.7371  0.2745 -2.7743
  164SOPE  C31218471   5.389   0.727   9.128 -0.0947 -0.0452  0.0458
  164SOPE  H12X18472   5.412   0.824   9.178 -1.7889  1.8710 -2.6052
  164SOPE  H12Y18473   5.302   0.678   9.176  0.1892  0.1608  0.7833
  164SOPE  C31318474   5.357   0.757   8.984 -0.0226  0.3450  0.1219
  164SOPE  H13X18475   5.438   0.811   8.931 -0.8469  0.7411 -0.7842
  164SOPE  H13Y18476   5.268   0.824   8.986 -0.8123 -0.5610 -1.7783
  164SOPE  C31418477   5.308   0.640   8.896 -0.0643 -0.3461 -0.6090
  164SOPE  H14X18478   5.222   0.593   8.950 -0.5190 -1.0098 -1.8731
  164SOPE  H14Y18479   5.400   0.578   8.885  1.2537  1.0734  1.6421
  164SOPE  C31518480   5.249   0.687   8.762 -0.5915 -0.1021 -0.0109
  164SOPE  H15X18481   5.154   0.742   8.783 -0.6955  0.3725 -1.5605
  164SOPE  H15Y18482   5.236   0.595   8.702  0.4210 -0.6298  0.5598
  164SOPE  C31618483   5.348   0.769   8.681  0.4652  0.2730 -0.0349
  164SOPE  H16X18484   5.445   0.715   8.688  0.0908 -0.2015  2.7524
  164SOPE  H16Y18485   5.358   0.876   8.709 -0.8108  1.0895 -2.4367
  164SOPE  C31718486   5.298   0.779   8.533 -0.1969 -0.1747  1.2646
  164SOPE  H17X18487   5.200   0.830   8.538 -1.5020 -2.4423  0.5661
  164SOPE  H17Y18488   5.287   0.676   8.492  1.0483  0.7509 -1.6763
  164SOPE  C31818489   5.402   0.852   8.446 -0.0772  0.2194 -0.1130
  164SOPE  H18X18490   5.502   0.804   8.443 -0.1482  0.0793 -0.2154
  164SOPE  H18Y18491   5.414   0.947   8.503 -1.3580  0.2862  0.0602
  164SOPE  H18Z18492   5.365   0.872   8.344 -0.1003  1.7119  0.1563
  165SOPE     N18493   4.106   1.711  10.686 -0.4424  0.2747 -0.0417
  165SOPE   HN118494   4.007   1.709  10.656 -0.5432 -3.4054  0.1790
  165SOPE   HN218495   4.120   1.799  10.740 -0.1889 -0.3363  0.8913
  165SOPE   HN318496   4.156   1.706  10.595 -1.8980 -1.7784 -0.7876
  165SOPE   C1218497   4.110   1.587  10.785 -1.0903  0.2713  0.4443
  165SOPE  H12A18498   4.213   1.545  10.783 -1.2060 -0.0026  0.0918
  165SOPE  H12B18499   4.050   1.508  10.736  1.7040  0.5791 -4.0898
  165SOPE   C1118500   4.053   1.625  10.920  0.6642 -0.1907  0.0474
  165SOPE  H11A18501   4.026   1.541  10.988  1.2932 -0.2907  0.1789
  165SOPE  H11B18502   3.952   1.667  10.898  0.4145 -1.0126 -0.4229
  165SOPE     P18503   4.107   1.855  11.032  0.1887 -0.2493 -0.5570
  165SOPE   O1318504   4.191   1.899  11.146 -0.2459  1.1468  0.5466
  165SOPE   O1418505   3.960   1.886  11.052 -0.0316  0.0645 -0.1772
  165SOPE   O1218506   4.147   1.707  10.992 -0.0938  0.5383 -0.7902
  165SOPE   O1118507   4.160   1.922  10.912  0.3438  0.0108 -0.3169
  165SOPE    C118508   4.292   1.895  10.863  0.1818 -0.2449 -0.0606
  165SOPE    HA18509   4.292   1.790  10.825 -0.4260 -0.1854 -0.2334
  165SOPE    HB18510   4.368   1.909  10.942 -0.7075  0.2286  0.7260
  165SOPE    C218511   4.314   1.982  10.735  0.2189  0.0095 -0.2848
  165SOPE    HS18512   4.334   2.081  10.781  1.4571 -0.4086  0.1302
  165SOPE   O2118513   4.198   1.975  10.651  0.6206 -0.1941  0.2107
  165SOPE   C2118514   4.181   2.098  10.584  0.6836  0.5401 -0.2230
  165SOPE   O2218515   4.250   2.197  10.601 -0.4732 -0.3064  0.4930
  165SOPE   C2218516   4.064   2.097  10.483  0.4136 -0.5037 -0.4624
  165SOPE   H2R18517   4.023   2.199  10.473  0.0038 -0.6486 -0.2915
  165SOPE   H2S18518   3.987   2.036  10.535  0.8168  0.5416  1.4549
  165SOPE    C318519   4.442   1.943  10.659 -0.2299 -0.6249  0.6542
  165SOPE    HX18520   4.434   1.846  10.606  1.5608 -0.6564  0.4145
  165SOPE    HY18521   4.523   1.930  10.734  0.3288  0.6845  0.3081
  165SOPE   O3118522   4.465   2.045  10.562 -0.2059  0.1309  0.9703
  165SOPE   C3118523   4.542   2.143  10.619 -0.1178 -0.1254  0.1098
  165SOPE   O3218524   4.592   2.144  10.730 -0.0924 -0.5095 -0.2186
  165SOPE   C3218525   4.568   2.258  10.523  0.6810 -0.8597  1.0076
  165SOPE   H2X18526   4.599   2.346  10.584  0.1759 -0.3707  0.5716
  165SOPE   H2Y18527   4.471   2.279  10.472  1.2785 -0.1777  0.1128
  165SOPE   C2318528   4.097   2.023  10.346 -0.0849  0.1329  0.2830
  165SOPE   H3R18529   4.012   2.037  10.276  0.0302 -1.0362 -0.1228
  165SOPE   H3S18530   4.102   1.916  10.375  0.3403 -0.6031 -2.2600
  165SOPE   C2418531   4.222   2.067  10.270 -0.6188 -0.1322  0.8105
  165SOPE   H4R18532   4.216   2.175  10.245  2.0720 -0.2324 -0.7068
  165SOPE   H4S18533   4.312   2.052  10.333 -1.3409 -2.3268  1.3932
  165SOPE   C2518534   4.232   2.000  10.131 -0.8706  0.3834 -0.1381
  165SOPE   H5R18535   4.239   1.890  10.144  1.1761  0.6763  1.7601
  165SOPE   H5S18536   4.137   2.013  10.075 -2.4243 -2.1210  1.6780
  165SOPE   C2618537   4.349   2.047  10.047 -0.1648  0.2353 -0.3721
  165SOPE   H6R18538   4.445   2.051  10.102  0.3624  0.9925 -1.3049
  165SOPE   H6S18539   4.375   1.971   9.970  1.7755  2.0091 -1.5976
  165SOPE   C2718540   4.333   2.176   9.969  0.4254 -0.3357 -0.1116
  165SOPE   H7R18541   4.233   2.222   9.954  0.8607  0.8710  0.5115
  165SOPE   H7S18542   4.374   2.253  10.039 -0.1021 -1.4851  1.5271
  165SOPE   C2818543   4.419   2.184   9.837  0.2346  0.1834  0.7381
  165SOPE   H8R18544   4.406   2.293   9.817 -2.1263 -0.4457 -1.5984
  165SOPE   H8S18545   4.527   2.161   9.850 -0.0367 -1.0561  0.9084
  165SOPE   C2918546   4.361   2.104   9.719  0.6689 -0.5809 -0.4981
  165SOPE   H9118547   4.252   2.091   9.719  0.2616  2.1129 -0.0345
  165SOPE  C21018548   4.436   2.062   9.615 -0.3569  0.7184 -0.3927
  165SOPE  H10118549   4.379   2.020   9.530 -1.4381 -0.3594  0.8296
  165SOPE  C21118550   4.581   2.093   9.597  0.2309 -0.2597  0.3548
  165SOPE  H11R18551   4.633   2.007   9.644  1.0172 -0.9826 -1.7380
  165SOPE  H11S18552   4.618   2.186   9.646 -0.5099  0.4950 -0.4758
  165SOPE  C21218553   4.622   2.102   9.450 -0.0787  0.0597  0.4366
  165SOPE  H12R18554   4.732   2.116   9.443  0.0989 -0.9902  0.8809
  165SOPE  H12S18555   4.588   2.196   9.403  0.2121  0.4198  0.9374
  165SOPE  C21318556   4.577   1.988   9.354 -0.5887 -0.2156  0.2889
  165SOPE  H13R18557   4.469   1.976   9.332 -0.8049  0.3951  0.9860
  165SOPE  H13S18558   4.608   1.891   9.398  1.2465  1.0701  2.0343
  165SOPE  C21418559   4.645   2.018   9.216 -0.8489  0.0841  0.0721
  165SOPE  H14R18560   4.754   2.005   9.230 -0.5368  0.6581 -1.5589
  165SOPE  H14S18561   4.636   2.126   9.192  0.3482  0.0620 -0.5729
  165SOPE  C21518562   4.583   1.924   9.113  0.4583 -1.0385 -0.6834
  165SOPE  H15R18563   4.473   1.939   9.111  0.6625  0.6230 -1.3618
  165SOPE  H15S18564   4.607   1.822   9.150  0.7834 -0.3544  1.0462
  165SOPE  C21618565   4.646   1.934   8.975 -0.5384 -0.5654  0.2369
  165SOPE  H16R18566   4.610   1.849   8.913 -0.9199 -0.6458  0.5676
  165SOPE  H16S18567   4.756   1.924   8.984 -0.2988  0.8033 -0.7354
  165SOPE  C21718568   4.625   2.071   8.906  0.5158  0.2263 -0.3033
  165SOPE  H17R18569   4.603   2.150   8.981 -1.2024 -0.2974 -0.2198
  165SOPE  H17S18570   4.541   2.077   8.835 -0.5832 -1.3970  0.7773
  165SOPE  C21818571   4.757   2.118   8.838 -0.3564  0.3758 -0.4950
  165SOPE  H18R18572   4.845   2.111   8.906 -0.1339 -2.5606 -0.9347
  165SOPE  H18S18573   4.743   2.217   8.790  0.3047 -0.7719 -3.2780
  165SOPE  H18T18574   4.781   2.053   8.750  0.2620 -1.2566  0.8308
  165SOPE   C3318575   4.678   2.241  10.420 -0.0631  0.5609  0.4215
  165SOPE   H3X18576   4.770   2.231  10.481  0.7969  0.9773 -0.7548
  165SOPE   H3Y18577   4.682   2.337  10.364  0.4648 -1.1268 -2.6655
  165SOPE   C3418578   4.675   2.123  10.323  0.5434  0.7812  0.3432
  165SOPE   H4X18579   4.575   2.105  10.280 -0.0147  0.8319  1.5835
  165SOPE   H4Y18580   4.712   2.031  10.374 -1.1442  0.2912  0.7519
  165SOPE   C3518581   4.762   2.156  10.196 -0.1803  0.5726  0.0016
  165SOPE   H5X18582   4.861   2.179  10.241  0.7066 -0.1316 -1.4969
  165SOPE   H5Y18583   4.724   2.243  10.139 -0.3876  0.0292 -0.7123
  165SOPE   C3618584   4.778   2.040  10.097 -0.3671  0.9056  0.1274
  165SOPE   H6X18585   4.681   2.013  10.050 -0.1466  0.3873 -0.0328
  165SOPE   H6Y18586   4.814   1.943  10.137  1.2414  0.2775 -2.5731
  165SOPE   C3718587   4.866   2.082   9.977  0.2329  0.1410 -0.8847
  165SOPE   H7X18588   4.959   2.123  10.022 -0.4295 -0.8714  1.5953
  165SOPE   H7Y18589   4.830   2.176   9.930  0.7519  0.4397 -0.6918
  165SOPE   C3818590   4.903   1.971   9.881  0.0181  0.0218  0.3290
  165SOPE   H8X18591   4.810   1.919   9.851 -1.4953  2.8759 -0.2361
  165SOPE   H8Y18592   4.973   1.901   9.933  0.8768 -0.1460 -1.0169
  165SOPE   C3918593   4.965   2.030   9.754  1.1534 -0.5432  0.5182
  165SOPE   H9X18594   5.064   2.072   9.781 -0.5805  2.4161  2.9316
  165SOPE   H9Y18595   4.901   2.115   9.720  1.2823  0.2196  2.1239
  165SOPE  C31018596   4.974   1.924   9.642 -0.6412 -0.2892  0.1236
  165SOPE  H10X18597   4.877   1.901   9.593 -0.4343 -0.3948 -0.2459
  165SOPE  H10Y18598   5.017   1.833   9.689  0.6210  1.0143  1.6108
  165SOPE  C31118599   5.071   1.980   9.539 -0.3889  0.3524  0.8858
  165SOPE  H11X18600   5.111   1.896   9.479  1.2141  0.6257  1.5084
  165SOPE  H11Y18601   5.157   2.038   9.579 -0.2809  0.1399  0.9684
  165SOPE  C31218602   5.006   2.072   9.430  0.0767 -0.5023  0.1014
  165SOPE  H12X18603   4.974   2.162   9.486 -2.8094  0.2290 -2.4937
  165SOPE  H12Y18604   4.921   2.010   9.396  0.3610 -0.4080 -0.8032
  165SOPE  C31318605   5.112   2.117   9.325  0.4625 -0.2621 -0.7671
  165SOPE  H13X18606   5.209   2.103   9.378 -0.8122 -0.7715  1.6173
  165SOPE  H13Y18607   5.101   2.226   9.306  0.0281 -0.4290 -1.4894
  165SOPE  C31418608   5.122   2.038   9.197 -0.0070 -0.7343  0.1101
  165SOPE  H14X18609   5.019   2.038   9.155 -0.2673  1.8334  0.5680
  165SOPE  H14Y18610   5.143   1.930   9.210 -1.0674 -1.1743 -1.5583
  165SOPE  C31518611   5.216   2.099   9.096 -0.3268 -0.7010 -0.8816
  165SOPE  H15X18612   5.315   2.052   9.113 -0.6783 -1.0671  0.2497
  165SOPE  H15Y18613   5.229   2.209   9.110  0.8320 -1.1081  2.1349
  165SOPE  C31618614   5.192   2.066   8.948 -0.5852  0.1873  0.0302
  165SOPE  H16X18615   5.264   2.119   8.882 -0.5082  1.5765  1.1812
  165SOPE  H16Y18616   5.090   2.097   8.915  0.7668  2.7624 -2.0853
  165SOPE  C31718617   5.185   1.918   8.913  0.3030  0.0088  0.2893
  165SOPE  H17X18618   5.138   1.855   8.991 -0.6086  0.1944 -0.0917
  165SOPE  H17Y18619   5.287   1.874   8.906 -0.1071 -1.2194  1.5248
  165SOPE  C31818620   5.109   1.891   8.779  0.5075 -0.4267 -0.4781
  165SOPE  H18X18621   5.142   1.961   8.700 -0.4367  0.9896  0.3428
  165SOPE  H18Y18622   5.000   1.913   8.790  0.1898 -0.9789 -2.1042
  165SOPE  H18Z18623   5.103   1.786   8.743 -0.5862 -1.1401  1.5913
  166SOPE     N18624   0.723   0.241  10.790 -0.0446 -0.2921 -0.0820
  166SOPE   HN118625   0.795   0.281  10.854 -1.8023 -1.3237  2.7566
  166SOPE   HN218626   0.723   0.289  10.698  1.6823 -1.1567 -0.5807
  166SOPE   HN318627   0.636   0.275  10.836  0.8272  3.9804 -1.1113
  166SOPE   C1218628   0.710   0.093  10.781 -0.7747  0.7135 -0.0872
  166SOPE  H12A18629   0.605   0.063  10.758 -0.4076 -1.3683  0.7456
  166SOPE  H12B18630   0.723   0.050  10.883 -4.5532  3.3372  1.7692
  166SOPE   C1118631   0.799   0.029  10.678  0.0407  0.5124 -0.3029
  166SOPE  H11A18632   0.768   0.056  10.575  1.0037 -0.2960 -0.8164
  166SOPE  H11B18633   0.790  -0.080  10.699  0.4632  0.5413  0.0481
  166SOPE     P18634   1.051   0.058  10.623  0.3875  0.0465  0.0791
  166SOPE   O1318635   1.059  -0.084  10.593 -0.1545  0.8305 -0.6837
  166SOPE   O1418636   1.175   0.120  10.679  0.2637  0.4966 -0.1099
  166SOPE   O1218637   0.925   0.073  10.714 -0.2054 -1.3943  0.2254
  166SOPE   O1118638   1.011   0.143  10.496  0.3626 -0.5922  0.7795
  166SOPE    C118639   0.965   0.274  10.515 -0.4582 -0.6936 -0.4051
  166SOPE    HA18640   0.970   0.304  10.622  3.5590  1.6959 -1.0608
  166SOPE    HB18641   0.859   0.282  10.481 -0.2773 -1.5071 -1.2163
  166SOPE    C218642   1.038   0.390  10.436 -0.4118 -0.4007  0.3217
  166SOPE    HS18643   0.998   0.493  10.449  0.8369  0.1345  0.1428
  166SOPE   O2118644   1.041   0.360  10.294 -0.5272  0.1953 -0.2259
  166SOPE   C2118645   0.935   0.381  10.230  0.7886  0.0379  0.3982
  166SOPE   O2218646   0.828   0.425  10.276 -0.2522 -0.0744 -0.1083
  166SOPE   C2218647   0.963   0.361  10.079  0.5645 -0.5239 -0.3512
  166SOPE   H2R18648   1.015   0.265  10.063  2.4550  0.2870  0.6405
  166SOPE   H2S18649   1.028   0.447  10.051  0.8578 -0.7863 -0.4697
  166SOPE    C318650   1.186   0.417  10.482  0.2359 -0.7723  0.6650
  166SOPE    HX18651   1.239   0.320  10.491  0.9521 -0.2178  3.1851
  166SOPE    HY18652   1.174   0.452  10.586 -1.6893  3.1335 -0.6755
  166SOPE   O3118653   1.255   0.509  10.394  0.1875 -0.3285  0.2997
  166SOPE   C3118654   1.307   0.453  10.281 -0.1738 -0.1397 -0.5674
  166SOPE   O3218655   1.297   0.337  10.245 -0.5144  0.0618 -1.0665
  166SOPE   C3218656   1.397   0.557  10.201 -0.3884  0.2227  0.2229
  166SOPE   H2X18657   1.507   0.540  10.204  0.7149  5.2711 -1.8014
  166SOPE   H2Y18658   1.393   0.661  10.239  1.9554  0.8516 -1.0562
  166SOPE   C2318659   0.823   0.376  10.008  0.2946 -0.1039  0.2103
  166SOPE   H3R18660   0.769   0.467  10.043 -1.4870 -0.6502 -1.0246
  166SOPE   H3S18661   0.758   0.295  10.047 -0.4536 -0.2034 -1.2086
  166SOPE   C2418662   0.829   0.374   9.852  0.0284 -0.2351 -1.1942
  166SOPE   H4R18663   0.912   0.308   9.819  1.1738  1.0003 -0.8848
  166SOPE   H4S18664   0.729   0.351   9.811 -0.1448 -1.6601 -0.0682
  166SOPE   C2518665   0.850   0.509   9.783 -0.0554  0.0967 -0.9485
  166SOPE   H5R18666   0.803   0.596   9.834  2.6194  1.2305 -0.2644
  166SOPE   H5S18667   0.954   0.546   9.786 -0.7563  2.1161  0.2727
  166SOPE   C2618668   0.781   0.519   9.649 -0.3453  0.2070  0.4490
  166SOPE   H6R18669   0.679   0.477   9.660  0.3782 -1.3515  1.6182
  166SOPE   H6S18670   0.772   0.628   9.629  1.4460  0.0328 -1.8857
  166SOPE   C2718671   0.864   0.458   9.539 -0.7067  1.1321  0.1435
  166SOPE   H7R18672   0.971   0.490   9.544 -0.8005  1.2799  3.2171
  166SOPE   H7S18673   0.865   0.348   9.556 -0.5609  0.5491 -3.0002
  166SOPE   C2818674   0.804   0.471   9.398 -0.0952  0.7237  0.1596
  166SOPE   H8R18675   0.696   0.445   9.396 -0.0095  0.2577  1.1643
  166SOPE   H8S18676   0.801   0.578   9.369 -1.3879  0.7528  0.3241
  166SOPE   C2918677   0.872   0.379   9.298  0.1582  0.0992 -0.4883
  166SOPE   H9118678   0.852   0.270   9.296  2.4057 -0.3702 -0.1409
  166SOPE  C21018679   0.964   0.418   9.210 -0.0690  0.2092  0.0526
  166SOPE  H10118680   1.006   0.345   9.139  0.7560  0.2250  0.5118
  166SOPE  C21118681   1.007   0.566   9.203 -0.3055 -0.4035 -0.5273
  166SOPE  H11R18682   1.070   0.576   9.294  1.2371 -0.9309 -1.4911
  166SOPE  H11S18683   0.919   0.634   9.211  2.0514  2.7897 -0.1956
  166SOPE  C21218684   1.084   0.597   9.078 -0.1520  0.1983  0.3980
  166SOPE  H12R18685   1.077   0.707   9.071 -1.1612  0.0532 -1.6793
  166SOPE  H12S18686   1.037   0.552   8.988 -0.2069 -0.9030  0.9623
  166SOPE  C21318687   1.226   0.532   9.083  0.1199 -0.1658  0.0098
  166SOPE  H13R18688   1.214   0.422   9.079  0.8960 -0.3195  1.3702
  166SOPE  H13S18689   1.259   0.578   9.179 -1.5786  0.3574  0.3851
  166SOPE  C21418690   1.318   0.577   8.968  0.1373 -0.9466 -0.5406
  166SOPE  H14R18691   1.420   0.561   9.008 -0.6601 -1.3262  1.4567
  166SOPE  H14S18692   1.300   0.685   8.951 -0.1053 -1.0470 -0.9367
  166SOPE  C21518693   1.299   0.507   8.837 -0.2413  0.2353  1.0962
  166SOPE  H15R18694   1.191   0.526   8.818  0.0635  1.0213  0.0787
  166SOPE  H15S18695   1.319   0.398   8.845  2.0574  0.6268  1.4409
  166SOPE  C21618696   1.395   0.571   8.736  0.0261 -0.0675  0.0522
  166SOPE  H16R18697   1.501   0.548   8.759 -0.3268 -1.4690  0.4040
  166SOPE  H16S18698   1.384   0.681   8.738 -1.0574  0.0672 -4.0682
  166SOPE  C21718699   1.355   0.530   8.593  0.5221 -0.3995 -0.5317
  166SOPE  H17R18700   1.262   0.590   8.582  1.8658  2.5605  2.4594
  166SOPE  H17S18701   1.346   0.420   8.599  2.6834 -0.6278 -0.6862
  166SOPE  C21818702   1.462   0.562   8.493  0.0705  0.5323 -0.7003
  166SOPE  H18R18703   1.418   0.551   8.392 -1.2964 -0.1380 -0.0537
  166SOPE  H18S18704   1.546   0.492   8.515 -0.2606  0.7842  1.6578
  166SOPE  H18T18705   1.497   0.666   8.510  0.8635 -0.2891  4.0975
  166SOPE   C3318706   1.360   0.559  10.047 -0.7353 -0.1884 -0.5877
  166SOPE   H3X18707   1.251   0.577  10.043 -0.6782  0.6845  0.9415
  166SOPE   H3Y18708   1.393   0.465   9.998 -0.6986  0.9360 -2.8736
  166SOPE   C3418709   1.425   0.675   9.979 -0.3690 -0.0523 -0.5034
  166SOPE   H4X18710   1.534   0.681   9.996 -0.8582  2.1206  2.6747
  166SOPE   H4Y18711   1.394   0.766  10.034 -0.4565  0.7727 -1.8578
  166SOPE   C3518712   1.391   0.696   9.832 -0.8171 -0.1035 -0.2996
  166SOPE   H5X18713   1.371   0.805   9.824 -1.5263 -0.1818  0.3453
  166SOPE   H5Y18714   1.289   0.652   9.820 -0.8325 -0.3483  0.6981
  166SOPE   C3618715   1.499   0.650   9.740  0.2882 -0.0828  0.0265
  166SOPE   H6X18716   1.516   0.541   9.747  0.1203 -0.1520 -0.6202
  166SOPE   H6Y18717   1.588   0.708   9.774  0.6635  0.0714 -1.1773
  166SOPE   C3718718   1.481   0.694   9.593  0.7145  0.1139  0.2512
  166SOPE   H7X18719   1.459   0.802   9.585  0.4542  0.0567  0.1972
  166SOPE   H7Y18720   1.389   0.639   9.563  0.9999 -0.0564 -0.3278
  166SOPE   C3818721   1.597   0.639   9.504  1.1264 -0.2735  0.2611
  166SOPE   H8X18722   1.577   0.530   9.497  0.7135 -0.3655  2.3851
  166SOPE   H8Y18723   1.692   0.654   9.559  2.0316  0.3786 -1.3882
  166SOPE   C3918724   1.604   0.712   9.366  0.2705 -0.7022 -0.7315
  166SOPE   H9X18725   1.638   0.816   9.380 -2.9935  0.3813  0.0054
  166SOPE   H9Y18726   1.499   0.718   9.329 -0.3211 -0.2218  0.9501
  166SOPE  C31018727   1.705   0.644   9.276  0.6555  0.2091  0.4854
  166SOPE  H10X18728   1.659   0.544   9.262  1.2680  0.1360 -1.2671
  166SOPE  H10Y18729   1.808   0.640   9.317  0.7813 -0.1729  0.1355
  166SOPE  C31118730   1.711   0.705   9.134 -0.2620  0.3490 -0.0568
  166SOPE  H11X18731   1.755   0.806   9.142  2.0976 -0.7385  3.6569
  166SOPE  H11Y18732   1.608   0.689   9.096 -0.1461 -3.7845  0.8007
  166SOPE  C31218733   1.816   0.630   9.044 -0.5768 -0.0651 -0.0614
  166SOPE  H12X18734   1.909   0.632   9.105 -1.0609 -0.6183  0.7222
  166SOPE  H12Y18735   1.829   0.702   8.962 -1.0624  2.3914  1.9003
  166SOPE  C31318736   1.782   0.489   8.993 -0.2469 -0.4008  0.4086
  166SOPE  H13X18737   1.713   0.501   8.907 -0.4023  0.1592  0.6071
  166SOPE  H13Y18738   1.726   0.439   9.074 -0.8632 -2.2220 -1.0835
  166SOPE  C31418739   1.906   0.397   8.968  0.6606 -1.1626 -0.9211
  166SOPE  H14X18740   1.958   0.375   9.064  0.1169  2.0443  0.2269
  166SOPE  H14Y18741   1.977   0.451   8.901 -0.5912 -0.9553 -2.1169
  166SOPE  C31518742   1.865   0.265   8.910  0.1549  0.9091 -0.2950
  166SOPE  H15X18743   1.822   0.288   8.810  1.3349 -1.8017 -1.5342
  166SOPE  H15Y18744   1.789   0.210   8.969 -0.3978  0.0418 -1.7685
  166SOPE  C31618745   2.000   0.182   8.895 -0.0212 -0.4967  0.8691
  166SOPE  H16X18746   2.041   0.149   8.993 -0.5683 -0.4032  1.1344
  166SOPE  H16Y18747   2.080   0.245   8.850 -0.1244 -1.0574 -0.1332
  166SOPE  C31718748   1.978   0.056   8.795  0.1341 -0.2246  0.4384
  166SOPE  H17X18749   2.080   0.014   8.784  0.4110  0.9417 -2.0591
  166SOPE  H17Y18750   1.946   0.102   8.699 -2.3708 -1.0702  0.7830
  166SOPE  C31818751   1.884  -0.064   8.844  0.0905 -0.2792 -0.6208
  166SOPE  H18X18752   1.873  -0.064   8.954  1.0213 -0.5137 -0.5112
  166SOPE  H18Y18753   1.908  -0.167   8.809 -1.4938 -0.7472 -0.4014
  166SOPE  H18Z18754   1.785  -0.036   8.804 -1.4622 -4.3119 -0.0520
  167SOPE     N18755   3.599   5.623   6.041 -0.5096  0.2656  0.0465
  167SOPE   HN118756   3.497   5.603   6.031  0.0426 -1.7214 -2.8097
  167SOPE   HN218757   3.638   5.638   5.946 -0.5645  2.2157  0.2891
  167SOPE   HN318758   3.635   5.536   6.085 -0.6240  0.5087  0.6272
  167SOPE   C1218759   3.615   5.747   6.125  0.0189 -0.0636 -0.1991
  167SOPE  H12A18760   3.580   5.832   6.062 -0.5605  0.0483  0.2616
  167SOPE  H12B18761   3.719   5.762   6.161  0.6994 -1.3201 -1.5212
  167SOPE   C1118762   3.519   5.745   6.253 -0.2400  0.2531 -0.2590
  167SOPE  H11A18763   3.550   5.834   6.311  3.3754  0.2560 -1.9028
  167SOPE  H11B18764   3.528   5.657   6.320 -0.5010  0.6785  0.3415
  167SOPE     P18765   3.277   5.647   6.221  0.0328  0.2529 -0.1693
  167SOPE   O1318766   3.332   5.537   6.135 -0.2273 -0.1148  0.1114
  167SOPE   O1418767   3.147   5.708   6.188 -0.3267 -0.0816 -0.1673
  167SOPE   O1218768   3.385   5.763   6.217 -0.0881 -0.1845 -0.1307
  167SOPE   O1118769   3.281   5.591   6.369 -0.2560  0.1477  0.5431
  167SOPE    C118770   3.200   5.645   6.477  0.8587  0.4146  0.2191
  167SOPE    HA18771   3.189   5.554   6.541 -1.2428 -2.5909 -3.9324
  167SOPE    HB18772   3.101   5.677   6.440  0.3584 -0.0089  1.1605
  167SOPE    C218773   3.277   5.758   6.552  0.0183 -0.0413  0.0077
  167SOPE    HS18774   3.297   5.846   6.488  1.6352 -0.4710 -0.1191
  167SOPE   O2118775   3.405   5.715   6.591 -0.0437  0.8098 -0.0326
  167SOPE   C2118776   3.511   5.786   6.587 -0.0048 -0.2535 -0.1885
  167SOPE   O2218777   3.520   5.904   6.557 -0.0209 -0.7334  0.0216
  167SOPE   C2218778   3.631   5.695   6.622 -0.1681  0.7128  0.6207
  167SOPE   H2R18779   3.714   5.769   6.622 -0.2124  0.7650  0.8662
  167SOPE   H2S18780   3.655   5.620   6.544 -0.4662  2.1170 -0.8792
  167SOPE    C318781   3.208   5.797   6.682 -0.0030  0.0001 -0.3614
  167SOPE    HX18782   3.108   5.842   6.661  0.0736 -0.0522 -0.8325
  167SOPE    HY18783   3.260   5.880   6.735 -0.5672 -0.6574  1.3079
  167SOPE   O3118784   3.195   5.683   6.769  0.1564  0.1401  0.5606
  167SOPE   C3118785   3.285   5.671   6.873  0.2475  0.5912  0.5657
  167SOPE   O3218786   3.373   5.751   6.898 -0.0141  0.1624 -0.7472
  167SOPE   C3218787   3.249   5.539   6.950  0.2036 -0.7265  0.6404
  167SOPE   H2X18788   3.329   5.467   6.923  1.0696  0.4940 -0.1901
  167SOPE   H2Y18789   3.152   5.506   6.906  1.1099 -2.8693  0.1243
  167SOPE   C2318790   3.634   5.618   6.752 -0.2603  0.8492 -0.4021
  167SOPE   H3R18791   3.549   5.548   6.763 -0.7717  1.4735 -0.3109
  167SOPE   H3S18792   3.621   5.697   6.830  0.9192 -0.4111  1.1335
  167SOPE   C2418793   3.775   5.561   6.778 -0.7308  0.5742 -0.6444
  167SOPE   H4R18794   3.794   5.474   6.712  0.6971  1.4487 -1.4554
  167SOPE   H4S18795   3.849   5.641   6.754 -1.2780  1.1753 -0.3518
  167SOPE   C2518796   3.790   5.512   6.920 -0.7358 -0.5347  1.1091
  167SOPE   H5R18797   3.757   5.595   6.985 -0.9782  0.4526 -0.2204
  167SOPE   H5S18798   3.727   5.422   6.934  0.5360 -1.5343  0.6196
  167SOPE   C2618799   3.936   5.467   6.937 -0.1007  0.2564  0.5327
  167SOPE   H6R18800   3.962   5.390   6.861  0.3197 -0.5268  1.4561
  167SOPE   H6S18801   4.003   5.553   6.915 -0.1767  0.3335  0.6039
  167SOPE   C2718802   3.963   5.409   7.077  0.5254 -0.3091  0.2617
  167SOPE   H7R18803   3.903   5.318   7.101 -1.7104  1.6978  2.9591
  167SOPE   H7S18804   4.072   5.385   7.075  0.5946  0.0309 -0.7308
  167SOPE   C2818805   3.949   5.517   7.188 -0.4883 -0.3755  0.4015
  167SOPE   H8R18806   4.032   5.508   7.262  0.1082  3.1373  0.3155
  167SOPE   H8S18807   3.958   5.620   7.148 -1.9467  0.5478  2.3118
  167SOPE   C2918808   3.820   5.495   7.266  0.3586  0.1611  0.2165
  167SOPE   H9118809   3.730   5.466   7.210 -0.0129  0.1387  0.8125
  167SOPE  C21018810   3.801   5.511   7.403 -0.2534  0.4762  0.7796
  167SOPE  H10118811   3.708   5.499   7.461  0.4157  1.0593  2.0031
  167SOPE  C21118812   3.913   5.554   7.500  0.0262  0.3379 -0.2171
  167SOPE  H11R18813   3.939   5.661   7.485  2.9600 -0.2371  0.1096
  167SOPE  H11S18814   4.000   5.490   7.474 -0.3707  0.0414 -0.8246
  167SOPE  C21218815   3.891   5.529   7.650  0.1364 -1.2256  0.3951
  167SOPE  H12R18816   3.879   5.422   7.676 -0.7172 -1.0821  0.6302
  167SOPE  H12S18817   3.803   5.587   7.687  1.5801  0.8805  0.7025
  167SOPE  C21318818   4.011   5.574   7.728 -0.3689  0.0721 -0.0110
  167SOPE  H13R18819   4.021   5.684   7.729  2.8936 -0.1282 -0.3185
  167SOPE  H13S18820   4.100   5.527   7.681  0.3196  0.8193  0.5233
  167SOPE  C21418821   4.010   5.541   7.877  0.1876 -0.0372  0.6060
  167SOPE  H14R18822   4.109   5.563   7.924  2.3193 -2.1856 -2.4394
  167SOPE  H14S18823   3.991   5.435   7.904  0.6828  0.1396  1.7259
  167SOPE  C21518824   3.903   5.618   7.961  0.2463  0.5815 -0.1412
  167SOPE  H15R18825   3.797   5.600   7.933  0.1167  1.4154 -0.2195
  167SOPE  H15S18826   3.929   5.724   7.939  0.2708  0.4520 -0.7566
  167SOPE  C21618827   3.910   5.589   8.119  0.0305 -0.1474  0.7650
  167SOPE  H16R18828   4.004   5.640   8.148 -0.4347  2.4362 -1.8104
  167SOPE  H16S18829   3.904   5.481   8.144 -4.6690 -0.8462 -2.1155
  167SOPE  C21718830   3.795   5.647   8.191 -0.0267 -0.1130  0.0143
  167SOPE  H17R18831   3.712   5.576   8.171 -1.5516  1.4752  0.3998
  167SOPE  H17S18832   3.763   5.747   8.154 -0.8256  0.5872  2.3777
  167SOPE  C21818833   3.804   5.665   8.345 -0.4081 -0.4745  0.3732
  167SOPE  H18R18834   3.904   5.708   8.367  0.0527 -1.6162  0.6262
  167SOPE  H18S18835   3.802   5.567   8.399  1.0812  0.3808  2.1063
  167SOPE  H18T18836   3.724   5.731   8.385  0.2601  0.4196  0.2660
  167SOPE   C3318837   3.244   5.558   7.101 -0.3910 -0.0091  0.1543
  167SOPE   H3X18838   3.202   5.470   7.155 -1.2769 -0.0652 -0.6024
  167SOPE   H3Y18839   3.176   5.640   7.134 -1.0888 -0.4456 -0.1857
  167SOPE   C3418840   3.384   5.586   7.163  0.2319  0.1739  0.5428
  167SOPE   H4X18841   3.409   5.693   7.173  0.3770  0.1560  0.3791
  167SOPE   H4Y18842   3.450   5.540   7.087 -1.1115  0.9957 -1.2098
  167SOPE   C3518843   3.409   5.520   7.302  0.2962 -0.3509  0.3286
  167SOPE   H5X18844   3.515   5.499   7.325 -0.1393 -1.4044  1.4622
  167SOPE   H5Y18845   3.348   5.428   7.314 -0.7166  0.5668  2.8735
  167SOPE   C3618846   3.354   5.620   7.413  0.4153 -0.1468  0.0817
  167SOPE   H6X18847   3.253   5.665   7.396  0.5490 -0.0513 -0.4831
  167SOPE   H6Y18848   3.419   5.710   7.405  3.4104 -2.0622  1.1960
  167SOPE   C3718849   3.356   5.562   7.553 -0.1971 -0.0716  0.8173
  167SOPE   H7X18850   3.457   5.520   7.573  0.8395  1.2371 -1.3926
  167SOPE   H7Y18851   3.284   5.478   7.567 -0.5573 -0.1413 -1.1649
  167SOPE   C3818852   3.335   5.667   7.663  0.1639  0.7239 -0.6109
  167SOPE   H8X18853   3.228   5.693   7.678  0.1377  0.2020  0.2034
  167SOPE   H8Y18854   3.385   5.763   7.637 -2.5983  1.9783 -1.7049
  167SOPE   C3918855   3.389   5.610   7.798 -0.1016 -0.3294  0.6597
  167SOPE   H9X18856   3.492   5.569   7.787  0.0183  0.2097 -0.3331
  167SOPE   H9Y18857   3.324   5.526   7.832 -0.4551 -0.8932 -1.3198
  167SOPE  C31018858   3.371   5.710   7.916  0.0460  1.2038 -0.1237
  167SOPE  H10X18859   3.263   5.713   7.940 -0.1739  3.0589 -1.1098
  167SOPE  H10Y18860   3.402   5.811   7.881 -1.6067  1.1785 -1.8260
  167SOPE  C31118861   3.445   5.674   8.045  0.4314 -0.6196  0.2242
  167SOPE  H11X18862   3.554   5.687   8.033  0.3413 -1.4717 -2.1251
  167SOPE  H11Y18863   3.424   5.569   8.073  1.6681 -0.8959  0.1500
  167SOPE  C31218864   3.408   5.770   8.162 -0.3261  0.0226  0.3532
  167SOPE  H12X18865   3.457   5.721   8.249 -0.8766 -1.2133 -0.0106
  167SOPE  H12Y18866   3.298   5.765   8.171 -0.1944 -0.5861  2.0512
  167SOPE  C31318867   3.455   5.916   8.149 -0.6370  0.5449 -0.1989
  167SOPE  H13X18868   3.391   5.959   8.229 -1.2333  0.5114 -0.6535
  167SOPE  H13Y18869   3.431   5.956   8.048 -3.3676  0.2540  0.2527
  167SOPE  C31418870   3.600   5.949   8.199 -0.2244  0.7278  0.0560
  167SOPE  H14X18871   3.670   5.902   8.127 -2.7616 -3.1292 -0.2190
  167SOPE  H14Y18872   3.610   5.910   8.302  0.2799 -0.0124 -0.2593
  167SOPE  C31518873   3.612   6.097   8.202  0.1242  0.5740  0.2907
  167SOPE  H15X18874   3.514   6.147   8.217 -0.3129  1.4761 -4.1622
  167SOPE  H15Y18875   3.654   6.150   8.114 -1.5016  2.4999  0.5998
  167SOPE  C31618876   3.701   6.123   8.329  0.1838  0.2142  0.3288
  167SOPE  H16X18877   3.807   6.113   8.298 -0.6937 -0.7341 -2.7380
  167SOPE  H16Y18878   3.666   6.055   8.409 -1.5840  0.6347 -0.0283
  167SOPE  C31718879   3.685   6.275   8.376 -0.1509 -0.0431 -0.5052
  167SOPE  H17X18880   3.576   6.290   8.391  0.1167  0.1701  1.4805
  167SOPE  H17Y18881   3.727   6.344   8.301  1.2686 -0.0096  0.2901
  167SOPE  C31818882   3.757   6.294   8.509  0.1585 -0.2129 -0.2382
  167SOPE  H18X18883   3.866   6.302   8.489  0.1287 -1.6162 -1.0712
  167SOPE  H18Y18884   3.744   6.201   8.568 -0.2559  0.6681  1.1099
  167SOPE  H18Z18885   3.728   6.387   8.562 -1.0630 -0.5197 -0.3564
  168SOPE     N18886   3.824   1.654   6.005 -0.1708  0.3673 -0.1727
  168SOPE   HN118887   3.755   1.657   5.927 -4.0782 -2.0337  2.7889
  168SOPE   HN218888   3.915   1.686   5.966 -0.3489 -0.3765 -1.2244
  168SOPE   HN318889   3.840   1.558   6.040  0.5667  0.1305 -1.1287
  168SOPE   C1218890   3.791   1.745   6.123 -0.6947  0.0577  0.3296
  168SOPE  H12A18891   3.698   1.693   6.154 -1.0906 -0.6792 -1.8707
  168SOPE  H12B18892   3.771   1.848   6.087 -0.0432  1.2254  3.0958
  168SOPE   C1118893   3.911   1.740   6.220  0.3654 -0.4571  0.1554
  168SOPE  H11A18894   3.931   1.637   6.254 -1.5257 -1.8420 -2.5362
  168SOPE  H11B18895   3.879   1.787   6.316  1.4066 -2.5770  1.6283
  168SOPE     P18896   4.172   1.791   6.224 -0.1208 -0.0339  0.4241
  168SOPE   O1318897   4.269   1.879   6.149 -0.1782  0.0582 -0.9394
  168SOPE   O1418898   4.207   1.648   6.213  0.5193 -0.1532  0.2542
  168SOPE   O1218899   4.024   1.809   6.166  0.3818  0.2802 -0.0534
  168SOPE   O1118900   4.163   1.818   6.378 -0.7273  0.0312  0.3147
  168SOPE    C118901   4.105   1.943   6.422 -0.2047  0.8184  0.3564
  168SOPE    HA18902   4.033   1.918   6.503 -0.6623  0.7333 -0.0723
  168SOPE    HB18903   4.040   1.991   6.345  0.5060  1.6178  0.2347
  168SOPE    C218904   4.213   2.045   6.478 -0.7415 -0.4081 -0.4286
  168SOPE    HS18905   4.300   2.045   6.409  0.1181 -0.8781  0.6279
  168SOPE   O2118906   4.262   1.986   6.598  0.3955  0.1455  0.4062
  168SOPE   C2118907   4.375   2.042   6.642 -0.0106  0.1454  0.8829
  168SOPE   O2218908   4.435   2.131   6.584  0.1577 -0.1769  0.0492
  168SOPE   C2218909   4.420   1.980   6.775 -0.1167  0.4634 -0.4050
  168SOPE   H2R18910   4.519   2.030   6.785 -1.3354  2.6986  1.6845
  168SOPE   H2S18911   4.410   1.870   6.764 -0.6857  0.3250  1.3105
  168SOPE    C318912   4.156   2.190   6.513  0.4798  0.1760 -0.0233
  168SOPE    HX18913   4.102   2.225   6.423 -2.3088 -0.3069  1.3261
  168SOPE    HY18914   4.243   2.259   6.516  0.9459 -0.3648 -0.8884
  168SOPE   O3118915   4.083   2.198   6.636  0.0361  0.0516  0.0151
  168SOPE   C3118916   3.953   2.174   6.626  0.0681  0.4639  0.0948
  168SOPE   O3218917   3.893   2.130   6.526  0.0159 -0.2358 -0.3519
  168SOPE   C3218918   3.890   2.218   6.760 -0.8813 -0.1105 -0.0905
  168SOPE   H2X18919   3.783   2.189   6.750 -0.6466 -1.9669  1.9649
  168SOPE   H2Y18920   3.901   2.328   6.771 -0.0842 -0.1454 -0.4381
  168SOPE   C2318921   4.334   2.031   6.889  0.9047 -0.7805  0.1374
  168SOPE   H3R18922   4.230   1.992   6.877 -0.1167  1.7152  0.1718
  168SOPE   H3S18923   4.316   2.141   6.893 -1.0884 -1.1094  2.2374
  168SOPE   C2418924   4.380   1.998   7.026 -0.6483  0.1075  0.6059
  168SOPE   H4R18925   4.478   2.048   7.037 -0.5973 -0.1899  1.6216
  168SOPE   H4S18926   4.315   2.047   7.102  1.5430  1.3296  1.7928
  168SOPE   C2518927   4.382   1.848   7.052  0.4367 -0.3517 -0.7165
  168SOPE   H5R18928   4.286   1.811   7.012 -0.5595  0.7014  0.6033
  168SOPE   H5S18929   4.467   1.796   7.004  0.2334 -1.5173  0.1337
  168SOPE   C2618930   4.396   1.823   7.206 -0.2647  0.0782  0.1016
  168SOPE   H6R18931   4.307   1.866   7.256 -0.6609  1.3696 -1.6038
  168SOPE   H6S18932   4.395   1.712   7.209  2.4005 -0.0752 -1.4123
  168SOPE   C2718933   4.530   1.875   7.259  0.7413  0.5144 -0.3898
  168SOPE   H7R18934   4.614   1.821   7.210  0.0932 -0.4767 -0.4358
  168SOPE   H7S18935   4.542   1.985   7.252 -1.2439  0.8522  0.8587
  168SOPE   C2818936   4.537   1.856   7.410  0.0386  0.1302 -0.0625
  168SOPE   H8R18937   4.630   1.900   7.454 -0.2012 -2.1027  2.9973
  168SOPE   H8S18938   4.457   1.918   7.454 -1.8436 -1.7715 -0.6554
  168SOPE   C2918939   4.514   1.708   7.440  0.2238  0.2557 -0.5037
  168SOPE   H9118940   4.583   1.634   7.398 -1.4002 -0.9224 -1.2376
  168SOPE  C21018941   4.417   1.656   7.523  0.4976  0.0561  0.0915
  168SOPE  H10118942   4.404   1.547   7.535 -0.5756  0.1035 -0.4585
  168SOPE  C21118943   4.317   1.732   7.597 -0.1746 -0.6534 -0.5111
  168SOPE  H11R18944   4.213   1.728   7.558 -0.9499 -1.4300  1.4864
  168SOPE  H11S18945   4.345   1.839   7.604 -0.7918 -0.5462  0.6942
  168SOPE  C21218946   4.313   1.693   7.746 -0.2544  0.2529 -0.0650
  168SOPE  H12R18947   4.287   1.585   7.743  2.2680 -0.5396  2.0098
  168SOPE  H12S18948   4.229   1.748   7.793 -1.2650  1.6683 -3.2552
  168SOPE  C21318949   4.451   1.730   7.820  0.4336  0.7730  0.0899
  168SOPE  H13R18950   4.497   1.806   7.755  1.0584  0.4445  0.1369
  168SOPE  H13S18951   4.519   1.643   7.814  0.6041  1.0070 -1.8992
  168SOPE  C21418952   4.438   1.773   7.968  0.0860  0.3668  0.4388
  168SOPE  H14R18953   4.418   1.881   7.985  0.1754  0.4465  0.0486
  168SOPE  H14S18954   4.541   1.753   8.006 -0.4957 -2.3619  0.8245
  168SOPE  C21518955   4.340   1.687   8.045 -0.2879  0.9973 -0.2097
  168SOPE  H15R18956   4.350   1.578   8.030 -3.0653  0.6574 -0.0482
  168SOPE  H15S18957   4.233   1.707   8.022 -0.5373  1.8235  1.5450
  168SOPE  C21618958   4.345   1.727   8.199  0.2054  0.1678  0.3202
  168SOPE  H16R18959   4.245   1.722   8.247 -0.0967  1.0708 -0.1832
  168SOPE  H16S18960   4.382   1.831   8.211  0.7278  0.7562 -4.3970
  168SOPE  C21718961   4.448   1.624   8.268 -0.2013  0.0462 -0.0774
  168SOPE  H17R18962   4.549   1.666   8.254 -0.6093  2.0214  2.3049
  168SOPE  H17S18963   4.444   1.526   8.216  2.2325 -1.6181  2.6029
  168SOPE  C21818964   4.441   1.618   8.422 -0.0898  0.1576 -0.0500
  168SOPE  H18R18965   4.500   1.697   8.472 -0.1906 -1.5934  3.0712
  168SOPE  H18S18966   4.494   1.529   8.460  1.2462  1.9106  2.4905
  168SOPE  H18T18967   4.340   1.620   8.468  0.4732  1.0383  1.2122
  168SOPE   C3318968   3.949   2.155   6.885 -0.1045 -0.0316 -0.6966
  168SOPE   H3X18969   3.897   2.199   6.972 -1.5624 -0.8049 -1.1472
  168SOPE   H3Y18970   4.055   2.187   6.892 -0.5284  1.1354  0.9568
  168SOPE   C3418971   3.936   2.001   6.883  0.2103 -0.3820  0.6210
  168SOPE   H4X18972   3.981   1.948   6.797 -2.1595 -2.9844  0.8565
  168SOPE   H4Y18973   3.828   1.977   6.880  0.4350 -1.7589  2.3024
  168SOPE   C3518974   3.973   1.936   7.014 -0.4110  0.0482  0.4286
  168SOPE   H5X18975   4.084   1.930   7.021 -0.2990  0.6992 -0.5252
  168SOPE   H5Y18976   3.955   1.827   7.005 -1.1395  0.2070 -0.1807
  168SOPE   C3618977   3.906   1.993   7.137  0.1230 -0.1648 -0.4051
  168SOPE   H6X18978   3.798   1.974   7.124  0.4244 -3.5654  1.0850
  168SOPE   H6Y18979   3.926   2.102   7.145  0.3426 -0.1595 -1.0034
  168SOPE   C3718980   3.963   1.915   7.257 -0.1578 -0.0998  0.1207
  168SOPE   H7X18981   4.069   1.939   7.277 -0.0490 -0.6283  0.1759
  168SOPE   H7Y18982   3.958   1.805   7.247 -0.1932  0.0704 -2.3401
  168SOPE   C3818983   3.897   1.965   7.391  0.4462 -0.0068  0.8284
  168SOPE   H8X18984   3.787   1.952   7.379  0.4397  0.1348  0.7329
  168SOPE   H8Y18985   3.923   2.071   7.407 -0.8881  0.3984  0.4227
  168SOPE   C3918986   3.937   1.886   7.517 -0.3956 -0.2256  0.2417
  168SOPE   H9X18987   4.047   1.879   7.526 -0.1639  0.8352 -1.3209
  168SOPE   H9Y18988   3.899   1.782   7.501  1.5384 -0.6977 -1.7805
  168SOPE  C31018989   3.865   1.932   7.644  0.0492  0.3364 -0.2435
  168SOPE  H10X18990   3.755   1.939   7.642 -0.1113 -0.5620  2.1901
  168SOPE  H10Y18991   3.907   2.031   7.672  1.0485 -0.1791  0.1457
  168SOPE  C31118992   3.914   1.862   7.772  0.2134 -0.0012  0.6036
  168SOPE  H11X18993   4.025   1.876   7.776  0.4055  0.9300 -3.5911
  168SOPE  H11Y18994   3.902   1.752   7.767  1.2099 -0.1176  0.3875
  168SOPE  C31218995   3.845   1.915   7.897  0.6694 -0.2430  0.3134
  168SOPE  H12X18996   3.742   1.874   7.907 -1.3897  3.9210 -1.4049
  168SOPE  H12Y18997   3.826   2.024   7.894 -0.8674 -0.5007 -0.6874
  168SOPE  C31318998   3.920   1.875   8.025  0.2295  0.2256 -0.2238
  168SOPE  H13X18999   4.000   1.949   8.048  0.5090 -0.3558  0.7048
  168SOPE  H13Y19000   3.955   1.773   7.999 -2.7611 -0.4302 -2.1773
  168SOPE  C31419001   3.836   1.870   8.160 -0.8508 -0.1484 -1.3638
  168SOPE  H14X19002   3.742   1.814   8.144 -1.8406  1.4141 -1.2593
  168SOPE  H14Y19003   3.801   1.966   8.205 -0.3067 -1.1621  1.4728
  168SOPE  C31519004   3.913   1.811   8.281  0.1158 -0.1691 -0.1575
  168SOPE  H15X19005   4.004   1.871   8.301 -1.2575  1.3161  2.1578
  168SOPE  H15Y19006   3.945   1.706   8.263  3.0293  0.5047  0.6792
  168SOPE  C31619007   3.826   1.823   8.413 -0.1808 -0.0672  0.1546
  168SOPE  H16X19008   3.770   1.726   8.418  0.7579 -0.7239 -1.5001
  168SOPE  H16Y19009   3.759   1.911   8.404 -1.3551 -0.8845  0.6109
  168SOPE  C31719010   3.922   1.827   8.533 -0.1773  0.0501  0.8646
  168SOPE  H17X19011   3.994   1.910   8.521 -0.3254  0.0111 -0.3925
  168SOPE  H17Y19012   3.983   1.734   8.525 -1.8827 -1.0437 -0.1440
  168SOPE  C31819013   3.856   1.821   8.665 -0.0628  0.1227 -0.7269
  168SOPE  H18X19014   3.933   1.800   8.742 -0.4419 -0.5897 -0.5342
  168SOPE  H18Y19015   3.779   1.740   8.668  1.0069 -0.9098 -0.5357
  168SOPE  H18Z19016   3.803   1.917   8.687 -1.2897 -0.6725 -0.0945
  169SOPE     N19017   5.741   5.746   6.287  0.1070 -0.8920 -0.0782
  169SOPE   HN119018   5.790   5.769   6.198 -0.2130  0.5511  0.0921
  169SOPE   HN219019   5.800   5.761   6.371 -1.4926 -1.1666  1.1215
  169SOPE   HN319020   5.709   5.649   6.304 -1.1918 -0.8414 -1.9160
  169SOPE   C1219021   5.623   5.837   6.309 -0.1166  0.8321  0.5705
  169SOPE  H12A19022   5.577   5.837   6.207 -0.0157 -3.0846  0.3770
  169SOPE  H12B19023   5.662   5.936   6.340  1.0788  0.4052  0.4615
  169SOPE   C1119024   5.519   5.776   6.408 -0.2956  0.2983 -0.3083
  169SOPE  H11A19025   5.436   5.850   6.415 -0.6841 -0.0022 -1.4721
  169SOPE  H11B19026   5.552   5.766   6.514 -0.9889 -0.2595 -0.1390
  169SOPE     P19027   5.507   5.515   6.425 -0.1613 -0.2454  0.3698
  169SOPE   O1319028   5.646   5.490   6.370 -0.3540 -0.2954 -0.1210
  169SOPE   O1419029   5.404   5.416   6.403  0.1219 -0.4667  0.1655
  169SOPE   O1219030   5.463   5.653   6.362 -0.4193 -0.2039 -1.0465
  169SOPE   O1119031   5.508   5.535   6.578 -0.0006 -0.5080 -0.0382
  169SOPE    C119032   5.619   5.510   6.657 -0.1902  0.1606 -0.1153
  169SOPE    HA19033   5.614   5.551   6.761  3.5795 -2.8207  1.4922
  169SOPE    HB19034   5.715   5.544   6.612  0.3584 -0.2824  0.6776
  169SOPE    C219035   5.651   5.357   6.685  0.2602 -0.6424  0.0529
  169SOPE    HS19036   5.674   5.311   6.587  2.9112 -0.7102  0.6293
  169SOPE   O2119037   5.539   5.296   6.738  0.4123 -0.2951 -0.0094
  169SOPE   C2119038   5.536   5.161   6.728  0.6527 -0.3746  0.5739
  169SOPE   O2219039   5.628   5.096   6.678 -0.0515  0.4943 -0.4159
  169SOPE   C2219040   5.410   5.098   6.796  0.6012  0.1275  0.0014
  169SOPE   H2R19041   5.326   5.128   6.730  0.4497 -0.8152 -0.2482
  169SOPE   H2S19042   5.402   5.140   6.899  0.0772 -0.0099  0.0212
  169SOPE    C319043   5.781   5.337   6.770  0.5008 -0.5379 -0.1004
  169SOPE    HX19044   5.856   5.381   6.700 -0.0965 -2.6408 -2.1905
  169SOPE    HY19045   5.808   5.229   6.768  0.6998 -0.6050  2.5919
  169SOPE   O3119046   5.787   5.393   6.905  0.3024 -0.5875  0.1346
  169SOPE   C3119047   5.729   5.317   6.995  0.1416  0.6106 -0.0153
  169SOPE   O3219048   5.673   5.209   6.975  0.9953  0.1734 -0.0449
  169SOPE   C3219049   5.725   5.393   7.132 -0.3912 -0.3906  0.4047
  169SOPE   H2X19050   5.814   5.458   7.136  0.4299 -1.3563 -1.2536
  169SOPE   H2Y19051   5.714   5.316   7.212 -2.1962 -1.5039 -0.8357
  169SOPE   C2319052   5.413   4.942   6.782  0.4877  0.0175 -0.1124
  169SOPE   H3R19053   5.511   4.894   6.804  0.4277  0.1890  0.5396
  169SOPE   H3S19054   5.394   4.926   6.674 -3.0873  2.4172  0.0079
  169SOPE   C2419055   5.310   4.875   6.867 -1.2550 -0.2872 -0.5406
  169SOPE   H4R19056   5.343   4.770   6.859  1.5525  0.4336  0.1746
  169SOPE   H4S19057   5.325   4.920   6.967  0.8999  3.6012 -2.3441
  169SOPE   C2519058   5.168   4.880   6.806 -0.2659 -0.2677  0.1099
  169SOPE   H5R19059   5.142   4.986   6.790 -0.0491 -0.6347 -3.7139
  169SOPE   H5S19060   5.179   4.833   6.706  1.3161 -0.0792  0.1676
  169SOPE   C2619061   5.065   4.800   6.892 -0.5926 -0.0546 -1.0773
  169SOPE   H6R19062   4.958   4.820   6.872 -1.2606  0.3566  2.2514
  169SOPE   H6S19063   5.078   4.690   6.879  0.6404 -0.0253 -0.2997
  169SOPE   C2719064   5.070   4.845   7.039 -0.4453  0.1810  0.1846
  169SOPE   H7R19065   5.171   4.829   7.084  0.1344  2.3053 -0.2635
  169SOPE   H7S19066   5.052   4.954   7.051  0.8375  0.7487 -2.2981
  169SOPE   C2819067   4.969   4.761   7.127 -0.0689 -0.2071 -0.4710
  169SOPE   H8R19068   4.979   4.656   7.092 -1.1694 -0.4978  0.0497
  169SOPE   H8S19069   4.986   4.746   7.236  0.4043 -1.2759 -0.6784
  169SOPE   C2919070   4.834   4.825   7.121 -0.0363 -0.5204 -0.4650
  169SOPE   H9119071   4.775   4.809   7.029 -1.4307 -1.8610  0.6057
  169SOPE  C21019072   4.784   4.920   7.203 -0.0853  0.2206  0.2189
  169SOPE  H10119073   4.688   4.966   7.177 -0.5759 -0.7668  0.2593
  169SOPE  C21119074   4.838   4.975   7.327 -0.1638  0.3561  0.4081
  169SOPE  H11R19075   4.845   5.086   7.319 -2.6233  0.4958 -0.4010
  169SOPE  H11S19076   4.942   4.939   7.347 -0.5955 -1.4778 -0.4952
  169SOPE  C21219077   4.760   4.942   7.453  0.4578  0.2483  0.0612
  169SOPE  H12R19078   4.720   4.839   7.441 -1.6477  1.2197 -1.9956
  169SOPE  H12S19079   4.674   5.011   7.465 -1.0159 -1.7393  1.7096
  169SOPE  C21319080   4.842   4.958   7.580  0.5739 -0.0276  0.4050
  169SOPE  H13R19081   4.867   5.064   7.599  0.6894  0.4131 -1.9804
  169SOPE  H13S19082   4.942   4.914   7.562  0.2989  0.0364 -1.5229
  169SOPE  C21419083   4.774   4.891   7.701  0.1123 -0.1563 -0.7962
  169SOPE  H14R19084   4.774   4.780   7.695 -0.0329 -0.3449  1.6887
  169SOPE  H14S19085   4.669   4.927   7.710 -0.0097 -0.5765 -0.5373
  169SOPE  C21519086   4.854   4.920   7.829 -0.3978 -0.3650 -0.1289
  169SOPE  H15R19087   4.895   5.024   7.832  0.2755 -0.6296  0.3369
  169SOPE  H15S19088   4.945   4.857   7.823  0.1191  0.4299 -1.0016
  169SOPE  C21619089   4.773   4.901   7.962  0.5542 -1.0655  0.1581
  169SOPE  H16R19090   4.729   4.800   7.949 -0.6862 -0.8072  2.0374
  169SOPE  H16S19091   4.694   4.978   7.975  1.8779  0.5560 -1.0475
  169SOPE  C21719092   4.863   4.902   8.089 -0.6648 -0.4557  0.4679
  169SOPE  H17R19093   4.952   4.966   8.071  0.0025 -1.5692 -0.2774
  169SOPE  H17S19094   4.893   4.796   8.097 -1.9010 -0.9793 -1.3276
  169SOPE  C21819095   4.793   4.939   8.222  0.2640 -0.4991 -0.0720
  169SOPE  H18R19096   4.871   4.958   8.298  0.6436  1.0325 -0.8198
  169SOPE  H18S19097   4.728   4.853   8.247  0.2446  0.3678  3.2899
  169SOPE  H18T19098   4.734   5.033   8.213  0.1767 -0.6031 -0.6595
  169SOPE   C3319099   5.605   5.486   7.146  0.5858  0.0649 -0.0451
  169SOPE   H3X19100   5.512   5.431   7.119  0.0741  0.3747  1.0473
  169SOPE   H3Y19101   5.611   5.573   7.077  1.2642 -0.9153 -1.2536
  169SOPE   C3419102   5.577   5.529   7.291  0.0436 -0.1477  0.3019
  169SOPE   H4X19103   5.641   5.619   7.304  0.5837 -0.1700 -1.7995
  169SOPE   H4Y19104   5.602   5.446   7.360 -0.3451 -0.8589 -0.3992
  169SOPE   C3519105   5.428   5.570   7.311 -1.0848 -0.1812 -0.1083
  169SOPE   H5X19106   5.390   5.493   7.383 -0.2100  1.2826  2.0270
  169SOPE   H5Y19107   5.368   5.566   7.218 -1.3642 -3.0645  0.1084
  169SOPE   C3619108   5.413   5.710   7.386 -0.7156 -0.2909 -0.3119
  169SOPE   H6X19109   5.407   5.779   7.299 -1.2780 -1.7117 -1.4557
  169SOPE   H6Y19110   5.499   5.731   7.454 -0.6332  2.7658 -1.2138
  169SOPE   C3719111   5.287   5.708   7.466  0.3033  0.3000 -0.3780
  169SOPE   H7X19112   5.209   5.664   7.401 -1.3834  0.5446  1.3849
  169SOPE   H7Y19113   5.240   5.806   7.489  0.5564  0.6059 -1.1550
  169SOPE   C3819114   5.302   5.623   7.597 -0.0114  0.3822  0.2742
  169SOPE   H8X19115   5.333   5.517   7.597 -1.0181  0.0719  0.9156
  169SOPE   H8Y19116   5.381   5.672   7.658  0.6034  1.4238 -1.2831
  169SOPE   C3919117   5.162   5.614   7.670 -0.1226 -0.0994 -0.6606
  169SOPE   H9X19118   5.088   5.554   7.611 -1.6662  0.8140  0.2877
  169SOPE   H9Y19119   5.127   5.719   7.667 -0.2427 -0.1307 -0.3898
  169SOPE  C31019120   5.171   5.576   7.822  0.4669  0.2981 -0.2098
  169SOPE  H10X19121   5.069   5.573   7.867  0.3468  2.1188 -0.3025
  169SOPE  H10Y19122   5.234   5.650   7.876 -1.3123  0.6174  1.5783
  169SOPE  C31119123   5.231   5.428   7.827  0.3174 -0.6524 -0.4324
  169SOPE  H11X19124   5.330   5.428   7.777  0.2413  0.2010 -0.6053
  169SOPE  H11Y19125   5.168   5.357   7.770 -0.8457 -0.2762  0.3561
  169SOPE  C31219126   5.256   5.375   7.964  0.0186 -0.2078  0.1772
  169SOPE  H12X19127   5.160   5.375   8.020  0.8272  0.9920  1.6203
  169SOPE  H12Y19128   5.336   5.434   8.013 -0.6676  1.3211 -0.4723
  169SOPE  C31319129   5.307   5.230   7.957  0.7163 -0.0210  0.0589
  169SOPE  H13X19130   5.391   5.226   7.885  0.7316 -1.8484  0.1235
  169SOPE  H13Y19131   5.226   5.161   7.923  2.0195 -0.4859 -2.3326
  169SOPE  C31419132   5.360   5.184   8.093 -0.2348  0.2285 -0.4181
  169SOPE  H14X19133   5.281   5.175   8.170 -0.1675 -3.4248 -0.6117
  169SOPE  H14Y19134   5.434   5.259   8.127  0.3827 -0.1769 -0.8519
  169SOPE  C31519135   5.433   5.047   8.080  0.1728 -0.5524 -0.2107
  169SOPE  H15X19136   5.489   5.038   7.985  2.1102 -0.6800  0.8778
  169SOPE  H15Y19137   5.351   4.974   8.062 -0.7671  0.0863  1.2812
  169SOPE  C31619138   5.507   5.009   8.203  0.3969  0.4427  0.0827
  169SOPE  H16X19139   5.443   5.012   8.294 -1.6336  0.8151 -1.2753
  169SOPE  H16Y19140   5.590   5.081   8.221 -1.3177  2.4840  0.2930
  169SOPE  C31719141   5.550   4.857   8.194  0.0988  0.7090 -0.3630
  169SOPE  H17X19142   5.596   4.855   8.092  1.9816  2.8969  0.3508
  169SOPE  H17Y19143   5.472   4.779   8.183  1.2355 -0.6610  0.9223
  169SOPE  C31819144   5.658   4.814   8.287  0.0399  0.7593  0.1858
  169SOPE  H18X19145   5.679   4.706   8.275 -3.5103  0.1220 -1.7663
  169SOPE  H18Y19146   5.623   4.817   8.392  1.0850 -2.8862  0.7641
  169SOPE  H18Z19147   5.752   4.870   8.269  0.1529 -0.3122 -3.3098
  170SOPE     N19148   4.520   4.206   6.302  0.3691 -0.4372  0.0900
  170SOPE   HN119149   4.568   4.270   6.236  0.6057  3.2306  3.4106
  170SOPE   HN219150   4.541   4.107   6.282  0.3106 -0.4392  0.0399
  170SOPE   HN319151   4.417   4.221   6.299  0.7231  2.4111 -1.2088
  170SOPE   C1219152   4.553   4.240   6.448 -0.0094  0.7608  0.3195
  170SOPE  H12A19153   4.497   4.335   6.465 -0.1824  0.7204 -0.0209
  170SOPE  H12B19154   4.663   4.250   6.456  0.3222 -2.4042  1.3382
  170SOPE   C1119155   4.498   4.140   6.554 -0.1054 -0.1297  0.5737
  170SOPE  H11A19156   4.387   4.134   6.547 -0.0067 -1.3967 -0.1539
  170SOPE  H11B19157   4.520   4.185   6.653 -0.6065 -1.1300  1.1482
  170SOPE     P19158   4.499   3.888   6.588 -0.2552  0.1693  0.0973
  170SOPE   O1319159   4.570   3.766   6.549 -0.3754  0.0169  0.2765
  170SOPE   O1419160   4.356   3.880   6.560  0.6764 -0.3857  0.1057
  170SOPE   O1219161   4.554   4.012   6.514 -0.1358 -0.3269  0.8360
  170SOPE   O1119162   4.524   3.906   6.741  0.4638 -0.2438  0.2764
  170SOPE    C119163   4.656   3.941   6.786 -0.5301  0.0333 -0.5462
  170SOPE    HA19164   4.639   3.990   6.884  0.2837 -4.4558  2.1502
  170SOPE    HB19165   4.726   4.003   6.725  2.4549  0.6003  3.0348
  170SOPE    C219166   4.738   3.809   6.814 -0.7755  0.0119  0.4240
  170SOPE    HS19167   4.755   3.759   6.715  3.4587  0.0899  0.9533
  170SOPE   O2119168   4.657   3.731   6.903 -0.1806  0.4361  0.3966
  170SOPE   C2119169   4.697   3.610   6.926  0.1252 -0.0630 -0.6559
  170SOPE   O2219170   4.799   3.560   6.880  0.4182  0.0510  0.2650
  170SOPE   C2219171   4.598   3.543   7.025 -0.9074  0.4937  0.3478
  170SOPE   H2R19172   4.522   3.506   6.953  1.1377  0.1059 -1.7256
  170SOPE   H2S19173   4.545   3.608   7.097  1.2739  0.2068  2.3527
  170SOPE    C319174   4.882   3.837   6.865  0.6057  0.1322  0.4212
  170SOPE    HX19175   4.938   3.895   6.788  0.5898  0.9043  0.9755
  170SOPE    HY19176   4.940   3.743   6.873 -0.5114 -0.5306  0.9327
  170SOPE   O3119177   4.888   3.926   6.979 -0.4923 -0.2741  0.2732
  170SOPE   C3119178   4.899   3.862   7.095  1.0646  0.0524 -0.3890
  170SOPE   O3219179   4.910   3.740   7.099 -0.6736 -0.5135 -0.5181
  170SOPE   C3219180   4.889   3.965   7.202 -0.5497 -0.1666 -0.1318
  170SOPE   H2X19181   4.786   4.008   7.205 -0.3041  0.4449 -0.6093
  170SOPE   H2Y19182   4.975   4.034   7.194 -0.2317 -0.5651 -0.2176
  170SOPE   C2319183   4.655   3.427   7.109 -0.0896  0.3133  0.0368
  170SOPE   H3R19184   4.737   3.371   7.059 -2.4257 -2.3997 -1.0552
  170SOPE   H3S19185   4.568   3.359   7.122 -1.2313  1.7509  0.2189
  170SOPE   C2419186   4.700   3.455   7.251 -0.2128  0.5869 -0.0031
  170SOPE   H4R19187   4.694   3.363   7.313  2.4361  1.6110  1.9623
  170SOPE   H4S19188   4.808   3.482   7.246 -0.3506  1.1124 -0.2519
  170SOPE   C2519189   4.630   3.561   7.331  0.3493 -0.1902 -0.3001
  170SOPE   H5R19190   4.671   3.659   7.298 -1.9040  1.0227  0.3033
  170SOPE   H5S19191   4.523   3.586   7.317  0.6914  2.7309  1.5913
  170SOPE   C2619192   4.647   3.542   7.484  0.1628  0.0786  0.1598
  170SOPE   H6R19193   4.754   3.529   7.511  0.2405 -1.3902 -0.7556
  170SOPE   H6S19194   4.607   3.637   7.526  1.4175  0.8420 -0.3213
  170SOPE   C2719195   4.567   3.426   7.544  0.0056 -0.2463 -0.2569
  170SOPE   H7R19196   4.467   3.442   7.499  0.1409 -1.5444 -1.0852
  170SOPE   H7S19197   4.587   3.323   7.509 -1.9405 -0.1982 -1.6623
  170SOPE   C2819198   4.580   3.422   7.697 -0.5130  0.2773  0.8769
  170SOPE   H8R19199   4.688   3.402   7.708 -0.0820  1.2990 -0.9502
  170SOPE   H8S19200   4.548   3.517   7.745 -2.9905  1.3711 -2.4854
  170SOPE   C2919201   4.494   3.314   7.754  0.1973  0.8798 -0.2513
  170SOPE   H9119202   4.506   3.214   7.710  1.8959  1.4551 -1.1912
  170SOPE  C21019203   4.411   3.331   7.863  0.2574 -0.4415  0.7270
  170SOPE  H10119204   4.343   3.253   7.899 -1.0122  0.9613  1.4365
  170SOPE  C21119205   4.392   3.460   7.941  0.5260  0.2771  0.2619
  170SOPE  H11R19206   4.335   3.531   7.878  3.5688  2.9100  0.1919
  170SOPE  H11S19207   4.485   3.520   7.949  0.9490 -0.3416  0.0133
  170SOPE  C21219208   4.343   3.442   8.084  0.4150 -0.7125  0.6268
  170SOPE  H12R19209   4.393   3.356   8.133 -0.9663 -0.1771  3.1736
  170SOPE  H12S19210   4.235   3.418   8.092  0.3974 -0.5166  0.9940
  170SOPE  C21319211   4.380   3.555   8.184  0.0247 -0.8642 -0.1542
  170SOPE  H13R19212   4.487   3.552   8.213 -0.2248 -0.1395  0.9003
  170SOPE  H13S19213   4.336   3.539   8.285 -1.4117 -0.4528 -0.6943
  170SOPE  C21419214   4.329   3.699   8.139 -0.2293 -0.4807  0.4581
  170SOPE  H14R19215   4.221   3.700   8.163 -0.5247 -1.2454 -0.6989
  170SOPE  H14S19216   4.341   3.698   8.028 -0.4736 -0.8708  0.4328
  170SOPE  C21519217   4.399   3.813   8.215  0.4494  0.8601 -0.3215
  170SOPE  H15R19218   4.505   3.810   8.180  0.4994  0.5275 -0.1499
  170SOPE  H15S19219   4.404   3.792   8.324 -1.2574 -0.1250 -0.4041
  170SOPE  C21619220   4.347   3.957   8.193 -0.2200 -0.5871 -0.3348
  170SOPE  H16R19221   4.349   4.000   8.296 -1.3185 -0.3303 -0.4095
  170SOPE  H16S19222   4.244   3.964   8.152 -0.7125 -2.1241  0.5459
  170SOPE  C21719223   4.436   4.041   8.101 -1.0282 -0.4827 -0.1258
  170SOPE  H17R19224   4.382   4.138   8.088 -0.1753  0.3611  2.1126
  170SOPE  H17S19225   4.435   3.991   8.002  0.1586  0.0783 -0.4363
  170SOPE  C21819226   4.579   4.065   8.136 -0.6090 -0.2172 -0.4144
  170SOPE  H18R19227   4.636   3.970   8.143 -0.3744  0.0605  2.8356
  170SOPE  H18S19228   4.584   4.123   8.230  0.5481 -1.6437  0.4525
  170SOPE  H18T19229   4.621   4.130   8.056  0.2145 -0.2602 -0.0258
  170SOPE   C3319230   4.906   3.897   7.340 -0.4785 -0.2917  0.5469
  170SOPE   H3X19231   5.002   3.841   7.335 -1.3887 -2.2538  2.9127
  170SOPE   H3Y19232   4.826   3.819   7.343 -0.8325  0.0856  1.1924
  170SOPE   C3419233   4.899   3.987   7.466  0.1491  0.1075  0.5353
  170SOPE   H4X19234   4.806   4.039   7.432 -1.9327 -3.7736 -0.2177
  170SOPE   H4Y19235   4.987   4.054   7.461 -0.6648  1.1294 -0.9886
  170SOPE   C3519236   4.877   3.909   7.600  0.1105 -0.4232 -0.6463
  170SOPE   H5X19237   4.971   3.852   7.616 -0.1872 -0.6411  0.4376
  170SOPE   H5Y19238   4.791   3.839   7.587  1.9639 -2.9098 -0.0849
  170SOPE   C3619239   4.854   3.999   7.721  0.2766 -0.5058  0.2390
  170SOPE   H6X19240   4.789   4.080   7.682  0.4891  0.4110  1.7358
  170SOPE   H6Y19241   4.953   4.041   7.750 -0.0394 -0.5901  1.5005
  170SOPE   C3719242   4.788   3.937   7.842  0.1314  0.8956 -0.1895
  170SOPE   H7X19243   4.687   3.892   7.834 -0.4157  1.4246  2.6718
  170SOPE   H7Y19244   4.781   4.017   7.919 -0.3393  1.6934 -1.0385
  170SOPE   C3819245   4.877   3.819   7.894 -0.7209  0.5899  0.8054
  170SOPE   H8X19246   4.982   3.845   7.870 -1.0442  0.1127 -1.2809
  170SOPE   H8Y19247   4.871   3.730   7.827  2.6444 -0.0907  1.2257
  170SOPE   C3919248   4.844   3.768   8.036 -0.2550  0.9232  0.1784
  170SOPE   H9X19249   4.734   3.754   8.049 -0.5956  1.2138 -1.9240
  170SOPE   H9Y19250   4.879   3.840   8.113 -0.0685 -1.1608  2.1086
  170SOPE  C31019251   4.926   3.643   8.069  0.3962  0.1083  0.1071
  170SOPE  H10X19252   5.032   3.673   8.055  0.0395  1.8445  0.8636
  170SOPE  H10Y19253   4.910   3.562   7.996  0.2626  0.1790  0.0565
  170SOPE  C31119254   4.893   3.590   8.209 -0.2033  0.1540 -0.6616
  170SOPE  H11X19255   4.796   3.537   8.209 -0.5864  0.7940  1.1649
  170SOPE  H11Y19256   4.886   3.669   8.287  0.8239  0.3811 -0.7911
  170SOPE  C31219257   4.993   3.489   8.257  0.1788  0.6116 -0.2766
  170SOPE  H12X19258   5.093   3.535   8.271  1.1482 -0.7110 -2.3498
  170SOPE  H12Y19259   5.003   3.404   8.186 -0.4144 -0.7825  1.2304
  170SOPE  C31319260   4.957   3.422   8.398  0.0500 -0.2368  0.7254
  170SOPE  H13X19261   4.852   3.384   8.392  0.7883 -2.3317  0.2085
  170SOPE  H13Y19262   4.954   3.487   8.487  1.0079  0.3106  0.3690
  170SOPE  C31419263   5.046   3.304   8.433  0.5349  0.4478 -0.6100
  170SOPE  H14X19264   5.132   3.347   8.488 -0.4106  2.3521 -0.5537
  170SOPE  H14Y19265   5.073   3.237   8.349  0.5924 -2.1441  1.3532
  170SOPE  C31519266   4.965   3.227   8.548  0.6276  0.3356  0.4277
  170SOPE  H15X19267   4.871   3.188   8.503  1.3374 -2.0575  0.8776
  170SOPE  H15Y19268   4.933   3.303   8.622 -0.8268  2.5801 -2.2912
  170SOPE  C31619269   5.056   3.119   8.609 -0.4817  0.2625  1.1039
  170SOPE  H16X19270   5.147   3.169   8.648  0.0630 -0.7793  1.2040
  170SOPE  H16Y19271   5.099   3.066   8.522 -1.3091  0.6647  0.4420
  170SOPE  C31719272   4.987   3.032   8.710 -0.0630  0.1887 -0.0682
  170SOPE  H17X19273   4.912   2.968   8.658  1.1307 -0.7459 -0.7082
  170SOPE  H17Y19274   4.936   3.102   8.779  1.9673  1.4721  0.2278
  170SOPE  C31819275   5.076   2.952   8.804 -0.2971 -0.3453 -0.2960
  170SOPE  H18X19276   5.182   2.985   8.815 -0.0643 -0.9642 -0.6093
  170SOPE  H18Y19277   5.082   2.849   8.763  1.5100 -0.0895 -0.7438
  170SOPE  H18Z19278   5.030   2.942   8.905  0.4242  0.9069  0.1768
  171SOPE     N19279   0.162   0.205   6.556 -0.3549 -0.5889  0.4329
  171SOPE   HN119280   0.143   0.211   6.658 -1.1769 -5.5628  0.8224
  171SOPE   HN219281   0.227   0.128   6.530  1.5285 -0.3191  3.8746
  171SOPE   HN319282   0.197   0.296   6.520  2.4100 -1.7012  0.0310
  171SOPE   C1219283   0.023   0.198   6.495  0.6513  0.0134  0.1458
  171SOPE  H12A19284  -0.016   0.095   6.505 -0.8469  0.6717  1.7293
  171SOPE  H12B19285   0.029   0.236   6.391 -0.6192  0.0966  0.0888
  171SOPE   C1119286  -0.085   0.276   6.579  0.7857  0.3382  0.9399
  171SOPE  H11A19287  -0.092   0.223   6.676  1.7551  0.2088  0.9510
  171SOPE  H11B19288  -0.182   0.275   6.524 -0.1737 -0.2945  2.5739
  171SOPE     P19289  -0.121   0.531   6.619 -0.1508 -0.5990 -0.1453
  171SOPE   O1319290  -0.160   0.543   6.477 -0.5813 -0.1438  0.4288
  171SOPE   O1419291  -0.046   0.636   6.691  0.1442  0.0959  0.1216
  171SOPE   O1219292  -0.035   0.403   6.618 -0.0166 -0.5634  0.1095
  171SOPE   O1119293  -0.262   0.490   6.692 -0.4983 -0.3705  0.1549
  171SOPE    C119294  -0.247   0.442   6.827 -0.0630 -0.5947  0.2614
  171SOPE    HA19295  -0.167   0.495   6.884 -1.5555 -0.0954  1.9859
  171SOPE    HB19296  -0.234   0.332   6.833 -2.4829 -0.9818 -0.4547
  171SOPE    C219297  -0.361   0.472   6.925 -0.4208 -0.2459  0.6129
  171SOPE    HS19298  -0.383   0.581   6.932 -1.0221 -0.4589  3.0083
  171SOPE   O2119299  -0.330   0.430   7.057 -0.2030 -0.6364  0.0150
  171SOPE   C2119300  -0.343   0.520   7.155 -1.1128  0.0380 -0.6327
  171SOPE   O2219301  -0.377   0.632   7.139  0.0363 -0.2553  0.2014
  171SOPE   C2219302  -0.304   0.453   7.292  0.6595  0.6757 -0.2139
  171SOPE   H2R19303  -0.203   0.407   7.289  0.1260 -0.5399 -0.6012
  171SOPE   H2S19304  -0.375   0.368   7.298  0.6695  0.5847 -1.1707
  171SOPE    C319305  -0.496   0.414   6.876  0.0677  0.3940  0.6199
  171SOPE    HX19306  -0.483   0.306   6.857 -0.8445  0.6560 -1.9550
  171SOPE    HY19307  -0.524   0.450   6.775  2.7426 -0.8698 -0.6850
  171SOPE   O3119308  -0.599   0.420   6.971  0.0127 -0.6011 -0.0784
  171SOPE   C3119309  -0.680   0.532   6.958  0.3982 -0.0146  0.0438
  171SOPE   O3219310  -0.658   0.622   6.872  0.1179  0.5426 -0.1588
  171SOPE   C3219311  -0.784   0.543   7.062  0.0463  0.0691 -0.0802
  171SOPE   H2X19312  -0.844   0.450   7.075  1.0749 -0.1937  3.6343
  171SOPE   H2Y19313  -0.850   0.627   7.031 -1.1000 -0.5718  0.5670
  171SOPE   C2319314  -0.328   0.545   7.407  0.4886 -0.3370 -0.5932
  171SOPE   H3R19315  -0.424   0.594   7.381  0.4919 -0.6910 -1.2882
  171SOPE   H3S19316  -0.249   0.623   7.415 -0.1123  0.1665  0.6257
  171SOPE   C2419317  -0.342   0.476   7.538  0.3248 -0.2719  0.5213
  171SOPE   H4R19318  -0.419   0.396   7.528 -0.2738  0.3537  0.0044
  171SOPE   H4S19319  -0.240   0.443   7.565  0.5326 -1.1844 -1.3102
  171SOPE   C2519320  -0.385   0.579   7.641 -0.6607  0.9873  0.3135
  171SOPE   H5R19321  -0.320   0.669   7.636  0.8473 -0.1074 -1.7507
  171SOPE   H5S19322  -0.483   0.620   7.610 -0.1229  0.4965 -2.2528
  171SOPE   C2619323  -0.407   0.518   7.779 -0.3415  0.2017 -0.0023
  171SOPE   H6R19324  -0.487   0.575   7.831  0.3468 -0.6307  2.0686
  171SOPE   H6S19325  -0.426   0.408   7.783 -0.9823  0.2726 -0.8770
  171SOPE   C2719326  -0.289   0.545   7.865 -0.0251 -0.1192 -0.0266
  171SOPE   H7R19327  -0.271   0.469   7.943  1.9647  0.0493 -0.2760
  171SOPE   H7S19328  -0.198   0.534   7.802 -0.5917 -1.8842 -0.6118
  171SOPE   C2819329  -0.278   0.688   7.918 -0.4565  0.3264 -0.2762
  171SOPE   H8R19330  -0.277   0.753   7.827 -2.1368 -0.1912 -0.7057
  171SOPE   H8S19331  -0.371   0.705   7.976  0.9876  3.0616  1.4743
  171SOPE   C2919332  -0.152   0.715   8.001 -0.2162 -0.1687 -0.2262
  171SOPE   H9119333  -0.152   0.671   8.102 -1.6244  0.4596  0.0840
  171SOPE  C21019334  -0.043   0.787   7.963 -0.0302  0.2442  0.4659
  171SOPE  H10119335   0.043   0.790   8.032 -1.0780 -0.0270  1.8069
  171SOPE  C21119336  -0.029   0.867   7.837 -0.3075  0.9004 -0.4284
  171SOPE  H11R19337   0.049   0.946   7.848 -0.3874  0.8161  0.9195
  171SOPE  H11S19338  -0.124   0.918   7.814 -2.0251 -0.5043  2.8601
  171SOPE  C21219339   0.003   0.799   7.703  0.6588 -0.0860 -0.2697
  171SOPE  H12R19340  -0.086   0.735   7.681  0.8731 -0.2604 -0.6309
  171SOPE  H12S19341   0.094   0.735   7.705  1.3088  0.8489  0.9169
  171SOPE  C21319342   0.017   0.901   7.596  0.2588 -0.0496  0.4680
  171SOPE  H13R19343   0.099   0.974   7.610 -0.7311  1.1864  0.0662
  171SOPE  H13S19344  -0.080   0.957   7.597 -0.1520 -0.7571  0.8033
  171SOPE  C21419345   0.017   0.838   7.458 -0.2548 -0.3379 -0.0265
  171SOPE  H14R19346  -0.048   0.748   7.459  1.2496 -1.4738 -0.6124
  171SOPE  H14S19347   0.117   0.792   7.447  0.8692  1.5928  1.4793
  171SOPE  C21519348  -0.000   0.943   7.356  0.1874  0.4836  0.0006
  171SOPE  H15R19349   0.066   1.032   7.365  0.8937 -0.0484  0.1503
  171SOPE  H15S19350  -0.103   0.982   7.377  0.7585  2.3851 -0.4989
  171SOPE  C21619351   0.005   0.894   7.210  0.4184 -0.4714 -0.5929
  171SOPE  H16R19352  -0.036   0.970   7.140 -0.2769 -0.0804  0.2266
  171SOPE  H16S19353  -0.072   0.815   7.200 -0.8574  0.4302  1.4642
  171SOPE  C21719354   0.148   0.863   7.154  0.6191 -1.0193 -0.5926
  171SOPE  H17R19355   0.182   0.765   7.195 -2.5492 -2.1179 -0.3047
  171SOPE  H17S19356   0.217   0.939   7.197  0.2344  0.7350 -2.8922
  171SOPE  C21819357   0.171   0.869   7.005 -0.1546 -0.1215  0.5576
  171SOPE  H18R19358   0.279   0.866   6.978  0.1619  5.0424  0.1064
  171SOPE  H18S19359   0.142   0.971   6.969 -1.6453 -0.8759 -0.4861
  171SOPE  H18T19360   0.121   0.792   6.944  2.5126 -1.5719  0.0454
  171SOPE   C3319361  -0.717   0.573   7.201 -0.0697 -0.2259  0.5739
  171SOPE   H3X19362  -0.644   0.656   7.190  1.0063 -1.2521 -0.2029
  171SOPE   H3Y19363  -0.648   0.498   7.244  0.0766  0.2542  1.1847
  171SOPE   C3419364  -0.834   0.598   7.292  0.4966 -0.2871  0.1141
  171SOPE   H4X19365  -0.903   0.511   7.293 -0.1514  0.1767 -1.3598
  171SOPE   H4Y19366  -0.891   0.688   7.262 -3.1411 -2.0060  1.2349
  171SOPE   C3519367  -0.777   0.609   7.431  0.4849  0.6346  0.7337
  171SOPE   H5X19368  -0.692   0.679   7.444  1.4954 -0.7703  2.0951
  171SOPE   H5Y19369  -0.725   0.514   7.452  0.2823  0.7196  1.6626
  171SOPE   C3619370  -0.872   0.639   7.546  0.1317 -0.0032  0.6075
  171SOPE   H6X19371  -0.954   0.564   7.553  0.9842 -1.0326 -0.0110
  171SOPE   H6Y19372  -0.920   0.738   7.539 -0.6279 -0.4541 -0.9585
  171SOPE   C3719373  -0.795   0.636   7.677  0.3635  0.3680  0.2967
  171SOPE   H7X19374  -0.707   0.704   7.671 -0.3247  1.2400 -0.0791
  171SOPE   H7Y19375  -0.762   0.532   7.698 -0.6937 -0.0522 -0.0612
  171SOPE   C3819376  -0.892   0.666   7.798  0.0023  0.2546 -0.0383
  171SOPE   H8X19377  -0.969   0.586   7.810  0.5890  0.0318  2.8905
  171SOPE   H8Y19378  -0.940   0.763   7.777  0.1305 -0.0839 -2.1108
  171SOPE   C3919379  -0.827   0.665   7.934 -0.5184  0.2004 -0.2497
  171SOPE   H9X19380  -0.738   0.732   7.936 -1.5830  1.6566  0.0759
  171SOPE   H9Y19381  -0.788   0.563   7.955  4.1470  2.0321  1.3303
  171SOPE  C31019382  -0.933   0.708   8.037 -0.2621  0.4734 -0.3726
  171SOPE  H10X19383  -1.020   0.642   8.018 -1.0633  1.2028  0.6491
  171SOPE  H10Y19384  -0.958   0.815   8.023 -0.2910  0.4533 -0.4712
  171SOPE  C31119385  -0.884   0.690   8.185  1.1778  0.1374  0.3999
  171SOPE  H11X19386  -0.800   0.758   8.208  1.0125 -0.0844  1.7169
  171SOPE  H11Y19387  -0.845   0.586   8.186  0.4745 -0.1313  1.7868
  171SOPE  C31219388  -0.989   0.703   8.296  0.4722  0.0660  0.4036
  171SOPE  H12X19389  -1.077   0.635   8.283 -0.8567  1.5701  1.2172
  171SOPE  H12Y19390  -1.038   0.802   8.292  2.8386  1.2938  0.3776
  171SOPE  C31319391  -0.922   0.695   8.433  0.8658 -0.0485 -0.1756
  171SOPE  H13X19392  -0.823   0.747   8.433  0.7204  0.2318 -0.5590
  171SOPE  H13Y19393  -0.894   0.587   8.441 -0.5265 -0.6828 -2.6293
  171SOPE  C31419394  -1.021   0.726   8.550 -0.1728  0.3772  0.4827
  171SOPE  H14X19395  -1.111   0.665   8.527  0.6527 -0.8704  0.4641
  171SOPE  H14Y19396  -1.047   0.834   8.544 -0.1050  0.3096 -3.5349
  171SOPE  C31519397  -0.966   0.703   8.686 -0.0653  0.2274  0.4000
  171SOPE  H15X19398  -0.871   0.761   8.693 -0.6871  1.3204 -0.0553
  171SOPE  H15Y19399  -0.958   0.595   8.708 -1.7285  0.4501  2.3417
  171SOPE  C31619400  -1.056   0.763   8.791  0.6396 -0.3622  0.2840
  171SOPE  H16X19401  -1.154   0.713   8.789  1.3556 -1.7921 -1.6897
  171SOPE  H16Y19402  -1.086   0.868   8.770 -3.7538 -0.1645  5.3398
  171SOPE  C31719403  -0.990   0.759   8.929  0.7879  0.0134  1.0154
  171SOPE  H17X19404  -1.067   0.796   9.000 -0.4841  1.6984 -1.1333
  171SOPE  H17Y19405  -0.904   0.828   8.945  0.1512  0.2338  4.0872
  171SOPE  C31819406  -0.951   0.627   8.984 -0.7288 -0.2154 -1.2105
  171SOPE  H18X19407  -1.023   0.546   8.961  0.5154 -3.0384  3.3135
  171SOPE  H18Y19408  -0.934   0.627   9.094  0.3147 -2.1110 -1.3253
  171SOPE  H18Z19409  -0.859   0.586   8.938 -1.0917 -3.1291  0.3955
  172SOPE     N19410   1.512   2.330   6.698 -0.0860 -0.1128 -0.6091
  172SOPE   HN119411   1.497   2.230   6.673  0.3588 -0.0392 -1.1905
  172SOPE   HN219412   1.423   2.360   6.742 -1.1617 -3.9605  0.2381
  172SOPE   HN319413   1.542   2.374   6.609  3.3841  0.3417  0.6235
  172SOPE   C1219414   1.622   2.321   6.803 -0.6086 -0.1343 -0.6468
  172SOPE  H12A19415   1.566   2.319   6.899 -0.9319  0.6398 -0.8057
  172SOPE  H12B19416   1.669   2.422   6.795  0.6699 -0.5109  1.4687
  172SOPE   C1119417   1.728   2.217   6.789  0.4730 -0.5304  0.0493
  172SOPE  H11A19418   1.797   2.226   6.876 -0.1169 -1.2713  0.5990
  172SOPE  H11B19419   1.778   2.252   6.696 -1.1265  4.0251  0.6568
  172SOPE     P19420   1.760   1.958   6.800  0.1736 -0.0969  0.1335
  172SOPE   O1319421   1.814   1.922   6.666 -0.1920  0.1811 -0.0629
  172SOPE   O1419422   1.677   1.857   6.869  0.5704 -0.3019 -0.0864
  172SOPE   O1219423   1.681   2.087   6.783  0.4075  0.2578 -0.2554
  172SOPE   O1119424   1.881   2.002   6.888  0.8764  0.3307  0.3246
  172SOPE    C119425   1.899   1.963   7.021 -0.7383  0.4648  0.5877
  172SOPE    HA19426   1.809   1.975   7.084 -0.5675  3.9758  0.3838
  172SOPE    HB19427   1.981   2.017   7.073 -0.1671 -1.2429  1.5404
  172SOPE    C219428   1.947   1.819   7.032  0.0479  0.1154  0.4538
  172SOPE    HS19429   1.880   1.756   6.970  0.8184 -0.0169 -0.2639
  172SOPE   O2119430   1.947   1.787   7.175 -0.0652  0.4362  0.0058
  172SOPE   C2119431   1.920   1.662   7.208 -0.4401  0.1901  0.0294
  172SOPE   O2219432   1.889   1.572   7.134 -0.5436 -0.3088  0.0659
  172SOPE   C2219433   1.928   1.654   7.362 -0.0102  0.3093 -0.5729
  172SOPE   H2R19434   1.869   1.737   7.408 -1.8431 -0.0972 -2.0627
  172SOPE   H2S19435   2.034   1.654   7.396 -0.1174 -2.1105 -0.1127
  172SOPE    C319436   2.092   1.795   6.971 -0.0301 -0.6800  1.0568
  172SOPE    HX19437   2.156   1.877   7.010  0.7473 -0.4634 -0.5773
  172SOPE    HY19438   2.095   1.825   6.864  1.9550 -0.4756  1.1397
  172SOPE   O3119439   2.143   1.667   7.002  0.5191 -0.7081 -0.5608
  172SOPE   C3119440   2.230   1.610   6.918  0.4291 -0.1440  0.5784
  172SOPE   O3219441   2.271   1.663   6.816  0.3186  0.1289  0.2787
  172SOPE   C3219442   2.274   1.477   6.977 -0.2873 -0.2011  0.5391
  172SOPE   H2X19443   2.183   1.414   6.977  0.2398 -0.9863  1.4084
  172SOPE   H2Y19444   2.319   1.503   7.075  0.9469  1.5911 -0.4347
  172SOPE   C2319445   1.883   1.516   7.410  0.6135  0.0307 -0.0528
  172SOPE   H3R19446   1.962   1.449   7.373 -1.5754 -2.5899 -0.2691
  172SOPE   H3S19447   1.788   1.477   7.368  0.2369 -1.1770  1.7884
  172SOPE   C2419448   1.870   1.509   7.566  0.7182  0.1500 -0.2456
  172SOPE   H4R19449   1.878   1.405   7.604 -1.3932 -0.8956 -2.4259
  172SOPE   H4S19450   1.951   1.566   7.617 -2.3272  4.4961  0.3538
  172SOPE   C2519451   1.735   1.566   7.623  0.4735 -0.0132 -0.0953
  172SOPE   H5R19452   1.716   1.668   7.585 -2.3796 -1.2877 -2.4830
  172SOPE   H5S19453   1.646   1.511   7.585 -1.0138  2.5400 -0.5620
  172SOPE   C2619454   1.720   1.556   7.777  0.9652  0.2582 -0.2985
  172SOPE   H6R19455   1.619   1.590   7.811  1.4854  1.2759  0.2954
  172SOPE   H6S19456   1.729   1.452   7.813 -0.4165 -0.3942 -1.7221
  172SOPE   C2719457   1.825   1.624   7.863 -0.3307  0.7391  0.3401
  172SOPE   H7R19458   1.824   1.592   7.969 -2.6812 -2.3711 -0.5055
  172SOPE   H7S19459   1.920   1.584   7.822  0.1445  1.1862  0.9870
  172SOPE   C2819460   1.813   1.778   7.855  0.5255  0.1274 -0.2220
  172SOPE   H8R19461   1.857   1.812   7.759  1.1308 -1.8501 -0.6906
  172SOPE   H8S19462   1.704   1.802   7.850 -0.2592 -3.0955 -1.3842
  172SOPE   C2919463   1.873   1.833   7.986  0.5564 -0.0720  0.0402
  172SOPE   H9119464   1.979   1.855   7.969  0.0380  1.7696 -0.9739
  172SOPE  C21019465   1.814   1.864   8.107 -0.1232  0.4922  0.3297
  172SOPE  H10119466   1.877   1.896   8.191  0.7775  5.2006 -1.8178
  172SOPE  C21119467   1.667   1.856   8.139  0.3094  0.0885  0.0518
  172SOPE  H11R19468   1.604   1.833   8.051 -0.2663 -0.9030  0.7142
  172SOPE  H11S19469   1.627   1.952   8.177 -0.3390 -0.6250  1.2149
  172SOPE  C21219470   1.637   1.750   8.243  0.9121 -0.0285 -0.3498
  172SOPE  H12R19471   1.692   1.780   8.335 -2.6857 -1.0283  2.3461
  172SOPE  H12S19472   1.669   1.647   8.216 -0.5852 -0.4765 -0.4921
  172SOPE  C21319473   1.489   1.737   8.275  0.5879 -0.0309  0.0746
  172SOPE  H13R19474   1.430   1.715   8.183 -2.0300  1.0287  1.3810
  172SOPE  H13S19475   1.444   1.830   8.317  1.0343  1.7489 -3.0368
  172SOPE  C21419476   1.465   1.620   8.369  0.0985 -1.0986  0.0949
  172SOPE  H14R19477   1.530   1.634   8.458  0.0778 -0.8089  0.0651
  172SOPE  H14S19478   1.501   1.523   8.328  1.9095 -0.8194  0.9188
  172SOPE  C21519479   1.318   1.616   8.417 -0.7870  0.0224 -0.5924
  172SOPE  H15R19480   1.307   1.535   8.492 -0.7374 -0.0951 -0.7128
  172SOPE  H15S19481   1.250   1.599   8.331  0.1426 -0.5090 -1.2401
  172SOPE  C21619482   1.284   1.748   8.488  0.2988  0.0616  0.2783
  172SOPE  H16R19483   1.285   1.830   8.414  0.8102 -0.0380  0.1728
  172SOPE  H16S19484   1.353   1.765   8.573 -0.4576 -0.4958  1.0196
  172SOPE  C21719485   1.147   1.740   8.558 -0.0510  0.8182  0.0528
  172SOPE  H17R19486   1.125   1.647   8.613 -2.2789  0.3450 -1.5237
  172SOPE  H17S19487   1.062   1.752   8.488 -0.8783 -0.5087  0.8038
  172SOPE  C21819488   1.124   1.853   8.653  0.3564  0.2195 -0.1990
  172SOPE  H18R19489   1.078   1.945   8.610 -1.2014  0.4512  1.7991
  172SOPE  H18S19490   1.213   1.874   8.716  1.3083 -2.0447 -0.7037
  172SOPE  H18T19491   1.042   1.821   8.721  1.2443  0.5002  1.0300
  172SOPE   C3319492   2.388   1.413   6.903  0.3537 -0.4091  0.2532
  172SOPE   H3X19493   2.489   1.444   6.938  1.1369 -3.3932  0.9213
  172SOPE   H3Y19494   2.379   1.439   6.795  1.6289  3.2684  0.8905
  172SOPE   C3419495   2.400   1.258   6.932 -0.0002 -0.1970 -0.2515
  172SOPE   H4X19496   2.497   1.217   6.896 -0.4519 -1.2649 -0.3010
  172SOPE   H4Y19497   2.316   1.206   6.881  0.6806 -1.1472 -0.4498
  172SOPE   C3519498   2.375   1.211   7.081 -0.1614  0.3430  0.3705
  172SOPE   H5X19499   2.328   1.110   7.084 -0.6698  0.6114  2.5232
  172SOPE   H5Y19500   2.294   1.281   7.110 -0.1554  0.3127  0.4576
  172SOPE   C3619501   2.503   1.208   7.167  0.5962  0.4087  0.8463
  172SOPE   H6X19502   2.560   1.303   7.159  0.4136  0.6964  2.4987
  172SOPE   H6Y19503   2.575   1.127   7.142 -2.1602 -1.7253 -0.9098
  172SOPE   C3719504   2.461   1.187   7.313  0.0546  0.1405 -0.7134
  172SOPE   H7X19505   2.405   1.092   7.323  2.7061 -1.3234  1.3459
  172SOPE   H7Y19506   2.393   1.271   7.339  1.0289  0.7034  0.0659
  172SOPE   C3819507   2.580   1.187   7.411  0.7704  0.0167 -0.2280
  172SOPE   H8X19508   2.646   1.270   7.377  0.8133 -0.3082 -0.9452
  172SOPE   H8Y19509   2.636   1.092   7.402  0.9755 -0.1562  2.2836
  172SOPE   C3919510   2.545   1.198   7.562 -0.0133 -0.0314  0.3342
  172SOPE   H9X19511   2.478   1.284   7.582 -1.4093 -0.6686 -1.3340
  172SOPE   H9Y19512   2.640   1.207   7.620  0.1402  0.0694  0.0682
  172SOPE  C31019513   2.473   1.077   7.626 -0.2522 -0.8910  0.5356
  172SOPE  H10X19514   2.529   0.981   7.613 -0.0386 -0.8654  1.2417
  172SOPE  H10Y19515   2.382   1.057   7.566  0.7197 -1.6956 -0.7415
  172SOPE  C31119516   2.431   1.092   7.769  0.9969 -0.8093 -0.7516
  172SOPE  H11X19517   2.524   1.100   7.828  0.6069 -1.3553 -0.0428
  172SOPE  H11Y19518   2.382   1.001   7.810  1.3294 -0.1653  1.1624
  172SOPE  C31219519   2.353   1.229   7.806  0.3792  0.2179  0.1970
  172SOPE  H12X19520   2.264   1.254   7.743  0.4262  0.6728  0.3020
  172SOPE  H12Y19521   2.426   1.313   7.807 -0.2026  0.7338  0.9703
  172SOPE  C31319522   2.304   1.224   7.950  0.3245 -0.0414  0.2638
  172SOPE  H13X19523   2.376   1.241   8.032 -0.3191  0.1227  0.8043
  172SOPE  H13Y19524   2.274   1.118   7.967  2.5824 -0.6726  0.6130
  172SOPE  C31419525   2.188   1.321   7.969 -0.1843  0.4437 -0.4626
  172SOPE  H14X19526   2.095   1.286   7.918  0.4321  0.0894 -1.3755
  172SOPE  H14Y19527   2.220   1.413   7.916  2.9495  0.6341  1.5376
  172SOPE  C31519528   2.148   1.354   8.110 -0.3784  0.1622 -0.1634
  172SOPE  H15X19529   2.241   1.350   8.170  0.8064 -0.8080 -1.9505
  172SOPE  H15Y19530   2.091   1.265   8.142  0.0743 -1.4358 -3.3478
  172SOPE  C31619531   2.053   1.477   8.115 -0.1066  0.5360  0.5742
  172SOPE  H16X19532   1.951   1.449   8.083  0.3986  0.0165 -0.6458
  172SOPE  H16Y19533   2.087   1.555   8.044 -0.3715  0.2625  0.1461
  172SOPE  C31719534   2.039   1.540   8.253 -0.0740  0.0204  0.1739
  172SOPE  H17X19535   2.014   1.465   8.332  2.2096  0.5641  1.5168
  172SOPE  H17Y19536   1.950   1.605   8.251 -2.1115 -2.6003  0.4909
  172SOPE  C31819537   2.163   1.615   8.291 -0.0777  0.0031  0.0830
  172SOPE  H18X19538   2.202   1.694   8.224  1.3797  2.0063  3.0348
  172SOPE  H18Y19539   2.245   1.542   8.307 -2.4300 -3.2632 -1.5433
  172SOPE  H18Z19540   2.132   1.664   8.386  2.0232 -0.7115  1.2073
  173SAPI   C1219541   1.699   5.241  10.940  0.2827 -0.1947  0.5434
  173SAPI    H219542   1.739   5.288  10.848 -0.0306 -0.0920  0.4585
  173SAPI    O219543   1.576   5.312  10.965 -0.0782 -0.7432 -0.2623
  173SAPI   HO219544   1.512   5.308  10.894 -2.9597  0.4257  2.0478
  173SAPI   C1319545   1.663   5.096  10.896 -0.0269 -0.4298 -0.2787
  173SAPI    H319546   1.759   5.049  10.866 -1.0298 -2.4106 -0.5090
  173SAPI    O319547   1.572   5.094  10.790  0.1543 -0.0443  0.1250
  173SAPI   HO319548   1.481   5.115  10.812  0.3542  2.8648 -1.2828
  173SAPI   C1419549   1.616   5.009  11.013 -0.0232  0.3248  0.7761
  173SAPI    H419550   1.518   5.050  11.045 -0.4251 -1.4977  2.0259
  173SAPI    O419551   1.602   4.869  10.971 -0.4266 -0.0938  0.0538
  173SAPI   HO419552   1.511   4.852  10.944  0.4702  0.2946 -3.8260
  173SAPI   C1519553   1.712   5.020  11.128  0.4375  0.7911 -0.2813
  173SAPI    H519554   1.808   4.978  11.090  1.2692  0.5628  1.9510
  173SAPI    O519555   1.663   4.948  11.244 -0.2406 -0.5241 -0.4183
  173SAPI   HO519556   1.609   5.009  11.294 -0.2010 -1.0705  0.3122
  173SAPI   C1619557   1.745   5.161  11.169  0.2074  0.1704  0.5721
  173SAPI    H619558   1.659   5.221  11.207 -0.1961 -0.3175  0.4429
  173SAPI    O619559   1.841   5.174  11.269  0.3002  0.4053  0.0816
  173SAPI   HO619560   1.845   5.266  11.295 -0.6870 -0.1756  2.5692
  173SAPI   C1119561   1.803   5.243  11.053 -0.4067  0.6744 -0.3775
  173SAPI    H119562   1.892   5.190  11.011  0.1450  0.3695  1.1214
  173SAPI     P19563   1.978   5.454  11.048 -0.2118  0.4467  0.0682
  173SAPI   O1319564   2.096   5.371  11.082  0.2043  0.2067 -0.1601
  173SAPI   O1419565   1.987   5.595  11.100  0.2371 -0.1242  0.0993
  173SAPI   O1219566   1.832   5.382  11.091 -0.1656  0.3114  0.1046
  173SAPI   O1119567   1.969   5.454  10.895 -0.3903  0.1602  0.7759
  173SAPI    C119568   1.875   5.522  10.811  0.2487 -0.2183 -0.5690
  173SAPI    HA19569   1.871   5.480  10.708  3.0843 -1.5808 -0.2230
  173SAPI    HB19570   1.772   5.514  10.852  0.1696  1.1292 -0.4710
  173SAPI    C219571   1.915   5.672  10.799 -0.5736 -0.0290  0.3093
  173SAPI    HS19572   1.928   5.721  10.898 -0.5123 -0.6608  0.6127
  173SAPI   O2119573   1.823   5.736  10.707  0.4750 -0.1535 -0.5876
  173SAPI   C2119574   1.831   5.867  10.713 -0.5477 -0.3008 -0.3123
  173SAPI   O2219575   1.911   5.934  10.781 -0.1174  0.1537  0.3574
  173SAPI   C2219576   1.710   5.929  10.632 -0.2630 -0.1520  0.2521
  173SAPI   H2R19577   1.633   5.850  10.637  0.4439 -0.7686  2.0756
  173SAPI   H2S19578   1.664   6.008  10.694 -2.2531 -1.7015  0.8226
  173SAPI    C319579   2.060   5.683  10.742 -0.4408  0.6058 -0.1119
  173SAPI    HX19580   2.126   5.632  10.815  0.8516 -1.5118 -2.5783
  173SAPI    HY19581   2.100   5.786  10.736  1.8837 -0.3159 -3.3446
  173SAPI   O3119582   2.063   5.625  10.610 -0.6186  0.3800  1.4501
  173SAPI   C3119583   2.041   5.702  10.507 -0.5355  0.1212  0.2921
  173SAPI   O3219584   2.042   5.823  10.506  0.1787 -0.6207 -0.2287
  173SAPI   C3219585   2.033   5.614  10.384  0.1234 -0.1358  1.2510
  173SAPI   H2X19586   1.987   5.680  10.307  3.0113  0.0371 -0.4750
  173SAPI   H2Y19587   1.977   5.524  10.417  2.8532 -1.7947  1.6592
  173SAPI   C2319588   1.738   5.986  10.485  0.7463  0.5487 -0.7544
  173SAPI   H3R19589   1.747   5.903  10.412 -0.1743 -0.7638  0.5598
  173SAPI   H3S19590   1.837   6.035  10.494  0.4238  0.9499  1.2929
  173SAPI   C2419591   1.633   6.094  10.443  0.1244  0.3348  0.3694
  173SAPI   H4R19592   1.673   6.140  10.350  2.0435 -0.4515  0.7588
  173SAPI   H4S19593   1.629   6.169  10.525 -1.2046 -1.4186  2.0377
  173SAPI   C2519594   1.502   6.031  10.431  0.1035 -0.0096  0.7324
  173SAPI   H5R19595   1.469   5.991  10.528  0.1039 -0.6482  0.4809
  173SAPI   C2619596   1.440   5.995  10.319 -0.2149 -0.0853  0.5246
  173SAPI   H6R19597   1.339   5.951  10.319 -0.2022 -0.1801 -1.3927
  173SAPI   C2719598   1.479   6.036  10.179 -0.4833 -0.3752  0.1979
  173SAPI   H7R19599   1.405   5.996  10.106  1.4755 -1.6482 -1.2131
  173SAPI   H7S19600   1.571   5.975  10.162  1.2118  1.3009  2.6271
  173SAPI   C2819601   1.508   6.179  10.140 -0.9130 -0.5135 -0.8557
  173SAPI   H8R19602   1.523   6.249  10.224  0.0543 -1.4882 -0.1874
  173SAPI   C2919603   1.534   6.228  10.025 -0.7069 -0.0420  0.0779
  173SAPI   H9R19604   1.572   6.331  10.014 -2.5740  0.6362 -0.4003
  173SAPI  C21019605   1.544   6.141   9.899 -0.4971  0.4560  0.0167
  173SAPI  H10R19606   1.444   6.102   9.871 -2.0871  1.1472  4.1014
  173SAPI  H10S19607   1.604   6.052   9.928 -2.8631 -1.6191 -1.0191
  173SAPI  C21119608   1.607   6.220   9.777 -0.4087 -0.4008 -0.4679
  173SAPI  H11R19609   1.631   6.325   9.798  0.3163 -0.7482  0.5174
  173SAPI  C21219610   1.628   6.168   9.651  0.1628  0.6093 -0.0415
  173SAPI  H12R19611   1.679   6.224   9.571  3.0403 -1.6054  0.0724
  173SAPI  C21319612   1.600   6.031   9.600  0.0956 -0.5385 -0.3664
  173SAPI  H13R19613   1.551   5.973   9.680  3.0574  1.2916  3.0947
  173SAPI  H13S19614   1.692   5.973   9.576 -0.1580 -0.6562 -1.0814
  173SAPI  C21419615   1.517   6.042   9.482  0.0057 -0.9327  0.7756
  173SAPI  H14R19616   1.408   6.054   9.494 -0.3881 -1.1766 -2.0181
  173SAPI  C21519617   1.554   6.043   9.349  0.8251 -0.1959 -0.9333
  173SAPI  H15R19618   1.477   6.054   9.272  0.9618  0.7446 -0.9410
  173SAPI  C21619619   1.693   6.039   9.303 -0.2259 -0.0397 -0.5711
  173SAPI  H16R19620   1.757   5.984   9.375  0.2388  2.5744  1.1585
  173SAPI  H16S19621   1.728   6.143   9.291  2.7287 -1.1635 -2.7798
  173SAPI  C21719622   1.722   5.976   9.160  0.8452  0.0254 -0.5688
  173SAPI  H17R19623   1.661   6.037   9.090  0.0851 -0.0843 -0.0089
  173SAPI  H17S19624   1.684   5.872   9.164 -0.5015  0.4171 -2.2151
  173SAPI  C21819625   1.868   5.974   9.118 -0.1729 -0.0785 -0.4277
  173SAPI  H18R19626   1.936   5.910   9.178  0.1750  0.8199  0.1577
  173SAPI  H18S19627   1.913   6.073   9.139  1.7382 -1.5720  3.6234
  173SAPI  C21919628   1.888   5.943   8.970 -1.0799  0.6307  0.7888
  173SAPI  H19R19629   1.988   5.970   8.930 -0.9257  1.0780  1.4473
  173SAPI  H19S19630   1.823   6.014   8.915 -2.1743 -1.2452 -0.4355
  173SAPI  C22019631   1.840   5.797   8.931  0.2681 -0.6320 -0.4672
  173SAPI  H20R19632   1.879   5.759   8.835  0.1224  2.3846 -1.8370
  173SAPI  H20S19633   1.731   5.791   8.949  0.3450 -3.1542 -0.5380
  173SAPI  H20T19634   1.883   5.717   8.996  2.3300 -0.7970 -1.9325
  173SAPI   C3319635   2.171   5.568  10.326  0.2984 -1.0267  0.3388
  173SAPI   H3X19636   2.206   5.470  10.364  2.7773  0.7615  3.1383
  173SAPI   H3Y19637   2.251   5.641  10.352  0.0161 -0.3054 -0.7431
  173SAPI   C3419638   2.175   5.581  10.172 -0.6996  0.3521 -0.3007
  173SAPI   H4X19639   2.188   5.688  10.145  0.8238  0.3144  0.1573
  173SAPI   H4Y19640   2.082   5.546  10.122 -0.4980 -0.1843 -0.3093
  173SAPI   C3519641   2.287   5.499  10.106 -0.1060  0.0697  0.2272
  173SAPI   H5X19642   2.290   5.388  10.113  0.8758 -0.0452 -1.4913
  173SAPI   H5Y19643   2.386   5.533  10.143  0.3772 -0.2575 -0.7304
  173SAPI   C3619644   2.297   5.538   9.954 -0.1056 -0.1454 -0.2241
  173SAPI   H6X19645   2.402   5.508   9.934  0.4854  0.6847  1.4677
  173SAPI   H6Y19646   2.290   5.649   9.953  0.1849 -0.1292 -0.6176
  173SAPI   C3719647   2.182   5.480   9.858 -0.8940  0.0787  0.1058
  173SAPI   H7X19648   2.082   5.496   9.903 -0.5398 -0.4141  1.1260
  173SAPI   H7Y19649   2.204   5.371   9.860  1.2349  0.4335  2.5608
  173SAPI   C3819650   2.209   5.538   9.718  0.1364 -0.8740  0.5911
  173SAPI   H8X19651   2.315   5.513   9.695  0.8708  2.8214 -0.7667
  173SAPI   H8Y19652   2.199   5.649   9.720 -0.1764 -0.8939  0.3463
  173SAPI   C3919653   2.135   5.486   9.598  0.3040 -0.3268 -0.0494
  173SAPI   H9X19654   2.031   5.470   9.632  0.4600 -0.2441  0.4702
  173SAPI   H9Y19655   2.181   5.388   9.572  0.8074 -0.1339  0.1021
  173SAPI  C31019656   2.134   5.576   9.468 -1.3163 -0.0618  0.1161
  173SAPI  H10X19657   2.243   5.569   9.445 -1.0756 -1.0812  1.4148
  173SAPI  H10Y19658   2.107   5.680   9.495  0.2105  0.7607 -1.3470
  173SAPI  C31119659   2.034   5.534   9.358 -0.2769  0.4700  0.4109
  173SAPI  H11X19660   2.054   5.596   9.268 -2.8819 -0.2799 -0.8096
  173SAPI  H11Y19661   1.930   5.565   9.383 -1.0462 -1.6292  0.0578
  173SAPI  C31219662   2.039   5.384   9.317 -0.0241  0.7864 -0.3630
  173SAPI  H12X19663   1.989   5.328   9.399  0.3138  1.3465  0.2357
  173SAPI  H12Y19664   2.144   5.352   9.309 -0.4455 -1.0077  0.7335
  173SAPI  C31319665   1.965   5.358   9.185 -1.0295 -0.4649 -0.3317
  173SAPI  H13X19666   2.020   5.403   9.099  0.6340 -0.7951  0.5178
  173SAPI  H13Y19667   1.864   5.403   9.184 -0.6443  0.9928  4.2104
  173SAPI  C31419668   1.958   5.217   9.135  0.0502  0.4779 -0.3570
  173SAPI  H14X19669   1.876   5.177   9.199 -0.8156  0.3309 -1.5244
  173SAPI  H14Y19670   2.055   5.171   9.164 -0.4033  0.5552  1.4144
  173SAPI  C31519671   1.921   5.195   8.990  0.5941 -0.3549 -0.7699
  173SAPI  H15X19672   2.011   5.229   8.934 -0.1507  1.3359 -1.0008
  173SAPI  H15Y19673   1.824   5.243   8.962 -2.4291 -4.7967  0.9273
  173SAPI  C31619674   1.900   5.050   8.957  0.0816 -0.2496 -0.1745
  173SAPI  H16X19675   1.825   4.991   9.015 -0.1932  0.8198  0.6009
  173SAPI  H16Y19676   2.002   5.008   8.974  0.8634  2.4079  2.4738
  173SAPI  C31719677   1.865   5.030   8.807  0.1369 -0.1848  0.0316
  173SAPI  H17X19678   1.950   5.083   8.760 -0.8424  1.3556 -0.0549
  173SAPI  H17Y19679   1.777   5.090   8.776  1.1106  1.7974  0.9700
  173SAPI  C31819680   1.862   4.887   8.765  0.9451  0.0969  0.6752
  173SAPI  H18X19681   1.951   4.832   8.802  0.9135 -0.5762 -0.2258
  173SAPI  H18Y19682   1.877   4.874   8.656 -2.1578 -0.0213  0.1735
  173SAPI  H18Z19683   1.765   4.840   8.790 -0.2960  1.3839 -1.4324
  174SAPI   C1219684   4.886   1.181  11.122 -0.3744  0.4172  0.0997
  174SAPI    H219685   4.903   1.287  11.147 -0.3655 -0.1813  3.0057
  174SAPI    O219686   4.991   1.114  11.045  0.3165  0.8450 -0.3338
  174SAPI   HO219687   4.987   1.142  10.954  0.5969  2.8347  0.2180
  174SAPI   C1319688   4.864   1.107  11.252 -0.2933  0.5285 -0.1843
  174SAPI    H319689   4.783   1.162  11.304 -0.9858 -1.1746  0.5931
  174SAPI    O319690   4.976   1.116  11.336  0.0754  0.0763  0.6180
  174SAPI   HO319691   5.046   1.076  11.283 -0.2630  0.6724 -0.3003
  174SAPI   C1419692   4.815   0.958  11.228 -0.4174 -0.0845  0.0956
  174SAPI    H419693   4.880   0.909  11.153 -1.5233 -1.3029 -0.1029
  174SAPI    O419694   4.818   0.877  11.340  0.0439 -0.1419 -0.5148
  174SAPI   HO419695   4.798   0.789  11.308 -2.2580 -0.6718  2.0247
  174SAPI   C1519696   4.682   0.968  11.168  0.0869  0.4690  1.1416
  174SAPI    H519697   4.633   1.044  11.232  1.1697  0.7543  1.6509
  174SAPI    O519698   4.609   0.839  11.165  0.2118  0.2718  0.4447
  174SAPI   HO519699   4.518   0.859  11.188 -0.4157  2.5990 -3.1475
  174SAPI   C1619700   4.697   1.033  11.032  0.2532  0.1090 -0.8394
  174SAPI    H619701   4.768   0.980  10.966  2.5791  3.0321 -0.8717
  174SAPI    O619702   4.571   1.034  10.966 -0.6693  0.4340 -0.0583
  174SAPI   HO619703   4.505   1.093  11.003 -0.9580 -0.4800  0.9231
  174SAPI   C1119704   4.748   1.177  11.048  0.0210  0.3436  0.2774
  174SAPI    H119705   4.673   1.227  11.113 -0.5025  0.2216 -0.2284
  174SAPI     P19706   4.764   1.404  10.903 -0.0294  0.2894 -0.0119
  174SAPI   O1319707   4.690   1.494  11.000  0.5686 -0.4267  0.7457
  174SAPI   O1419708   4.734   1.432  10.760 -0.1845 -0.2222 -0.4195
  174SAPI   O1219709   4.754   1.242  10.925 -0.1760 -0.2391 -0.2468
  174SAPI   O1119710   4.922   1.434  10.920 -0.1978 -0.5658  0.1010
  174SAPI    C119711   4.985   1.557  10.947  0.5095  0.6279 -0.5013
  174SAPI    HA19712   4.919   1.636  10.986  0.9477  0.8704 -0.2415
  174SAPI    HB19713   5.067   1.538  11.020  3.1633 -0.0622 -3.3920
  174SAPI    C219714   5.047   1.612  10.820 -0.9450 -0.2257  0.6495
  174SAPI    HS19715   5.130   1.683  10.842 -2.0122  0.4904  2.4883
  174SAPI   O2119716   4.947   1.680  10.738  0.4041  0.8809  0.1149
  174SAPI   C2119717   4.984   1.784  10.669  0.5456  0.0180 -0.5025
  174SAPI   O2219718   5.092   1.840  10.671  0.4116 -0.5327 -0.4937
  174SAPI   C2219719   4.866   1.845  10.601  0.7976 -0.5054  0.2390
  174SAPI   H2R19720   4.792   1.873  10.679  0.2597  3.0104 -1.3616
  174SAPI   H2S19721   4.901   1.939  10.554  1.2216 -1.6589 -1.8887
  174SAPI    C319722   5.106   1.493  10.735  0.1659 -0.4181  1.1407
  174SAPI    HX19723   5.014   1.445  10.696  0.0250 -1.1604  2.3448
  174SAPI    HY19724   5.153   1.415  10.799 -0.6125 -2.0742 -0.2372
  174SAPI   O3119725   5.194   1.542  10.631 -0.1075  0.5012  0.0956
  174SAPI   C3119726   5.304   1.599  10.669  0.5459 -0.6955 -0.2609
  174SAPI   O3219727   5.347   1.617  10.784  0.3143 -0.4605 -0.1415
  174SAPI   C3219728   5.386   1.630  10.540  0.8832  0.2179 -0.4001
  174SAPI   H2X19729   5.315   1.645  10.456 -1.3035  2.2267  1.6604
  174SAPI   H2Y19730   5.432   1.531  10.518  1.5697  0.1286  1.3439
  174SAPI   C2319731   4.805   1.741  10.507  0.5041  0.4009 -0.2651
  174SAPI   H3R19732   4.722   1.786  10.448 -0.3281 -1.4757 -0.6079
  174SAPI   H3S19733   4.769   1.646  10.552 -3.1010  1.7269  0.0085
  174SAPI   C2419734   4.911   1.696  10.396 -0.4843 -0.0183  0.1063
  174SAPI   H4R19735   4.850   1.642  10.320 -0.9408  0.4369  0.1440
  174SAPI   H4S19736   4.983   1.624  10.441  1.0226  0.4814 -1.3719
  174SAPI   C2519737   4.988   1.804  10.327  0.5891  0.2984 -0.3024
  174SAPI   H5R19738   4.998   1.903  10.375 -0.9091  0.4696 -0.2888
  174SAPI   C2619739   5.046   1.796  10.207 -0.1492  0.2765 -0.1603
  174SAPI   H6R19740   5.106   1.878  10.165  1.3281 -1.6351 -1.9835
  174SAPI   C2719741   5.050   1.671  10.120  0.1869  0.9442  0.5039
  174SAPI   H7R19742   5.061   1.706  10.015 -3.1275 -2.5949 -1.3118
  174SAPI   H7S19743   4.950   1.621  10.121  0.4391  0.4219  0.0385
  174SAPI   C2819744   5.166   1.576  10.144 -0.3256 -0.2947 -0.4629
  174SAPI   H8R19745   5.158   1.528  10.242 -1.5319 -2.0425 -1.3665
  174SAPI   C2919746   5.281   1.562  10.079  0.1901 -0.5669 -0.2508
  174SAPI   H9R19747   5.355   1.499  10.130 -1.0285 -1.7558  0.1097
  174SAPI  C21019748   5.350   1.634   9.962 -0.0212 -0.6084  0.4861
  174SAPI  H10R19749   5.460   1.620   9.970  0.4735  1.3111 -1.7402
  174SAPI  H10S19750   5.347   1.743   9.982  2.6421 -0.6376  1.4341
  174SAPI  C21119751   5.290   1.615   9.822  0.4976 -0.4262  0.5988
  174SAPI  H11R19752   5.206   1.544   9.814  0.5039 -0.4161  0.4435
  174SAPI  C21219753   5.318   1.698   9.717 -0.4985  0.0901 -0.1012
  174SAPI  H12R19754   5.272   1.673   9.620  2.2649  2.4431 -2.2164
  174SAPI  C21319755   5.419   1.809   9.717 -0.1417 -0.5607  0.7858
  174SAPI  H13R19756   5.515   1.766   9.754 -0.8550 -1.1380  2.0201
  174SAPI  H13S19757   5.387   1.888   9.789 -1.0082  1.1064 -1.3074
  174SAPI  C21419758   5.441   1.875   9.583 -0.2345 -0.3690 -0.1438
  174SAPI  H14R19759   5.425   1.984   9.590 -2.7602 -0.7871  2.9694
  174SAPI  C21519760   5.471   1.819   9.456 -0.4662  0.4284 -0.3633
  174SAPI  H15R19761   5.488   1.882   9.368 -2.4281  2.5032  0.6478
  174SAPI  C21619762   5.487   1.672   9.428 -0.1269  0.6798 -0.6647
  174SAPI  H16R19763   5.498   1.620   9.525 -0.2503 -2.9751 -2.4274
  174SAPI  H16S19764   5.574   1.647   9.363 -0.5556 -1.5975 -0.4354
  174SAPI  C21719765   5.361   1.605   9.358 -1.3247 -0.3130 -0.3274
  174SAPI  H17R19766   5.280   1.630   9.430 -0.6672 -1.3873  0.8378
  174SAPI  H17S19767   5.370   1.494   9.355 -1.3369 -0.2889 -1.6086
  174SAPI  C21819768   5.337   1.651   9.220  1.0622 -0.6247  0.1985
  174SAPI  H18R19769   5.361   1.760   9.216 -0.3848 -0.1179  2.9310
  174SAPI  H18S19770   5.232   1.619   9.204  1.3243 -2.4386  1.7868
  174SAPI  C21919771   5.430   1.585   9.118  0.2718  0.4368 -0.1001
  174SAPI  H19R19772   5.387   1.483   9.110  0.4142  0.4680 -1.4224
  174SAPI  H19S19773   5.532   1.580   9.162 -0.9796  0.2339  3.0383
  174SAPI  C22019774   5.422   1.645   8.988  0.0101  0.1656 -0.0562
  174SAPI  H20R19775   5.436   1.755   8.988 -2.9844  0.6682  1.4836
  174SAPI  H20S19776   5.317   1.632   8.951  0.0941 -1.4555  0.2022
  174SAPI  H20T19777   5.487   1.600   8.909  0.6921  0.5566  0.2749
  174SAPI   C3319778   5.499   1.724  10.569  0.3209 -0.2375 -0.2955
  174SAPI   H3X19779   5.555   1.697  10.661  1.5061  0.2610 -0.8524
  174SAPI   H3Y19780   5.468   1.830  10.575  0.2708 -0.3015  4.2680
  174SAPI   C3419781   5.595   1.729  10.443 -0.0660 -0.1057  0.8195
  174SAPI   H4X19782   5.662   1.817  10.445 -0.0168 -0.1308  0.3031
  174SAPI   H4Y19783   5.536   1.737  10.350  1.7562  2.4365 -0.2461
  174SAPI   C3519784   5.692   1.608  10.432  0.6116 -0.5012 -0.9467
  174SAPI   H5X19785   5.660   1.533  10.508  0.7997  1.3862  1.0979
  174SAPI   H5Y19786   5.790   1.635  10.476  0.5240 -3.0235  1.0594
  174SAPI   C3619787   5.711   1.561  10.290  0.6241 -0.5493  0.2861
  174SAPI   H6X19788   5.644   1.475  10.267  1.2588 -1.0654  0.3403
  174SAPI   H6Y19789   5.811   1.520  10.267 -0.6079 -2.5700 -1.9148
  174SAPI   C3719790   5.700   1.665  10.174 -0.2820  0.7480  0.0713
  174SAPI   H7X19791   5.602   1.716  10.161 -0.3693  0.1867 -1.8102
  174SAPI   H7Y19792   5.711   1.607  10.080 -0.2500  0.5648  0.1878
  174SAPI   C3819793   5.813   1.764  10.191 -0.0510 -1.0439  0.4493
  174SAPI   H8X19794   5.916   1.728  10.173 -0.8155 -2.8124 -0.6307
  174SAPI   H8Y19795   5.803   1.800  10.296  0.3734 -2.4228  0.9803
  174SAPI   C3919796   5.803   1.889  10.099  1.0121  0.4282  0.0894
  174SAPI   H9X19797   5.892   1.956  10.104  1.6372 -0.4461  2.0850
  174SAPI   H9Y19798   5.711   1.942  10.132 -1.5792 -2.9206 -1.2289
  174SAPI  C31019799   5.794   1.849   9.955  0.5575  0.5083  0.1243
  174SAPI  H10X19800   5.700   1.791   9.949  1.0006 -0.8585  3.8815
  174SAPI  H10Y19801   5.874   1.776   9.930 -0.6942 -0.6346 -0.6557
  174SAPI  C31119802   5.794   1.976   9.868 -0.0947  0.1506  0.1144
  174SAPI  H11X19803   5.886   2.037   9.882  0.1435 -0.1256 -0.2060
  174SAPI  H11Y19804   5.703   2.034   9.891 -1.3949 -1.6188 -0.3727
  174SAPI  C31219805   5.773   1.950   9.709 -0.1187  0.2880 -0.0511
  174SAPI  H12X19806   5.676   1.901   9.687  0.6412 -0.2666 -2.5705
  174SAPI  H12Y19807   5.851   1.877   9.676 -1.1113  0.0752 -2.1482
  174SAPI  C31319808   5.778   2.078   9.616  0.6273  0.7933 -0.2746
  174SAPI  H13X19809   5.865   2.143   9.639  0.9620 -0.0878  1.0576
  174SAPI  H13Y19810   5.684   2.133   9.640 -0.9180 -1.8007  0.0204
  174SAPI  C31419811   5.794   2.058   9.469  0.2207  0.0345 -0.1379
  174SAPI  H14X19812   5.724   1.975   9.445  0.2791 -0.5040  1.4614
  174SAPI  H14Y19813   5.895   2.014   9.449  1.3970  2.4689  0.1168
  174SAPI  C31519814   5.767   2.182   9.383 -0.3589 -0.6322  0.0921
  174SAPI  H15X19815   5.852   2.251   9.401  1.1613 -1.9410 -1.6246
  174SAPI  H15Y19816   5.676   2.231   9.423 -0.6715 -0.7907 -0.4119
  174SAPI  C31619817   5.749   2.160   9.235 -0.2847  0.0651 -0.8563
  174SAPI  H16X19818   5.722   2.255   9.185  0.0876  0.5615 -0.1420
  174SAPI  H16Y19819   5.672   2.083   9.216  1.0237 -1.1788 -1.3052
  174SAPI  C31719820   5.874   2.114   9.159 -0.2653  0.0412 -0.4178
  174SAPI  H17X19821   5.913   2.025   9.213 -0.4408 -0.2085 -0.6984
  174SAPI  H17Y19822   5.952   2.191   9.173 -1.4201  0.7493  3.4106
  174SAPI  C31819823   5.834   2.073   9.015  0.4269 -0.7434  0.4124
  174SAPI  H18X19824   5.770   1.983   9.001 -2.1400  1.0824 -0.2460
  174SAPI  H18Y19825   5.926   2.066   8.954  0.6697  2.1302  0.3228
  174SAPI  H18Z19826   5.772   2.156   8.975 -1.1107 -1.9833  0.0953
  175SAPI   C1219827   0.446   6.753   6.571  0.1386  0.4586 -0.0508
  175SAPI    H219828   0.382   6.680   6.625  1.2152  0.3275  1.0809
  175SAPI    O219829   0.431   6.873   6.638  0.1164 -0.7952 -0.1429
  175SAPI   HO219830   0.489   6.879   6.715  0.8117  0.9534 -0.7361
  175SAPI   C1319831   0.586   6.704   6.595  0.2621  0.1236 -0.7248
  175SAPI    H319832   0.606   6.601   6.556 -1.9027 -0.4149 -0.5652
  175SAPI    O319833   0.610   6.690   6.738  0.3041 -0.3657  0.2236
  175SAPI   HO319834   0.698   6.653   6.751  0.0554 -1.9683 -2.0246
  175SAPI   C1419835   0.689   6.784   6.523  0.1534 -0.1937  0.2497
  175SAPI    H419836   0.695   6.883   6.575 -1.2719 -0.9678  1.9810
  175SAPI    O419837   0.821   6.731   6.540  0.6031  0.0342  0.1301
  175SAPI   HO419838   0.882   6.805   6.539  0.7491 -0.0873  0.1362
  175SAPI   C1519839   0.653   6.812   6.372 -0.5119  0.0785  0.6426
  175SAPI    H519840   0.661   6.713   6.321  0.6918  1.0899 -1.2025
  175SAPI    O519841   0.746   6.907   6.318  0.4050 -0.4677 -0.0880
  175SAPI   HO519842   0.711   6.996   6.328  0.9650 -0.2189 -0.2710
  175SAPI   C1619843   0.505   6.857   6.359 -0.5380 -0.1211  0.4089
  175SAPI    H619844   0.496   6.956   6.409 -1.6481  0.0160 -0.0495
  175SAPI    O619845   0.478   6.876   6.216 -0.7063 -0.3704 -0.4763
  175SAPI   HO619846   0.407   6.813   6.199 -2.7570  2.1508 -1.9455
  175SAPI   C1119847   0.412   6.753   6.424 -0.0145  0.2969 -0.1587
  175SAPI    H119848   0.437   6.654   6.380  1.6202  0.7554 -0.3405
  175SAPI     P19849   0.168   6.702   6.297 -0.3920  0.0960 -0.2958
  175SAPI   O1319850   0.239   6.713   6.166  0.0418 -0.2946 -0.4327
  175SAPI   O1419851   0.033   6.753   6.311  0.7243 -0.1278  0.1244
  175SAPI   O1219852   0.268   6.777   6.404 -0.4720  0.2193 -0.2109
  175SAPI   O1119853   0.177   6.552   6.339 -0.0453 -0.1151  0.0760
  175SAPI    C119854   0.091   6.479   6.419  0.0776 -0.0371 -0.2373
  175SAPI    HA19855  -0.015   6.504   6.395  0.3828 -0.3497 -2.0566
  175SAPI    HB19856   0.094   6.369   6.403 -0.1727 -0.4529  2.1902
  175SAPI    C219857   0.114   6.499   6.573 -0.9721  0.0753  0.6552
  175SAPI    HS19858   0.115   6.608   6.593  0.0180  0.1147  0.4464
  175SAPI   O2119859   0.235   6.435   6.616  0.5197 -0.2719 -0.0989
  175SAPI   C2119860   0.273   6.460   6.744  0.0356  0.0629  0.4531
  175SAPI   O2219861   0.222   6.535   6.822  0.2190 -0.8213 -0.0774
  175SAPI   C2219862   0.388   6.370   6.784 -0.2623  0.4933 -0.3205
  175SAPI   H2R19863   0.425   6.308   6.700 -1.9507  0.4983 -1.1217
  175SAPI   H2S19864   0.477   6.430   6.812  0.9576  0.2083 -3.2285
  175SAPI    C319865  -0.013   6.445   6.649  0.4737 -0.1833  0.5955
  175SAPI    HX19866  -0.094   6.514   6.617 -0.0995 -0.2821  1.7785
  175SAPI    HY19867  -0.005   6.447   6.760 -1.9699  1.6818  0.8302
  175SAPI   O3119868  -0.049   6.312   6.611 -0.9886 -0.1977 -0.4695
  175SAPI   C3119869  -0.164   6.277   6.646  0.2734  0.1427 -0.4532
  175SAPI   O3219870  -0.239   6.346   6.710  0.5981  0.0040  0.0976
  175SAPI   C3219871  -0.206   6.135   6.621  0.2711 -0.1268  0.1981
  175SAPI   H2X19872  -0.182   6.114   6.515  0.9188 -1.0926  0.5282
  175SAPI   H2Y19873  -0.316   6.131   6.635  0.5459 -1.5512  2.4132
  175SAPI   C2319874   0.347   6.295   6.910  0.3948 -0.2243 -0.0559
  175SAPI   H3R19875   0.316   6.368   6.988 -0.5523 -0.3321 -0.3131
  175SAPI   H3S19876   0.436   6.235   6.938 -0.8879 -2.3633 -0.2774
  175SAPI   C2419877   0.232   6.194   6.887 -0.5348  0.3331  0.5185
  175SAPI   H4R19878   0.254   6.144   6.790  0.0487 -0.6516  1.1364
  175SAPI   H4S19879   0.138   6.253   6.887 -1.0096 -0.3343  2.6544
  175SAPI   C2519880   0.227   6.089   6.999  0.0725  0.6839  1.1224
  175SAPI   H5R19881   0.309   6.016   7.000 -0.3545  0.1925  0.6208
  175SAPI   C2619882   0.140   6.080   7.101  0.0352 -0.5740  0.4769
  175SAPI   H6R19883   0.161   5.997   7.170  0.5169 -1.3417 -0.5815
  175SAPI   C2719884   0.021   6.172   7.121  0.5821  0.2010  0.1523
  175SAPI   H7R19885  -0.043   6.117   7.193 -1.8931  2.3522 -0.2889
  175SAPI   H7S19886  -0.029   6.174   7.022 -2.1562 -0.8684  1.4085
  175SAPI   C2819887   0.055   6.311   7.162  0.1873  0.5319 -0.0932
  175SAPI   H8R19888   0.034   6.384   7.083  1.4954 -1.3465 -2.3312
  175SAPI   C2919889   0.093   6.354   7.280  0.0860 -0.0210  0.4794
  175SAPI   H9R19890   0.096   6.463   7.286 -0.0903  0.0044  0.1443
  175SAPI  C21019891   0.117   6.279   7.409 -0.3277  0.6356 -0.1684
  175SAPI  H10R19892   0.178   6.332   7.486  0.1135  0.6477 -0.5235
  175SAPI  H10S19893   0.163   6.183   7.377  2.0146  1.7518 -0.3881
  175SAPI  C21119894  -0.015   6.250   7.469 -0.2952  0.5210 -0.7958
  175SAPI  H11R19895  -0.091   6.221   7.396 -1.5951  3.2971 -0.6760
  175SAPI  C21219896  -0.045   6.229   7.603 -1.1906 -0.3835  0.2238
  175SAPI  H12R19897  -0.148   6.200   7.628 -1.9756  1.2102 -0.9493
  175SAPI  C21319898   0.051   6.261   7.716  0.0148  0.2125  0.2321
  175SAPI  H13R19899   0.004   6.305   7.807 -1.5154 -0.6041 -0.1376
  175SAPI  H13S19900   0.120   6.338   7.675 -1.9304  1.3871 -1.0337
  175SAPI  C21419901   0.126   6.134   7.744 -0.3064  0.8344  0.3882
  175SAPI  H14R19902   0.219   6.110   7.690 -1.9180 -1.8457 -1.4386
  175SAPI  C21519903   0.109   6.056   7.853  0.3088  0.0649  0.6734
  175SAPI  H15R19904   0.167   5.963   7.858 -0.1481 -0.5492 -2.8983
  175SAPI  C21619905   0.009   6.086   7.966 -0.1600  0.4089  0.7255
  175SAPI  H16R19906  -0.062   6.001   7.965 -0.1699  0.4171  0.6200
  175SAPI  H16S19907  -0.053   6.178   7.953 -0.5308  0.4791  2.7860
  175SAPI  C21719908   0.065   6.090   8.109 -0.4919 -0.3912 -0.4022
  175SAPI  H17R19909   0.132   6.178   8.114 -2.5074  1.1860 -0.1350
  175SAPI  H17S19910   0.120   5.997   8.136  0.5738  1.1841  3.4779
  175SAPI  C21819911  -0.038   6.101   8.220  0.0995  0.2454  0.4194
  175SAPI  H18R19912  -0.087   6.001   8.224 -1.4065  0.7631 -2.4245
  175SAPI  H18S19913  -0.118   6.169   8.185 -0.1146 -0.2827 -0.1255
  175SAPI  C21919914   0.022   6.136   8.357  0.7035  0.4719  0.1085
  175SAPI  H19R19915   0.053   6.243   8.357  0.0111  0.6800 -0.5605
  175SAPI  H19S19916   0.120   6.083   8.364  0.9869  0.7508 -1.3342
  175SAPI  C22019917  -0.053   6.087   8.479  0.9561 -0.4231 -0.1571
  175SAPI  H20R19918  -0.067   5.976   8.482 -0.0649 -0.3041  0.0072
  175SAPI  H20S19919  -0.153   6.132   8.498  0.4322 -1.0725 -1.2535
  175SAPI  H20T19920   0.010   6.117   8.566  1.2985 -1.0020 -0.1995
  175SAPI   C3319921  -0.153   6.034   6.722 -0.3613  0.4433 -0.5329
  175SAPI   H3X19922  -0.044   6.043   6.741 -0.5213  0.6272  0.3570
  175SAPI   H3Y19923  -0.173   5.939   6.667 -0.6325  0.7695 -1.0084
  175SAPI   C3419924  -0.235   6.027   6.849 -0.8276  0.5003  0.5752
  175SAPI   H4X19925  -0.342   6.003   6.830 -0.5637 -0.6297  0.4046
  175SAPI   H4Y19926  -0.243   6.124   6.902  2.4871  2.9752 -2.9677
  175SAPI   C3519927  -0.196   5.921   6.952  0.3097 -0.5263 -0.5903
  175SAPI   H5X19928  -0.104   5.951   7.007 -0.5544  0.2663  0.4668
  175SAPI   H5Y19929  -0.169   5.831   6.893 -1.7481 -1.6930  0.1656
  175SAPI   C3619930  -0.300   5.893   7.058 -0.5328 -0.2080  0.1692
  175SAPI   H6X19931  -0.405   5.874   7.027 -0.5976 -0.2916  0.4349
  175SAPI   H6Y19932  -0.322   5.972   7.133 -0.9671 -0.3531  0.1973
  175SAPI   C3719933  -0.267   5.767   7.137 -0.1048 -0.2511 -0.3241
  175SAPI   H7X19934  -0.157   5.753   7.138 -0.0437 -0.1732 -1.9985
  175SAPI   H7Y19935  -0.307   5.690   7.067 -0.4626 -0.2877 -0.0796
  175SAPI   C3819936  -0.328   5.754   7.284 -0.1365 -0.4705 -0.0754
  175SAPI   H8X19937  -0.437   5.757   7.267 -0.0015 -1.8715 -1.4091
  175SAPI   H8Y19938  -0.291   5.839   7.346 -1.4774  1.6942 -2.0759
  175SAPI   C3919939  -0.294   5.613   7.345  0.4740  0.1488 -0.3729
  175SAPI   H9X19940  -0.186   5.603   7.320  0.1300 -0.4946 -1.6579
  175SAPI   H9Y19941  -0.359   5.550   7.281 -0.9079  0.7710  0.3827
  175SAPI  C31019942  -0.331   5.589   7.491 -0.3636  0.9590  0.5817
  175SAPI  H10X19943  -0.323   5.483   7.524 -1.0829  0.2905 -1.2914
  175SAPI  H10Y19944  -0.439   5.616   7.501 -0.5880  0.3692 -0.2012
  175SAPI  C31119945  -0.237   5.670   7.583 -0.0020 -0.0329 -0.0022
  175SAPI  H11X19946  -0.273   5.664   7.688  0.9354 -0.0463  0.3290
  175SAPI  H11Y19947  -0.221   5.776   7.554  1.7138 -0.3531 -0.3155
  175SAPI  C31219948  -0.092   5.616   7.597 -0.0361  0.0836 -0.6031
  175SAPI  H12X19949  -0.051   5.619   7.494 -1.1968 -1.7042 -1.1674
  175SAPI  H12Y19950  -0.096   5.510   7.630  0.1596 -0.1898 -1.4320
  175SAPI  C31319951  -0.019   5.698   7.697 -0.1331 -0.4423 -0.3858
  175SAPI  H13X19952  -0.014   5.799   7.652 -0.0233  0.0458  0.6881
  175SAPI  H13Y19953   0.087   5.667   7.694  0.3346  0.9528  0.6724
  175SAPI  C31419954  -0.057   5.699   7.851 -0.2387 -0.4596  0.2281
  175SAPI  H14X19955  -0.156   5.747   7.867  0.5413  0.9328  1.2180
  175SAPI  H14Y19956   0.009   5.769   7.908 -0.7558  0.0419  0.2190
  175SAPI  C31519957  -0.063   5.557   7.912 -0.7341  0.0850 -0.2572
  175SAPI  H15X19958   0.037   5.511   7.894 -0.8442  0.1075 -0.9539
  175SAPI  H15Y19959  -0.134   5.488   7.862  0.0266 -0.9949  0.1138
  175SAPI  C31619960  -0.091   5.547   8.064  0.1075 -0.1121  0.0971
  175SAPI  H16X19961  -0.079   5.446   8.110 -1.8164  0.0210  0.9977
  175SAPI  H16Y19962  -0.200   5.570   8.066 -0.0362 -0.4172 -2.1770
  175SAPI  C31719963  -0.011   5.649   8.149  0.9070  0.0053 -0.0973
  175SAPI  H17X19964  -0.007   5.749   8.101 -3.5357 -0.4077 -1.7750
  175SAPI  H17Y19965   0.087   5.598   8.137 -0.1327 -2.5934  1.5649
  175SAPI  C31819966  -0.042   5.652   8.300 -0.2402 -0.3238  0.2664
  175SAPI  H18X19967  -0.138   5.703   8.324  0.5292  0.6681  1.3276
  175SAPI  H18Y19968   0.047   5.708   8.336 -1.7215  1.0725  1.9268
  175SAPI  H18Z19969  -0.040   5.552   8.350 -1.3772 -0.6781 -0.3504
  176SAPI   C1219970   5.842   3.065   6.345 -0.3798 -0.6015  0.3800
  176SAPI    H219971   5.823   3.018   6.444 -1.7607 -0.3344  0.2654
  176SAPI    O219972   5.904   2.964   6.263 -0.5348 -0.1866 -0.4404
  176SAPI   HO219973   5.935   2.891   6.316  0.2269  0.6326  0.2747
  176SAPI   C1319974   5.704   3.111   6.307 -0.2722  0.7789 -0.3502
  176SAPI    H319975   5.670   3.183   6.385  2.4726  2.2122 -0.3490
  176SAPI    O319976   5.622   2.993   6.297 -0.0396  0.0335 -0.1612
  176SAPI   HO319977   5.530   3.022   6.290 -1.7263 -3.6892  3.0336
  176SAPI   C1419978   5.720   3.195   6.181  0.3701  0.2385  0.4493
  176SAPI    H419979   5.759   3.129   6.100  0.9112  0.7296  0.3028
  176SAPI    O419980   5.597   3.247   6.133 -0.3565  0.0470 -0.4420
  176SAPI   HO419981   5.531   3.242   6.202 -1.1991  0.2001 -1.2083
  176SAPI   C1519982   5.819   3.310   6.190 -0.1736  0.1519  0.6169
  176SAPI    H519983   5.775   3.390   6.254 -2.4859 -0.8088  0.3332
  176SAPI    O519984   5.835   3.378   6.063  0.4236 -0.4592  0.4550
  176SAPI   HO519985   5.887   3.320   6.008  1.6604 -0.3632  1.4803
  176SAPI   C1619986   5.951   3.256   6.233 -1.2070  0.7090  0.2098
  176SAPI    H619987   5.984   3.184   6.155  0.6530  2.1060 -0.3664
  176SAPI    O619988   6.051   3.354   6.248  0.7955 -0.8656 -0.1228
  176SAPI   HO619989   6.100   3.357   6.330  0.1173 -0.2120  0.2773
  176SAPI   C1119990   5.934   3.183   6.366 -0.4024 -0.1179  0.6405
  176SAPI    H119991   5.879   3.263   6.419 -1.4214 -0.1856 -0.2758
  176SAPI     P19992   6.066   3.101   6.584  0.4385  0.1643  0.3220
  176SAPI   O1319993   6.146   2.976   6.593 -0.3249  0.2225 -0.1705
  176SAPI   O1419994   5.935   3.103   6.644 -0.8558 -0.8959 -0.8451
  176SAPI   O1219995   6.061   3.146   6.423 -0.1939 -0.2801 -0.0306
  176SAPI   O1119996   6.150   3.223   6.645  0.6937  0.1805 -0.2564
  176SAPI    C119997   6.224   3.205   6.771  0.4237 -0.5123  0.9092
  176SAPI    HA19998   6.195   3.109   6.819 -1.7038 -0.2924  0.1554
  176SAPI    HB19999   6.334   3.205   6.752  0.2334  0.0832 -0.2864
  176SAPI    C220000   6.197   3.315   6.870 -0.4002 -0.5749  1.1803
  176SAPI    HS20001   6.248   3.403   6.826  0.0426 -0.9628  0.9061
  176SAPI   O2120002   6.251   3.264   6.995 -0.6520 -0.2677  0.1656
  176SAPI   C2120003   6.314   3.360   7.061 -0.0621  0.0978  1.2233
  176SAPI   O2220004   6.309   3.481   7.034  0.8453  0.1111 -0.3161
  176SAPI   C2220005   6.396   3.305   7.176  0.1962  0.4664  0.3292
  176SAPI   H2R20006   6.464   3.232   7.128 -0.8934 -1.4774  1.5803
  176SAPI   H2S20007   6.450   3.395   7.212  0.9298  0.0465  0.2755
  176SAPI    C320008   6.044   3.346   6.871 -0.5529  0.4859 -0.4478
  176SAPI    HX20009   5.991   3.256   6.909  0.9005 -0.7821 -1.2812
  176SAPI    HY20010   5.998   3.371   6.772 -0.3448  0.9067 -0.4386
  176SAPI   O3120011   6.015   3.445   6.970 -0.2094 -0.1681  0.4878
  176SAPI   C3120012   6.034   3.566   6.931 -0.2547  0.0935 -0.8006
  176SAPI   O3220013   6.028   3.603   6.814 -0.2310 -0.1320 -0.0023
  176SAPI   C3220014   6.043   3.662   7.053 -0.4751 -0.0014 -0.0437
  176SAPI   H2X20015   6.018   3.762   7.012  0.0202 -0.9217 -2.8013
  176SAPI   H2Y20016   6.142   3.683   7.100 -0.6796  1.1803 -0.1056
  176SAPI   C2320017   6.324   3.227   7.290  0.5619  0.1462  0.0682
  176SAPI   H3R20018   6.402   3.196   7.362  1.0829  1.9595  0.3256
  176SAPI   H3S20019   6.285   3.133   7.245  1.0270 -0.5928  1.1854
  176SAPI   C2420020   6.210   3.302   7.368  0.7739  0.0043 -0.2537
  176SAPI   H4R20021   6.116   3.310   7.309  0.7578 -1.8490 -0.5205
  176SAPI   H4S20022   6.251   3.399   7.406 -0.7968 -0.3320  2.5439
  176SAPI   C2520023   6.185   3.215   7.492  0.4689 -0.1460 -0.2487
  176SAPI   H5R20024   6.211   3.108   7.497  0.0840 -0.3367 -1.7854
  176SAPI   C2620025   6.129   3.253   7.607  0.1302 -1.0147  0.9113
  176SAPI   H6R20026   6.115   3.190   7.696 -0.3189  0.4032  1.8678
  176SAPI   C2720027   6.086   3.391   7.632  0.1989 -0.4355  0.0861
  176SAPI   H7R20028   5.988   3.390   7.684  1.3088  1.7140  2.4028
  176SAPI   H7S20029   6.063   3.437   7.534  1.7948 -0.5409 -0.3692
  176SAPI   C2820030   6.185   3.478   7.705  0.1818 -0.6149 -0.2763
  176SAPI   H8R20031   6.218   3.454   7.807  2.5126  0.4060 -0.7277
  176SAPI   C2920032   6.230   3.597   7.663  0.0855 -0.1295 -0.6547
  176SAPI   H9R20033   6.287   3.662   7.730 -0.1222 -1.4807  0.8737
  176SAPI  C21020034   6.194   3.665   7.537  0.0639 -0.5525  0.0092
  176SAPI  H10R20035   6.083   3.661   7.528 -0.1625  0.6537  1.6496
  176SAPI  H10S20036   6.236   3.619   7.446  2.4600 -1.0357  1.2897
  176SAPI  C21120037   6.224   3.816   7.535  0.2803  0.2716  0.0424
  176SAPI  H11R20038   6.173   3.878   7.610 -0.3203 -0.8283  0.5738
  176SAPI  C21220039   6.302   3.866   7.437 -0.1857 -0.0726 -0.2123
  176SAPI  H12R20040   6.318   3.974   7.442 -0.0729 -0.1103  0.3611
  176SAPI  C21320041   6.357   3.787   7.322  0.0701 -0.2961 -0.0406
  176SAPI  H13R20042   6.279   3.738   7.260  1.0849 -0.9567 -0.8140
  176SAPI  H13S20043   6.398   3.698   7.374 -1.5135 -1.2843 -0.3906
  176SAPI  C21420044   6.454   3.861   7.232  1.0269 -0.7683 -0.1384
  176SAPI  H14R20045   6.413   3.957   7.197 -2.0201 -0.9420  2.4311
  176SAPI  C21520046   6.578   3.826   7.203 -0.5445 -0.1957  0.3848
  176SAPI  H15R20047   6.637   3.889   7.134  3.2982 -3.0555  0.7391
  176SAPI  C21620048   6.655   3.701   7.253 -0.1044  0.0072 -0.5371
  176SAPI  H16R20049   6.593   3.634   7.316  0.6082  1.1374  1.4769
  176SAPI  H16S20050   6.742   3.723   7.320 -0.8711  1.7578 -0.0468
  176SAPI  C21720051   6.712   3.617   7.133 -0.1960  0.0033  0.0398
  176SAPI  H17R20052   6.787   3.679   7.080 -0.7817  0.1885 -0.5909
  176SAPI  H17S20053   6.643   3.594   7.049 -0.6486  0.9893  0.1260
  176SAPI  C21820054   6.787   3.489   7.181  0.5643  0.1948 -0.1359
  176SAPI  H18R20055   6.712   3.415   7.216  1.1838 -0.7065 -0.6980
  176SAPI  H18S20056   6.860   3.523   7.258  0.5160  0.8482 -0.3746
  176SAPI  C21920057   6.867   3.414   7.078  0.5126  0.0879  0.4205
  176SAPI  H19R20058   6.937   3.486   7.030 -1.8963  3.3889  1.4466
  176SAPI  H19S20059   6.789   3.375   7.009 -1.2953  0.9759  1.8554
  176SAPI  C22020060   6.941   3.290   7.131  0.0038  0.2986  0.3659
  176SAPI  H20R20061   6.982   3.304   7.234 -0.4163  0.1492  0.5557
  176SAPI  H20S20062   7.019   3.259   7.059  0.0453  0.9927  0.0998
  176SAPI  H20T20063   6.868   3.206   7.138  1.6618 -1.0949  1.8352
  176SAPI   C3320064   5.930   3.645   7.162 -0.0480  1.0533  0.5690
  176SAPI   H3X20065   5.953   3.563   7.234 -3.1006 -0.8642 -0.4538
  176SAPI   H3Y20066   5.837   3.618   7.109  0.1957  0.9831  0.1721
  176SAPI   C3420067   5.902   3.772   7.241 -0.7454 -0.0343 -0.5230
  176SAPI   H4X20068   5.852   3.852   7.183  0.7078  1.8336  0.6860
  176SAPI   H4Y20069   6.004   3.814   7.253  0.1629 -1.7005 -1.9374
  176SAPI   C3520070   5.835   3.725   7.370  0.9766  0.3201 -0.0660
  176SAPI   H5X20071   5.908   3.675   7.437  3.0517  0.1519 -2.3057
  176SAPI   H5Y20072   5.751   3.660   7.339 -0.6582  2.1957  0.2438
  176SAPI   C3620073   5.757   3.845   7.441 -0.2161 -0.3669 -0.1374
  176SAPI   H6X20074   5.677   3.797   7.502  0.4482 -0.3590  0.7735
  176SAPI   H6Y20075   5.702   3.917   7.377  0.0556  1.5431  1.6639
  176SAPI   C3720076   5.853   3.919   7.530 -0.2055  0.8118 -0.3527
  176SAPI   H7X20077   5.894   4.000   7.467  2.1661 -0.3404 -0.3968
  176SAPI   H7Y20078   5.932   3.851   7.568  0.1596  1.2164 -0.3895
  176SAPI   C3820079   5.786   3.981   7.655  0.0417  0.5748  0.6870
  176SAPI   H8X20080   5.685   4.027   7.643  1.1051  2.6936 -0.9170
  176SAPI   H8Y20081   5.845   4.070   7.685  0.7221 -0.0312  1.1576
  176SAPI   C3920082   5.786   3.874   7.770  0.6842 -0.2377  0.5692
  176SAPI   H9X20083   5.806   3.931   7.863 -2.0932  0.5541  0.7909
  176SAPI   H9Y20084   5.869   3.801   7.760 -1.0036 -2.2076  0.3040
  176SAPI  C31020085   5.650   3.801   7.782 -0.5137  0.0195 -0.0084
  176SAPI  H10X20086   5.669   3.710   7.721  1.9428  0.5342 -0.0979
  176SAPI  H10Y20087   5.566   3.852   7.730 -0.1885  1.7539  1.0928
  176SAPI  C31120088   5.603   3.752   7.921  0.0474 -0.3437 -0.1222
  176SAPI  H11X20089   5.688   3.740   7.992  0.3864 -0.9689 -0.6244
  176SAPI  H11Y20090   5.573   3.646   7.910  0.1811 -0.4123  0.1664
  176SAPI  C31220091   5.502   3.840   7.993 -0.0400 -0.3704  0.3946
  176SAPI  H12X20092   5.408   3.834   7.933 -0.7644  0.4566  1.4159
  176SAPI  H12Y20093   5.538   3.945   7.999  1.4240 -0.9283  2.2431
  176SAPI  C31320094   5.478   3.805   8.140 -0.4134 -0.0060 -0.0390
  176SAPI  H13X20095   5.574   3.814   8.196 -0.5443  2.7819 -0.1439
  176SAPI  H13Y20096   5.446   3.698   8.145 -0.9316  0.1508  0.0701
  176SAPI  C31420097   5.361   3.891   8.194  0.0066  0.9714 -0.0858
  176SAPI  H14X20098   5.269   3.873   8.135  0.9712 -1.7026 -0.8967
  176SAPI  H14Y20099   5.384   4.000   8.188  1.8917  0.7071  1.3532
  176SAPI  C31520100   5.335   3.875   8.343 -0.5764  0.3032 -0.6064
  176SAPI  H15X20101   5.319   3.979   8.379 -0.8026  1.2296 -3.1594
  176SAPI  H15Y20102   5.420   3.825   8.395 -1.1126  0.5877  0.5679
  176SAPI  C31620103   5.205   3.798   8.368 -0.1366  0.0985 -0.2650
  176SAPI  H16X20104   5.242   3.700   8.331 -1.3803 -0.0763 -1.0810
  176SAPI  H16Y20105   5.133   3.843   8.297  1.3750  1.9024 -0.7218
  176SAPI  C31720106   5.162   3.774   8.516 -0.2840 -0.4250  0.4986
  176SAPI  H17X20107   5.062   3.730   8.495  0.4990 -1.4794 -1.2325
  176SAPI  H17Y20108   5.145   3.869   8.571  1.3800 -0.1252  0.5365
  176SAPI  C31820109   5.256   3.687   8.598 -0.2296  0.1132 -0.4995
  176SAPI  H18X20110   5.246   3.724   8.702  1.1679  0.6406 -0.5225
  176SAPI  H18Y20111   5.361   3.693   8.561 -0.4281  1.7563 -0.8826
  176SAPI  H18Z20112   5.237   3.579   8.582 -0.3541  0.2558 -1.3638
  177SLPC     N20113   5.246   0.740  11.144  0.1441  0.5184  0.3168
  177SLPC   C1320114   5.221   0.866  11.219 -0.5238  0.5983 -0.2676
  177SLPC  H13A20115   5.240   0.850  11.324 -0.8638  1.4481 -0.0637
  177SLPC  H13B20116   5.296   0.935  11.185 -0.0996 -0.4505 -1.5476
  177SLPC  H13C20117   5.122   0.909  11.215  0.1797  2.4477  0.7827
  177SLPC   C1420118   5.139   0.653  11.180 -0.0689  0.0463 -0.4882
  177SLPC  H14A20119   5.042   0.684  11.143  0.3883  1.1058 -0.8357
  177SLPC  H14B20120   5.148   0.550  11.148 -1.6651 -1.0912  2.3587
  177SLPC  H14C20121   5.130   0.646  11.287  0.0495 -2.2602 -0.5855
  177SLPC   C1520122   5.368   0.665  11.189 -0.4456 -0.4349  0.4452
  177SLPC  H15A20123   5.457   0.703  11.141 -0.7012  2.7612  2.2623
  177SLPC  H15B20124   5.382   0.678  11.295 -3.0882 -2.2398  1.1215
  177SLPC  H15C20125   5.350   0.559  11.177 -0.9976 -0.1033 -2.3000
  177SLPC   C1220126   5.244   0.757  10.993 -0.0966  0.2706  0.0305
  177SLPC  H12A20127   5.144   0.785  10.965 -0.5106 -2.0992 -1.0956
  177SLPC  H12B20128   5.254   0.664  10.938 -0.0029  1.8382 -2.7774
  177SLPC   C1120129   5.352   0.847  10.929  0.1731 -0.0602  1.0635
  177SLPC  H11A20130   5.353   0.951  10.966 -2.1613  0.8247 -1.0632
  177SLPC  H11B20131   5.326   0.861  10.822  1.1662 -0.1602  0.7961
  177SLPC     P20132   5.540   0.668  10.878  0.0662  0.1165 -0.2163
  177SLPC   O1320133   5.651   0.617  10.965 -0.7108  0.7281 -0.1858
  177SLPC   O1420134   5.437   0.573  10.835  0.1355  0.2311 -0.2873
  177SLPC   O1220135   5.485   0.795  10.948  0.4228 -0.2349  0.4955
  177SLPC   O1120136   5.605   0.722  10.747  0.7473  0.3668 -0.0318
  177SLPC    C120137   5.553   0.794  10.642 -0.0622 -0.6523  0.1634
  177SLPC    HA20138   5.546   0.729  10.552  4.0950 -3.2152  1.4477
  177SLPC    HB20139   5.453   0.837  10.665  0.2632 -0.1443  0.6560
  177SLPC    C220140   5.644   0.910  10.595 -1.0519  0.3509 -1.2696
  177SLPC    HS20141   5.596   0.975  10.518 -0.7920  1.7831 -0.2599
  177SLPC   O2120142   5.765   0.849  10.548  0.9059 -0.0573  0.8457
  177SLPC   C2120143   5.764   0.789  10.433 -0.3034 -0.1116 -0.0223
  177SLPC   O2220144   5.679   0.795  10.347  0.1814  0.3965 -0.7463
  177SLPC   C2220145   5.907   0.721  10.413  0.7970  1.3183 -0.5837
  177SLPC   H2R20146   5.996   0.786  10.431 -1.2777  3.7478  1.7027
  177SLPC   H2S20147   5.919   0.643  10.490  3.4637 -1.3450 -3.4041
  177SLPC    C320148   5.666   1.001  10.722 -0.1666  0.4020 -0.1750
  177SLPC    HX20149   5.699   0.929  10.800 -0.0990 -1.0493 -1.4806
  177SLPC    HY20150   5.573   1.043  10.766  1.3750  1.8813  1.8657
  177SLPC   O3120151   5.768   1.098  10.702  0.1083 -0.3727  0.3461
  177SLPC   C3120152   5.732   1.197  10.622 -0.5802 -0.3450  0.2709
  177SLPC   O3220153   5.618   1.212  10.587 -0.4149 -0.4138  0.3520
  177SLPC   C3220154   5.854   1.285  10.585  0.4208  0.1251  0.4301
  177SLPC   H2X20155   5.881   1.344  10.676 -2.1281  1.0027  0.6881
  177SLPC   H2Y20156   5.822   1.373  10.526  1.3050  1.2894  1.6150
  177SLPC   C2320157   5.922   0.663  10.264  0.1655  0.1235 -0.6771
  177SLPC   H3R20158   5.890   0.748  10.200  0.2490  0.8382  0.2192
  177SLPC   H3S20159   5.843   0.585  10.252 -2.3246  2.6295 -2.0301
  177SLPC   C2420160   6.056   0.612  10.232 -0.1658  0.3188 -0.2011
  177SLPC   H4R20161   6.110   0.561  10.315  0.4400  0.1287 -0.7090
  177SLPC   H4S20162   6.123   0.695  10.197  0.3803  0.3364  0.8315
  177SLPC   C2520163   6.055   0.516  10.111  0.3657 -0.0183 -0.0616
  177SLPC   H5R20164   6.003   0.420  10.136  0.6166  0.5457  3.0644
  177SLPC   H5S20165   6.160   0.494  10.083  0.9533  0.2915  1.7595
  177SLPC   C2620166   5.988   0.589   9.993 -0.0007  0.2359  0.2063
  177SLPC   H6R20167   6.015   0.697   9.992 -1.7691  0.7190 -1.5882
  177SLPC   H6S20168   5.881   0.576  10.019  0.9609 -3.0847  3.2881
  177SLPC   C2720169   6.024   0.524   9.857  0.6214 -0.4582 -0.1871
  177SLPC   H7R20170   5.986   0.420   9.856  2.4802 -1.1596 -0.6934
  177SLPC   H7S20171   6.134   0.517   9.849  0.8553  1.2559  0.8740
  177SLPC   C2820172   5.962   0.608   9.743 -0.2749 -0.6709  0.1989
  177SLPC   H8R20173   6.036   0.691   9.732  1.5459 -1.9220  2.2853
  177SLPC   H8S20174   5.864   0.644   9.780 -0.8359 -0.2959 -1.5514
  177SLPC   C2920175   5.945   0.512   9.626  0.6961 -0.3481  0.6922
  177SLPC   H9R20176   5.898   0.414   9.642  2.2055 -1.6580 -2.0701
  177SLPC  C21020177   6.003   0.534   9.504 -0.2548 -0.1835 -0.5801
  177SLPC  H10R20178   5.974   0.463   9.426  1.2077  0.4977 -1.7984
  177SLPC  C21120179   6.085   0.659   9.471 -0.0266  0.8599  0.1969
  177SLPC  H11R20180   6.018   0.717   9.405  0.4744  0.3952 -0.7468
  177SLPC  H11S20181   6.111   0.713   9.565  0.0984  1.1170  0.0145
  177SLPC  C21220182   6.212   0.626   9.393 -0.0427  0.0260 -0.3013
  177SLPC  H12R20183   6.262   0.530   9.410 -2.1260 -1.3369 -1.3846
  177SLPC  C21320184   6.263   0.700   9.291 -0.6405  0.0634 -0.6153
  177SLPC  H13R20185   6.367   0.682   9.261  1.6099  3.7682  3.5888
  177SLPC  C21420186   6.223   0.828   9.232  0.3351 -0.3630 -0.4502
  177SLPC  H14R20187   6.320   0.877   9.207 -0.2999  0.4420 -1.4174
  177SLPC  H14S20188   6.163   0.898   9.293  2.3946  2.5683 -1.5755
  177SLPC  C21520189   6.135   0.793   9.110  0.2270  0.6054  0.2590
  177SLPC  H15R20190   6.092   0.886   9.068  0.8353  0.9204  0.3128
  177SLPC  H15S20191   6.052   0.728   9.145  0.0744 -0.1704 -1.4797
  177SLPC  C21620192   6.197   0.723   8.995 -0.5390  0.3425 -0.3983
  177SLPC  H16R20193   6.132   0.704   8.907  1.0151  1.7325 -1.9171
  177SLPC  H16S20194   6.238   0.622   9.021 -0.0979  0.4648 -0.6173
  177SLPC  C21720195   6.326   0.795   8.941  0.4376  0.2900  0.0067
  177SLPC  H17R20196   6.396   0.819   9.024  0.6492  1.4976 -0.4925
  177SLPC  H17S20197   6.280   0.885   8.895  0.0956 -0.5819 -1.3875
  177SLPC  C21820198   6.401   0.724   8.832  0.0132  0.2040  0.3955
  177SLPC  H18R20199   6.498   0.773   8.810 -0.6364  1.7394  0.8028
  177SLPC  H18S20200   6.343   0.691   8.744  1.7250 -0.7859 -0.4171
  177SLPC  H18T20201   6.436   0.628   8.877 -0.1390  0.3924  0.9277
  177SLPC   C3320202   5.961   1.199  10.522  0.4272  0.2983  0.0439
  177SLPC   H3X20203   5.988   1.105  10.575  1.8707 -0.1045 -1.3309
  177SLPC   H3Y20204   6.049   1.264  10.503  0.5886 -0.3665 -1.6305
  177SLPC   C3420205   5.922   1.157  10.381 -0.0093 -0.0135  0.5216
  177SLPC   H4X20206   5.937   1.255  10.330 -2.1538  0.6102  0.9897
  177SLPC   H4Y20207   5.818   1.123  10.360  0.1114  0.0587 -0.2013
  177SLPC   C3520208   6.012   1.048  10.326  0.2596 -0.5023  0.7639
  177SLPC   H5X20209   5.941   0.964  10.316 -0.7268 -0.0157  3.1010
  177SLPC   H5Y20210   6.092   1.012  10.395  0.7299 -1.1571 -0.1008
  177SLPC   C3620211   6.073   1.080  10.191 -0.1306 -0.1730  0.2564
  177SLPC   H6X20212   6.165   1.140  10.204 -1.6736  2.3206  0.4277
  177SLPC   H6Y20213   5.998   1.140  10.135  0.3508  0.6898  0.5136
  177SLPC   C3720214   6.117   0.955  10.114  0.3903 -0.4447  0.2494
  177SLPC   H7X20215   6.037   0.881  10.091  1.3833 -1.1608 -1.0644
  177SLPC   H7Y20216   6.188   0.907  10.185 -0.0880  2.5556  2.9867
  177SLPC   C3820217   6.188   0.984   9.982 -0.1019 -0.0244 -0.2488
  177SLPC   H8X20218   6.262   0.903   9.963 -0.5127 -0.0551 -1.9115
  177SLPC   H8Y20219   6.249   1.077   9.985  1.8287 -1.1442 -1.8962
  177SLPC   C3920220   6.098   0.994   9.863  0.7534 -0.8343  0.3395
  177SLPC   H9X20221   6.020   1.071   9.879  0.9586 -0.2523 -1.3118
  177SLPC   H9Y20222   6.051   0.894   9.847  0.7827 -0.6793 -0.7913
  177SLPC  C31020223   6.160   1.020   9.722  0.1635  0.5069  0.2698
  177SLPC  H10X20224   6.183   1.129   9.713  2.0283  0.5732  3.8452
  177SLPC  H10Y20225   6.084   1.002   9.643 -0.0007 -0.0658  0.5533
  177SLPC  C31120226   6.289   0.929   9.694 -0.1823 -0.2834  0.1980
  177SLPC  H11X20227   6.287   0.900   9.587  2.0772 -0.5168  0.1804
  177SLPC  H11Y20228   6.270   0.832   9.744 -2.9880 -0.2749 -0.6340
  177SLPC  C31220229   6.421   1.003   9.721  0.0618  0.4016 -0.2447
  177SLPC  H12X20230   6.427   1.005   9.832  0.0997  2.5809 -0.2540
  177SLPC  H12Y20231   6.408   1.101   9.671 -1.3581 -0.7825 -2.3670
  177SLPC  C31320232   6.546   0.937   9.661 -0.8445  0.1843 -0.0539
  177SLPC  H13X20233   6.557   0.841   9.716  1.4863 -0.1030 -0.8820
  177SLPC  H13Y20234   6.627   1.003   9.700 -0.9252 -1.3244  2.9903
  177SLPC  C31420235   6.550   0.925   9.512  0.1025 -0.5101  0.0656
  177SLPC  H14X20236   6.533   1.027   9.472  0.1148 -0.5243  0.0238
  177SLPC  H14Y20237   6.453   0.879   9.484 -0.1213  0.2243 -0.3781
  177SLPC  C31520238   6.672   0.846   9.462 -0.0520  0.4617  0.0333
  177SLPC  H15X20239   6.671   0.745   9.507  3.3503 -0.1802 -1.0023
  177SLPC  H15Y20240   6.766   0.900   9.487 -1.6759  3.8677 -0.5969
  177SLPC  C31620241   6.684   0.820   9.307 -0.5398 -0.7036  0.1323
  177SLPC  H16X20242   6.588   0.782   9.266 -1.0147  2.2490 -1.7896
  177SLPC  H16Y20243   6.763   0.743   9.300  0.9368  0.6406  1.2840
  177SLPC  C31720244   6.708   0.944   9.232 -0.5711 -0.2342 -0.1599
  177SLPC  H17X20245   6.801   0.987   9.275  0.9155 -1.6953 -1.7543
  177SLPC  H17Y20246   6.629   1.020   9.246 -0.3491 -0.0442  0.1016
  177SLPC  C31820247   6.746   0.932   9.081 -0.1695  0.0229  0.1955
  177SLPC  H18X20248   6.662   0.876   9.036  0.1419 -1.6308  1.5919
  177SLPC  H18Y20249   6.849   0.892   9.065  0.7187  1.1032  2.6677
  177SLPC  H18Z20250   6.749   1.036   9.041  1.8250  0.3732  1.1102
  178SLPC     N20251   2.967   3.249  10.835  0.2922 -0.0351  0.1764
  178SLPC   C1320252   3.089   3.185  10.765  0.3170 -0.0919 -0.2115
  178SLPC  H13A20253   3.135   3.114  10.831 -2.2911 -0.3581  1.4969
  178SLPC  H13B20254   3.062   3.133  10.674 -0.0538  0.6038 -0.5115
  178SLPC  H13C20255   3.167   3.253  10.737  0.0906  0.4687  0.4678
  178SLPC   C1420256   2.886   3.334  10.738  0.3141  0.0941 -0.6317
  178SLPC  H14A20257   2.794   3.383  10.764 -0.6334 -1.4705 -0.9002
  178SLPC  H14B20258   2.950   3.416  10.709 -2.0127  1.5198 -1.9511
  178SLPC  H14C20259   2.875   3.270  10.651  1.4419 -1.0053 -0.0070
  178SLPC   C1520260   3.021   3.342  10.940  0.2362 -0.2767  0.7067
  178SLPC  H15A20261   3.088   3.410  10.890 -1.0735 -0.8673 -2.0353
  178SLPC  H15B20262   2.937   3.396  10.981 -0.0787 -0.9453  0.9725
  178SLPC  H15C20263   3.066   3.287  11.021  2.6529 -0.7489 -0.8531
  178SLPC   C1220264   2.869   3.147  10.885 -0.2851  0.2556  0.5287
  178SLPC  H12A20265   2.827   3.088  10.804 -0.4934 -2.7661  2.6701
  178SLPC  H12B20266   2.785   3.200  10.926 -1.1279  0.8801 -1.8555
  178SLPC   C1120267   2.916   3.039  10.987 -0.0645  0.2911 -0.2605
  178SLPC  H11A20268   2.819   2.992  11.012 -0.1804  0.0748 -1.0732
  178SLPC  H11B20269   2.956   3.079  11.082  0.4228 -0.6011 -0.0816
  178SLPC     P20270   2.965   2.828  10.821  0.0049  0.0307  0.5339
  178SLPC   O1320271   3.081   2.798  10.736  0.6957  0.0377 -0.0899
  178SLPC   O1420272   2.903   2.718  10.898  0.0105  0.6201  0.2983
  178SLPC   O1220273   3.007   2.939  10.921  0.5167 -0.5712  0.0655
  178SLPC   O1120274   2.854   2.892  10.737 -0.0492  0.1700  0.2475
  178SLPC    C120275   2.715   2.857  10.737 -0.2737 -0.2494 -0.2266
  178SLPC    HA20276   2.674   2.816  10.832 -2.0106  0.4865 -0.6331
  178SLPC    HB20277   2.656   2.946  10.710  0.1061  0.0138 -0.2038
  178SLPC    C220278   2.696   2.741  10.638  0.5524 -0.0896  0.4476
  178SLPC    HS20279   2.764   2.658  10.664 -0.3134 -0.5388  1.3014
  178SLPC   O2120280   2.719   2.796  10.504 -0.4272  0.9894  0.4516
  178SLPC   C2120281   2.804   2.728  10.431  0.1155 -0.4777 -0.0086
  178SLPC   O2220282   2.855   2.624  10.463  0.4201 -0.0337  0.0614
  178SLPC   C2220283   2.841   2.810  10.305 -1.1923 -0.1674 -0.1900
  178SLPC   H2R20284   2.750   2.860  10.264 -1.4345  2.0197  2.6942
  178SLPC   H2S20285   2.912   2.890  10.334  1.0988 -1.6262 -1.4920
  178SLPC    C320286   2.554   2.696  10.652 -0.2173  0.7854  0.0532
  178SLPC    HX20287   2.501   2.786  10.614  2.0280  2.5255  0.8249
  178SLPC    HY20288   2.515   2.681  10.755 -1.6489  2.2851 -0.2437
  178SLPC   O3120289   2.534   2.581  10.570 -0.0750 -0.5762  0.2861
  178SLPC   C3120290   2.581   2.471  10.617 -0.0845  0.0594 -0.5771
  178SLPC   O3220291   2.638   2.455  10.721  0.1632  0.0730  0.4407
  178SLPC   C3220292   2.567   2.350  10.523  0.0053  0.1411  1.2133
  178SLPC   H2X20293   2.461   2.315  10.522  0.0292  0.0577  0.0130
  178SLPC   H2Y20294   2.636   2.280  10.573  1.6045  2.2147  2.0272
  178SLPC   C2320295   2.909   2.714  10.207  0.5536  0.2124  0.2426
  178SLPC   H3R20296   2.952   2.619  10.243 -0.5155 -0.4015 -0.0540
  178SLPC   H3S20297   2.989   2.775  10.159  1.9474 -1.1586  0.7556
  178SLPC   C2420298   2.809   2.677  10.095  0.1507 -0.5872  0.1930
  178SLPC   H4R20299   2.775   2.770  10.046  0.6830 -0.2610  0.4388
  178SLPC   H4S20300   2.728   2.611  10.133 -0.4825  0.3770  0.5618
  178SLPC   C2520301   2.876   2.607   9.980  0.4325  0.1444 -0.3907
  178SLPC   H5R20302   2.925   2.515  10.018  1.8534  1.0764  0.1034
  178SLPC   H5S20303   2.949   2.661   9.916  0.7558 -2.7168 -2.6977
  178SLPC   C2620304   2.781   2.554   9.867 -0.3482  0.0867 -0.4525
  178SLPC   H6R20305   2.760   2.641   9.800  2.0163 -0.0306 -1.4647
  178SLPC   H6S20306   2.688   2.521   9.917 -0.2505  0.8296  0.2470
  178SLPC   C2720307   2.835   2.447   9.777 -0.4013  0.5999 -0.2492
  178SLPC   H7R20308   2.852   2.349   9.827  1.3437  1.2900  0.5728
  178SLPC   H7S20309   2.938   2.480   9.749  1.1361 -2.4022  1.3651
  178SLPC   C2820310   2.747   2.410   9.652 -0.0747 -0.5250  0.5639
  178SLPC   H8R20311   2.720   2.495   9.585  0.9791  0.4251  1.3051
  178SLPC   H8S20312   2.651   2.376   9.696 -0.8685 -2.6552 -2.5183
  178SLPC   C2920313   2.798   2.296   9.566  0.8675  0.6737 -0.3188
  178SLPC   H9R20314   2.905   2.278   9.581  0.6683  0.5622  1.0687
  178SLPC  C21020315   2.739   2.225   9.463  1.1839  0.6430 -0.2037
  178SLPC  H10R20316   2.792   2.136   9.426  0.3467 -1.2860  2.8563
  178SLPC  C21120317   2.601   2.240   9.407 -0.1957 -0.2378  0.5373
  178SLPC  H11R20318   2.526   2.214   9.485 -1.9676  1.8708 -0.3489
  178SLPC  H11S20319   2.592   2.156   9.334  3.8350 -2.0131  1.7806
  178SLPC  C21220320   2.556   2.373   9.347 -0.2150  1.1161 -0.1754
  178SLPC  H12R20321   2.573   2.460   9.412  0.3432  1.1466 -0.3574
  178SLPC  C21320322   2.496   2.389   9.232  0.7646 -0.2009 -0.5193
  178SLPC  H13R20323   2.471   2.494   9.216 -4.9362 -0.9235  1.2925
  178SLPC  C21420324   2.439   2.287   9.130 -0.0245  0.2115  0.3825
  178SLPC  H14R20325   2.423   2.337   9.032  1.8390 -2.6791 -1.5652
  178SLPC  H14S20326   2.338   2.259   9.165  0.5916 -1.6543  0.7711
  178SLPC  C21520327   2.527   2.168   9.084 -0.6249 -0.0540  0.2061
  178SLPC  H15R20328   2.529   2.084   9.157  1.4825 -0.2912 -0.0373
  178SLPC  H15S20329   2.631   2.206   9.071  0.0273 -1.7319  0.1853
  178SLPC  C21620330   2.484   2.114   8.947  0.3991 -0.1447  0.0139
  178SLPC  H16R20331   2.374   2.096   8.943  0.5895 -1.0856 -3.0832
  178SLPC  H16S20332   2.534   2.018   8.923  1.3515  0.7494 -1.7412
  178SLPC  C21720333   2.523   2.203   8.830  0.1035  0.1939  0.2748
  178SLPC  H17R20334   2.616   2.259   8.855  1.9388 -1.9121 -1.4095
  178SLPC  H17S20335   2.435   2.270   8.823 -0.9065 -1.0225  1.0236
  178SLPC  C21820336   2.533   2.134   8.700  0.4872  0.0763 -0.5880
  178SLPC  H18R20337   2.563   2.206   8.621 -0.6616  0.4863 -0.6776
  178SLPC  H18S20338   2.440   2.083   8.666 -0.1260 -0.5509  1.8424
  178SLPC  H18T20339   2.611   2.057   8.715  0.3409  0.1971  0.9017
  178SLPC   C3320340   2.603   2.372  10.370  0.4415  0.2869 -0.0794
  178SLPC   H3X20341   2.645   2.277  10.330  0.7672  0.2107  0.4337
  178SLPC   H3Y20342   2.689   2.441  10.355  0.5926 -0.2183 -1.6968
  178SLPC   C3420343   2.476   2.415  10.294 -0.5668 -0.8597  0.4233
  178SLPC   H4X20344   2.442   2.516  10.327 -2.3864 -0.9312 -1.0507
  178SLPC   H4Y20345   2.391   2.345  10.308 -2.2046  0.0334 -3.5846
  178SLPC   C3520346   2.500   2.423  10.140 -0.2471  0.0515  0.6143
  178SLPC   H5X20347   2.551   2.330  10.107 -1.3508 -0.6598  0.8344
  178SLPC   H5Y20348   2.575   2.502  10.121 -0.2823 -0.6763 -3.3536
  178SLPC   C3620349   2.368   2.443  10.064 -0.0807  0.0725 -0.0735
  178SLPC   H6X20350   2.324   2.543  10.085  2.4187  0.8931  1.7326
  178SLPC   H6Y20351   2.295   2.369  10.104 -0.8132  1.1500  0.6534
  178SLPC   C3720352   2.378   2.411   9.916  0.6059 -0.7542  0.3600
  178SLPC   H7X20353   2.429   2.315   9.892 -0.3468 -0.4402 -3.4041
  178SLPC   H7Y20354   2.435   2.488   9.862 -0.5755 -1.3714 -1.8762
  178SLPC   C3820355   2.248   2.414   9.857 -0.1911 -0.8205  0.0725
  178SLPC   H8X20356   2.199   2.513   9.873  1.0146 -0.5920  3.0437
  178SLPC   H8Y20357   2.184   2.336   9.902 -2.3417 -0.1558 -1.6573
  178SLPC   C3920358   2.245   2.387   9.705  0.1979 -0.5478 -0.2430
  178SLPC   H9X20359   2.264   2.278   9.698  1.8251 -0.2120 -1.7823
  178SLPC   H9Y20360   2.322   2.448   9.653 -0.4370 -1.5602 -2.4830
  178SLPC  C31020361   2.110   2.420   9.635 -0.3131 -0.6510 -0.1927
  178SLPC  H10X20362   2.106   2.530   9.622  1.7858 -0.1381  2.6090
  178SLPC  H10Y20363   2.034   2.390   9.711  1.7951 -1.5807  1.6598
  178SLPC  C31120364   2.077   2.351   9.512  0.2510  0.6605  0.3695
  178SLPC  H11X20365   1.969   2.361   9.493  0.4145  1.7458 -0.0340
  178SLPC  H11Y20366   2.097   2.241   9.518 -1.4167  0.2387 -1.1681
  178SLPC  C31220367   2.148   2.417   9.393  0.2644 -0.9339 -0.0385
  178SLPC  H12X20368   2.237   2.359   9.361 -0.8975 -2.0549 -1.3766
  178SLPC  H12Y20369   2.173   2.520   9.428  1.4446 -1.0561 -0.5065
  178SLPC  C31320370   2.047   2.444   9.277 -0.5584 -0.3260  0.0728
  178SLPC  H13X20371   1.971   2.518   9.310  1.2935  0.3130  3.2183
  178SLPC  H13Y20372   2.003   2.349   9.238 -0.6949 -0.8194  1.3984
  178SLPC  C31420373   2.122   2.519   9.171  0.8918  0.6739  0.0799
  178SLPC  H14X20374   2.228   2.486   9.172  1.0478  1.1790  0.4674
  178SLPC  H14Y20375   2.106   2.626   9.195  0.7219  0.2565  2.0356
  178SLPC  C31520376   2.071   2.510   9.034  0.2039  0.3931  0.4301
  178SLPC  H15X20377   1.965   2.541   9.031 -0.0086 -0.1303 -3.6466
  178SLPC  H15Y20378   2.117   2.592   8.974 -1.6129  1.5209  0.5004
  178SLPC  C31620379   2.094   2.383   8.958  0.2695  0.5189  0.3390
  178SLPC  H16X20380   2.005   2.324   8.929  0.3463  0.8867 -0.7005
  178SLPC  H16Y20381   2.159   2.314   9.017  0.0010  0.9786  1.1909
  178SLPC  C31720382   2.173   2.417   8.824  0.4602  0.1235  0.1518
  178SLPC  H17X20383   2.275   2.449   8.855 -0.5237  1.8148  1.8894
  178SLPC  H17Y20384   2.128   2.506   8.774 -0.2109  0.2570  0.9621
  178SLPC  C31820385   2.170   2.301   8.729  0.7447 -0.1855 -0.9649
  178SLPC  H18X20386   2.062   2.289   8.707  0.5363 -3.9038  1.0927
  178SLPC  H18Y20387   2.209   2.210   8.780  0.4071 -0.9172 -1.9694
  178SLPC  H18Z20388   2.231   2.319   8.638  0.9857 -2.3481 -1.2962
  179SLPC     N20389   2.776   0.376  10.756  0.2950 -0.1713  0.8085
  179SLPC   C1320390   2.673   0.417  10.660  0.2315  0.5024 -0.1253
  179SLPC  H13A20391   2.728   0.439  10.570 -0.1718 -1.0984 -0.7946
  179SLPC  H13B20392   2.606   0.334  10.640 -1.2919  1.6881 -0.1674
  179SLPC  H13C20393   2.618   0.505  10.691  0.6660  0.4091  0.9753
  179SLPC   C1420394   2.722   0.377  10.894 -0.7164  0.3369  0.2159
  179SLPC  H14A20395   2.656   0.293  10.913  0.3956 -0.1259  2.4140
  179SLPC  H14B20396   2.805   0.378  10.964 -1.2138  0.3380  0.8149
  179SLPC  H14C20397   2.665   0.465  10.920  0.2885  0.3785  2.5403
  179SLPC   C1520398   2.887   0.476  10.755 -0.1612  0.4106 -0.7612
  179SLPC  H15A20399   2.961   0.461  10.833 -2.4290  0.4343  1.4974
  179SLPC  H15B20400   2.940   0.468  10.661 -0.7113 -1.9942 -0.9396
  179SLPC  H15C20401   2.860   0.580  10.757 -2.0431 -0.0429 -0.9635
  179SLPC   C1220402   2.839   0.240  10.716 -0.4268 -0.1482  0.0630
  179SLPC  H12A20403   2.772   0.162  10.750 -2.6383  1.7067  0.1790
  179SLPC  H12B20404   2.937   0.238  10.762 -0.6741  3.7679  1.1244
  179SLPC   C1120405   2.850   0.206  10.563 -0.1895 -0.4979 -0.1421
  179SLPC  H11A20406   2.747   0.186  10.525  0.7126 -1.6087 -2.2066
  179SLPC  H11B20407   2.915   0.116  10.557  1.7344  0.8713 -0.8014
  179SLPC     P20408   3.064   0.335  10.456 -0.2558 -0.1489 -0.2431
  179SLPC   O1320409   3.133   0.368  10.581 -0.0173 -0.5398  0.5006
  179SLPC   O1420410   3.117   0.223  10.372  0.3127 -0.2014 -0.6375
  179SLPC   O1220411   2.920   0.314  10.499  0.0586  1.0573  0.0637
  179SLPC   O1120412   3.062   0.465  10.359 -0.5648 -0.1911  0.7230
  179SLPC    C120413   2.940   0.532  10.317  0.4237  0.2233  0.3590
  179SLPC    HA20414   2.862   0.539  10.396  0.4268  0.0748  0.3747
  179SLPC    HB20415   2.962   0.637  10.290 -0.8509  0.0786 -1.4039
  179SLPC    C220416   2.886   0.473  10.181 -0.5074 -0.4725  0.4665
  179SLPC    HS20417   2.810   0.541  10.137 -0.0828  0.2645  0.8405
  179SLPC   O2120418   2.827   0.347  10.196 -0.2889  0.2540 -0.4500
  179SLPC   C2120419   2.713   0.347  10.261 -0.1531 -0.0111 -0.1594
  179SLPC   O2220420   2.647   0.442  10.306 -0.4961 -0.0442  0.3487
  179SLPC   C2220421   2.661   0.197  10.272  0.1861 -0.9912  0.2978
  179SLPC   H2R20422   2.761   0.147  10.269  0.6477 -0.0561 -1.7938
  179SLPC   H2S20423   2.622   0.177  10.374 -0.0322  2.3169  0.9756
  179SLPC    C320424   3.002   0.466  10.074  0.2601  0.6398 -0.0885
  179SLPC    HX20425   3.067   0.388  10.120  1.3655  1.0905 -0.8361
  179SLPC    HY20426   3.061   0.560  10.065 -1.6288  1.7838 -1.1314
  179SLPC   O3120427   2.959   0.423   9.948  0.3040 -0.1334  0.0336
  179SLPC   C3120428   2.912   0.523   9.869  1.3629  0.1588 -0.5690
  179SLPC   O3220429   2.911   0.641   9.898  0.3683  0.1691 -0.0287
  179SLPC   C3220430   2.848   0.466   9.740  0.3281 -0.7624  0.0316
  179SLPC   H2X20431   2.741   0.446   9.765  0.2192  1.3350  1.5448
  179SLPC   H2Y20432   2.905   0.385   9.690  1.9582  1.8856 -2.7788
  179SLPC   C2320433   2.568   0.171  10.156 -0.5843  0.3138 -0.4552
  179SLPC   H3R20434   2.625   0.202  10.065  1.5225  0.9130  0.9765
  179SLPC   H3S20435   2.484   0.240  10.180  0.9570  2.2827 -0.4308
  179SLPC   C2420436   2.525   0.024  10.160  0.0614  0.3086  0.2196
  179SLPC   H4R20437   2.501  -0.006  10.264 -0.0413  0.6490  0.2965
  179SLPC   H4S20438   2.601  -0.051  10.130  1.0118  0.6020  1.7909
  179SLPC   C2520439   2.394   0.005  10.080 -0.1402  0.2179 -0.1960
  179SLPC   H5R20440   2.316   0.075  10.116 -0.5360 -0.0086 -0.5959
  179SLPC   H5S20441   2.364  -0.101  10.096 -1.8995  0.6179 -0.6122
  179SLPC   C2620442   2.425   0.015   9.930 -0.2707 -0.5300 -0.0475
  179SLPC   H6R20443   2.496  -0.069   9.913 -0.0443 -0.3988  0.2401
  179SLPC   H6S20444   2.469   0.111   9.897 -0.7285 -0.5503 -0.7283
  179SLPC   C2720445   2.296  -0.004   9.849 -0.2742 -0.1924  0.6056
  179SLPC   H7R20446   2.226   0.080   9.866  0.0867  1.0709 -3.1579
  179SLPC   H7S20447   2.250  -0.100   9.880  2.0812 -0.6806  2.9310
  179SLPC   C2820448   2.322  -0.001   9.703  0.0381 -0.8692 -0.2703
  179SLPC   H8R20449   2.388   0.087   9.686 -0.0853 -0.6270  0.4742
  179SLPC   H8S20450   2.227   0.012   9.647  0.7549 -0.7780 -1.5111
  179SLPC   C2920451   2.399  -0.123   9.654 -0.0930  0.4094  0.0674
  179SLPC   H9R20452   2.503  -0.125   9.687 -0.4008 -0.2469  1.0346
  179SLPC  C21020453   2.353  -0.233   9.580 -0.6363 -0.6966 -0.1658
  179SLPC  H10R20454   2.424  -0.313   9.554  0.4434  0.7426 -1.8957
  179SLPC  C21120455   2.213  -0.240   9.525  0.2466  0.2615  0.8182
  179SLPC  H11R20456   2.140  -0.219   9.606 -0.8355 -0.1721 -0.0157
  179SLPC  H11S20457   2.175  -0.343   9.504 -2.3911  1.0097  1.4481
  179SLPC  C21220458   2.181  -0.147   9.408 -0.4605 -0.7117  0.6283
  179SLPC  H12R20459   2.229  -0.049   9.416  1.4655 -1.4024 -1.1670
  179SLPC  C21320460   2.124  -0.177   9.293 -0.3986  0.2201 -1.1485
  179SLPC  H13R20461   2.096  -0.089   9.233  1.7887  0.3643 -2.0434
  179SLPC  C21420462   2.056  -0.305   9.255 -0.4558 -0.1558  0.6011
  179SLPC  H14R20463   1.954  -0.306   9.299 -0.9898  1.4139 -0.4989
  179SLPC  H14S20464   2.107  -0.401   9.279  0.9735 -0.1574 -2.0767
  179SLPC  C21520465   2.047  -0.313   9.095  0.6243  0.2557 -0.0596
  179SLPC  H15R20466   1.964  -0.256   9.049 -2.0516 -1.8503  1.8074
  179SLPC  H15S20467   2.003  -0.413   9.076 -0.8682  1.5040 -3.9943
  179SLPC  C21620468   2.176  -0.289   9.026 -1.1226 -0.3494 -0.2170
  179SLPC  H16R20469   2.250  -0.362   9.065  0.4313  1.7363  1.0001
  179SLPC  H16S20470   2.212  -0.185   9.039 -2.4900 -0.0665  1.6174
  179SLPC  C21720471   2.172  -0.318   8.875 -0.0065  0.6854  0.2714
  179SLPC  H17R20472   2.274  -0.294   8.836  0.4856  0.1620  1.1920
  179SLPC  H17S20473   2.088  -0.256   8.837 -0.1169  0.5138  0.2378
  179SLPC  C21820474   2.125  -0.457   8.841  0.1540  0.3168  0.3243
  179SLPC  H18R20475   2.096  -0.468   8.734 -1.0211  0.1113  0.6460
  179SLPC  H18S20476   2.030  -0.482   8.894  0.5567  1.1786  1.5032
  179SLPC  H18T20477   2.204  -0.530   8.870  0.7042  0.9535  0.4613
  179SLPC   C3320478   2.846   0.590   9.649  0.7561  0.1545 -0.2279
  179SLPC   H3X20479   2.951   0.612   9.619  0.7345  0.0418 -0.3841
  179SLPC   H3Y20480   2.810   0.684   9.696 -0.0798 -0.9799  1.4937
  179SLPC   C3420481   2.771   0.572   9.516 -0.1757  0.4590 -0.2601
  179SLPC   H4X20482   2.788   0.668   9.462  0.9396  0.6946  0.4711
  179SLPC   H4Y20483   2.665   0.555   9.547 -0.5495  1.4351 -0.9264
  179SLPC   C3520484   2.825   0.462   9.421  0.3018  0.1836 -0.1042
  179SLPC   H5X20485   2.769   0.370   9.448  0.0059  0.4574  0.2325
  179SLPC   H5Y20486   2.933   0.445   9.437  0.4223 -0.2665 -1.3045
  179SLPC   C3620487   2.801   0.488   9.272 -0.1176 -0.1763 -0.6879
  179SLPC   H6X20488   2.855   0.404   9.222 -0.3439 -0.3502 -0.6444
  179SLPC   H6Y20489   2.847   0.585   9.245  1.3038 -0.2016  1.3774
  179SLPC   C3720490   2.656   0.492   9.229  0.4979  0.4079 -0.0381
  179SLPC   H7X20491   2.590   0.557   9.290 -0.5587  0.8009 -1.5426
  179SLPC   H7Y20492   2.613   0.390   9.230 -1.7379  1.3020  0.9936
  179SLPC   C3820493   2.634   0.550   9.088  0.5631  0.0023  0.0706
  179SLPC   H8X20494   2.666   0.476   9.011  0.1974  0.7087 -0.7762
  179SLPC   H8Y20495   2.690   0.644   9.068  0.4673 -0.4759 -2.8192
  179SLPC   C3920496   2.482   0.573   9.066  0.2989 -0.5539 -0.0458
  179SLPC   H9X20497   2.452   0.652   9.139  1.2890  0.2338 -0.4810
  179SLPC   H9Y20498   2.429   0.480   9.097  0.5835 -1.0031 -0.8777
  179SLPC  C31020499   2.430   0.632   8.934  0.2091 -0.4110 -0.8320
  179SLPC  H10X20500   2.440   0.561   8.849 -0.3172  0.5789 -1.7457
  179SLPC  H10Y20501   2.486   0.724   8.909 -2.2985  1.0042 -1.5752
  179SLPC  C31120502   2.274   0.662   8.943 -0.5732 -0.0171  0.6056
  179SLPC  H11X20503   2.257   0.701   9.046  2.8672 -1.7263  1.9987
  179SLPC  H11Y20504   2.215   0.569   8.923  0.6876 -1.1595  1.9392
  179SLPC  C31220505   2.212   0.764   8.841 -0.7409 -0.7642 -0.9374
  179SLPC  H12X20506   2.250   0.726   8.744  2.8910 -3.0505  1.1512
  179SLPC  H12Y20507   2.253   0.866   8.858  0.4604 -1.1681 -1.2977
  179SLPC  C31320508   2.060   0.782   8.839 -0.0787 -0.6439 -0.2466
  179SLPC  H13X20509   2.028   0.804   8.943  0.7587 -0.6359  0.0166
  179SLPC  H13Y20510   2.016   0.688   8.799 -0.6750  0.3485 -2.0147
  179SLPC  C31420511   2.011   0.891   8.746 -0.2862 -0.4054  0.0616
  179SLPC  H14X20512   2.025   0.856   8.641  0.4713  0.8554 -0.2819
  179SLPC  H14Y20513   2.061   0.990   8.757  0.7037 -0.9078  0.2305
  179SLPC  C31520514   1.863   0.910   8.749  0.4787  0.0859  0.1728
  179SLPC  H15X20515   1.823   0.954   8.843 -0.1376 -2.1332  1.0109
  179SLPC  H15Y20516   1.826   0.806   8.742  0.9538 -0.1950  1.5565
  179SLPC  C31620517   1.816   1.001   8.638  0.1768 -0.2226 -0.1639
  179SLPC  H16X20518   1.837   0.948   8.543  1.2009  0.3312 -0.2596
  179SLPC  H16Y20519   1.868   1.097   8.620 -0.4997 -0.1402 -1.8722
  179SLPC  C31720520   1.662   1.044   8.641  0.0301 -0.0023 -0.0100
  179SLPC  H17X20521   1.636   1.102   8.550  0.2623  1.1604  0.6539
  179SLPC  H17Y20522   1.638   1.114   8.724 -0.5506 -0.0840 -0.1045
  179SLPC  C31820523   1.567   0.924   8.649 -0.0869 -0.0149 -0.6373
  179SLPC  H18X20524   1.569   0.857   8.560 -1.5807  0.7871 -1.3163
  179SLPC  H18Y20525   1.463   0.964   8.660  0.2198  0.8629 -0.8231
  179SLPC  H18Z20526   1.591   0.883   8.749  0.7178  0.9584 -0.4165
  180SLPC     N20527   5.320   4.811  11.122 -0.1416 -0.0586  0.1823
  180SLPC   C1320528   5.465   4.784  11.084  0.3822  0.3725 -0.3445
  180SLPC  H13A20529   5.492   4.679  11.090  0.2820  0.3829  0.4105
  180SLPC  H13B20530   5.482   4.818  10.983  1.1350 -1.1669 -0.7815
  180SLPC  H13C20531   5.539   4.834  11.145  1.6912 -2.4483  0.5861
  180SLPC   C1420532   5.329   4.948  11.178  0.0527 -1.3084  0.5910
  180SLPC  H14A20533   5.404   4.947  11.255 -0.2444  1.4878  1.0323
  180SLPC  H14B20534   5.370   5.020  11.109 -3.5923  1.2313  0.7597
  180SLPC  H14C20535   5.231   4.979  11.211  0.3984  0.5939 -0.0385
  180SLPC   C1520536   5.274   4.722  11.230 -0.6806  1.0431  0.6344
  180SLPC  H15A20537   5.298   4.622  11.197  1.2682  0.9979  2.0150
  180SLPC  H15B20538   5.329   4.744  11.321 -2.0792  2.1987  1.2345
  180SLPC  H15C20539   5.168   4.731  11.246 -0.8717  0.2010 -0.0684
  180SLPC   C1220540   5.234   4.794  10.999 -0.7769  0.1984  0.4571
  180SLPC  H12A20541   5.256   4.874  10.931  2.2230  1.4651  2.7164
  180SLPC  H12B20542   5.129   4.806  11.025 -0.4840  1.9380  0.9869
  180SLPC   C1120543   5.243   4.668  10.918  0.0837 -0.6025  0.3122
  180SLPC  H11A20544   5.349   4.645  10.893  0.3970  2.0016 -1.1553
  180SLPC  H11B20545   5.194   4.692  10.821  1.8939 -1.2637 -0.8203
  180SLPC     P20546   5.185   4.415  10.980  0.1055  0.2092  0.0879
  180SLPC   O1320547   5.319   4.379  11.019 -0.1210  0.3679  0.4122
  180SLPC   O1420548   5.078   4.353  11.050  0.1183 -0.7077  0.0413
  180SLPC   O1220549   5.172   4.573  10.991  0.2219 -0.2989  0.1337
  180SLPC   O1120550   5.165   4.386  10.823 -1.1102 -0.5930  0.1205
  180SLPC    C120551   5.041   4.408  10.765  0.0438  0.3751  0.4255
  180SLPC    HA20552   4.977   4.318  10.783 -2.4604  2.2152  1.3041
  180SLPC    HB20553   4.996   4.497  10.813  1.5755  0.8530  1.0037
  180SLPC    C220554   5.044   4.439  10.615  0.8549  0.0943 -0.0698
  180SLPC    HS20555   4.937   4.452  10.587  0.4826 -0.1797  1.1482
  180SLPC   O2120556   5.110   4.345  10.532 -0.4004 -0.1272  0.2292
  180SLPC   C2120557   5.050   4.236  10.489  0.2138 -0.5530  0.2124
  180SLPC   O2220558   4.934   4.202  10.514 -0.0797  0.3301 -0.4179
  180SLPC   C2220559   5.150   4.156  10.401  0.3939 -0.4633  0.7377
  180SLPC   H2R20560   5.213   4.227  10.342 -1.3394 -0.0680 -0.7209
  180SLPC   H2S20561   5.209   4.102  10.478 -1.0248 -0.5608  1.8060
  180SLPC    C320562   5.115   4.573  10.567  0.3046  0.3506 -0.5805
  180SLPC    HX20563   5.226   4.580  10.575  0.1083  1.6761  2.9378
  180SLPC    HY20564   5.079   4.650  10.638  3.1968  0.3088  1.1179
  180SLPC   O3120565   5.081   4.604  10.434  0.2402 -0.4368  0.0238
  180SLPC   C3120566   5.142   4.709  10.379 -0.7107 -1.0012 -0.1497
  180SLPC   O3220567   5.233   4.774  10.427  0.2726  0.3415 -0.0918
  180SLPC   C3220568   5.075   4.736  10.244  0.1426 -0.2855  0.3403
  180SLPC   H2X20569   4.971   4.772  10.259  0.0069 -0.2212 -0.6581
  180SLPC   H2Y20570   5.069   4.644  10.182  0.7743  0.8232 -1.4632
  180SLPC   C2320571   5.083   4.055  10.300 -0.3106 -0.2791 -0.4088
  180SLPC   H3R20572   4.988   4.033  10.353 -1.4694  0.4954 -2.0589
  180SLPC   H3S20573   5.155   3.973  10.277  1.0550  0.6072  0.5992
  180SLPC   C2420574   5.040   4.105  10.164 -0.3568  0.7350 -0.0803
  180SLPC   H4R20575   5.111   4.182  10.127 -0.4414  0.4884 -0.7572
  180SLPC   H4S20576   4.942   4.154  10.179 -1.6443 -1.9956  1.1669
  180SLPC   C2520577   5.027   3.987  10.056 -0.5906 -0.1251  0.2002
  180SLPC   H5R20578   4.949   3.917  10.093 -1.0086  0.1100 -0.2234
  180SLPC   H5S20579   5.126   3.938  10.046 -0.0441  0.8361  0.6989
  180SLPC   C2620580   4.977   4.026   9.918  0.2866  1.7210  0.1843
  180SLPC   H6R20581   5.062   4.079   9.870 -1.2303  3.7060 -0.4566
  180SLPC   H6S20582   4.891   4.093   9.940  0.2610  1.0836  2.2131
  180SLPC   C2720583   4.946   3.904   9.832  1.0111 -0.9847 -0.1098
  180SLPC   H7R20584   4.846   3.870   9.867  0.9202 -0.2708  0.3388
  180SLPC   H7S20585   5.023   3.825   9.844 -0.0595 -2.2796 -1.2649
  180SLPC   C2820586   4.922   3.937   9.688  0.3163  0.6081  0.7699
  180SLPC   H8R20587   4.852   4.023   9.685  0.7973  0.9762 -0.9356
  180SLPC   H8S20588   4.878   3.847   9.642  3.9340 -0.4052 -1.0763
  180SLPC   C2920589   5.036   3.969   9.598 -0.5125  0.1153 -0.0960
  180SLPC   H9R20590   5.129   3.997   9.651 -1.4049  1.0129  1.0304
  180SLPC  C21020591   5.036   3.989   9.468  0.4574 -0.0316  0.0034
  180SLPC  H10R20592   5.133   4.015   9.422 -0.8559  0.5523 -2.6758
  180SLPC  C21120593   4.909   3.980   9.387 -0.0099 -0.0709  0.0943
  180SLPC  H11R20594   4.826   4.021   9.447  0.4226 -1.6061  1.8566
  180SLPC  H11S20595   4.882   3.873   9.373 -0.2034 -0.3112  2.1089
  180SLPC  C21220596   4.922   4.055   9.260 -0.0452  0.1960  0.2214
  180SLPC  H12R20597   5.020   4.102   9.245  0.4087 -0.7706  0.0533
  180SLPC  C21320598   4.830   4.067   9.161  1.0000 -0.5470 -0.0023
  180SLPC  H13R20599   4.870   4.110   9.068  3.8820 -0.9126  0.9636
  180SLPC  C21420600   4.689   4.007   9.160  0.5587  0.1957  0.1023
  180SLPC  H14R20601   4.664   3.987   9.267 -0.4773  3.9006  0.7035
  180SLPC  H14S20602   4.691   3.918   9.094  1.3139  0.8302 -0.7656
  180SLPC  C21520603   4.570   4.098   9.119 -0.4871 -0.3337  0.4985
  180SLPC  H15R20604   4.572   4.191   9.180 -2.0531 -0.6275  1.0668
  180SLPC  H15S20605   4.468   4.055   9.133 -0.2910 -0.8954  0.1874
  180SLPC  C21620606   4.567   4.141   8.967  0.2224  0.0028  0.6443
  180SLPC  H16R20607   4.575   4.047   8.907 -0.1722  0.6559 -0.4447
  180SLPC  H16S20608   4.663   4.192   8.942 -1.5999  2.3609 -2.1316
  180SLPC  C21720609   4.449   4.221   8.923  0.2184 -0.4344 -0.8645
  180SLPC  H17R20610   4.479   4.326   8.942  0.4652 -0.4707 -1.0478
  180SLPC  H17S20611   4.368   4.202   8.997  0.6609 -0.5774 -0.4137
  180SLPC  C21820612   4.410   4.211   8.779 -0.1073 -0.0654  0.6107
  180SLPC  H18R20613   4.468   4.285   8.720 -0.0021  0.4673  1.3782
  180SLPC  H18S20614   4.304   4.243   8.775  0.4375  1.7518 -0.3150
  180SLPC  H18T20615   4.434   4.109   8.740 -0.8134 -0.1423  0.3570
  180SLPC   C3320616   5.157   4.851  10.183  0.2075 -0.5013  0.2857
  180SLPC   H3X20617   5.263   4.824  10.159 -0.0584 -0.5846 -0.8346
  180SLPC   H3Y20618   5.153   4.945  10.242 -1.9052  0.1338 -0.8059
  180SLPC   C3420619   5.109   4.893  10.042  0.1068 -0.0113  0.0705
  180SLPC   H4X20620   5.179   4.976  10.019 -1.1236  0.5827 -1.7581
  180SLPC   H4Y20621   5.004   4.928  10.048 -0.6664 -1.9223 -1.3337
  180SLPC   C3520622   5.122   4.788   9.929  0.1078  0.3180 -0.6589
  180SLPC   H5X20623   5.051   4.704   9.939  0.8587 -0.2681 -0.0224
  180SLPC   H5Y20624   5.224   4.744   9.933  0.0602  0.1836 -0.9034
  180SLPC   C3620625   5.094   4.862   9.788  0.0438  0.3996 -0.0648
  180SLPC   H6X20626   5.169   4.941   9.767  1.0931 -1.0238 -2.0306
  180SLPC   H6Y20627   4.989   4.900   9.793 -0.9569 -2.1404  0.0861
  180SLPC   C3720628   5.108   4.769   9.662  0.3807  0.2763 -0.7188
  180SLPC   H7X20629   5.054   4.672   9.673 -0.3807  0.8952  1.5545
  180SLPC   H7Y20630   5.215   4.739   9.655  0.3293 -0.6964  1.6853
  180SLPC   C3820631   5.070   4.834   9.534 -0.2406  0.8067  1.5285
  180SLPC   H8X20632   5.100   4.939   9.553  1.7234  0.5127  0.3757
  180SLPC   H8Y20633   4.959   4.832   9.532 -0.2650 -1.3108  2.3460
  180SLPC   C3920634   5.120   4.776   9.404 -0.5423 -0.2386 -0.3463
  180SLPC   H9X20635   5.087   4.670   9.403 -2.9129  0.3646  1.7763
  180SLPC   H9Y20636   5.230   4.781   9.396 -0.3655  0.1204  1.7071
  180SLPC  C31020637   5.060   4.853   9.282 -0.0081  0.0893  0.6012
  180SLPC  H10X20638   5.032   4.955   9.313 -2.1464 -0.3308  0.1919
  180SLPC  H10Y20639   4.961   4.805   9.264 -0.9674  2.6473 -1.6551
  180SLPC  C31120640   5.159   4.847   9.166 -0.2697 -0.1409  0.5700
  180SLPC  H11X20641   5.165   4.742   9.133 -0.3648  0.7905 -2.8251
  180SLPC  H11Y20642   5.259   4.889   9.190 -0.0491  1.1035 -2.1441
  180SLPC  C31220643   5.125   4.939   9.048  0.1176 -0.1760  0.2108
  180SLPC  H12X20644   5.128   5.049   9.066 -2.2067 -0.0004 -0.1452
  180SLPC  H12Y20645   5.021   4.914   9.018  0.9274 -3.0461 -0.4630
  180SLPC  C31320646   5.222   4.904   8.939 -0.6789  0.2101 -0.7485
  180SLPC  H13X20647   5.236   4.794   8.942 -0.5931  0.2411  0.5012
  180SLPC  H13Y20648   5.316   4.956   8.966 -1.3294  0.3323  1.4810
  180SLPC  C31420649   5.179   4.952   8.809 -0.2755  0.1508  0.2326
  180SLPC  H14X20650   5.078   4.911   8.789  0.0483  0.0498 -1.3070
  180SLPC  H14Y20651   5.241   4.913   8.725 -1.0840 -1.8743  0.5213
  180SLPC  C31520652   5.189   5.102   8.796  0.2402 -0.1192 -0.1561
  180SLPC  H15X20653   5.288   5.130   8.838 -0.4206 -0.8573  2.0364
  180SLPC  H15Y20654   5.114   5.142   8.868  1.4892 -1.2795  1.8868
  180SLPC  C31620655   5.174   5.166   8.657  0.2901  0.3752 -0.4539
  180SLPC  H16X20656   5.157   5.276   8.659 -1.2113  0.1805 -1.0631
  180SLPC  H16Y20657   5.085   5.126   8.604  0.1768  0.5743 -0.4114
  180SLPC  C31720658   5.301   5.160   8.569 -0.1180 -0.1355 -0.2749
  180SLPC  H17X20659   5.329   5.053   8.553  0.3840 -0.1948  0.8899
  180SLPC  H17Y20660   5.384   5.210   8.624 -0.8340 -1.0661  1.7762
  180SLPC  C31820661   5.273   5.222   8.425 -0.2068  0.0633  0.1910
  180SLPC  H18X20662   5.169   5.203   8.392 -0.5872 -0.8326  1.8114
  180SLPC  H18Y20663   5.346   5.183   8.351 -0.9752 -0.4756 -0.3008
  180SLPC  H18Z20664   5.303   5.329   8.433  1.0722 -0.2374 -0.2781
  181SLPC     N20665   6.755   2.893  11.321 -0.6512  0.5360  0.4405
  181SLPC   C1320666   6.800   2.752  11.348  0.5562  0.0603 -0.2163
  181SLPC  H13A20667   6.908   2.750  11.352  0.5212 -0.0264  0.7457
  181SLPC  H13B20668   6.749   2.717  11.436 -0.5780 -2.1795 -1.6833
  181SLPC  H13C20669   6.771   2.686  11.268 -0.6113 -1.2752  1.2627
  181SLPC   C1420670   6.850   2.959  11.224  0.4898 -0.0530  0.2532
  181SLPC  H14A20671   6.814   3.058  11.201 -1.2498 -1.1101 -2.0998
  181SLPC  H14B20672   6.952   2.949  11.257  0.5933 -0.4689 -0.1787
  181SLPC  H14C20673   6.836   2.911  11.128 -3.2730 -0.8574  1.0077
  181SLPC   C1520674   6.775   2.956  11.451  0.0336 -0.6111 -0.1812
  181SLPC  H15A20675   6.694   2.933  11.519 -0.5497  0.0549 -0.6451
  181SLPC  H15B20676   6.862   2.916  11.500  0.7092  0.1402 -0.7355
  181SLPC  H15C20677   6.798   3.060  11.433  1.9516 -0.4234  2.7065
  181SLPC   C1220678   6.611   2.902  11.266  0.2589 -0.1079 -0.0716
  181SLPC  H12A20679   6.580   3.004  11.249 -2.6537 -1.4106 -4.3641
  181SLPC  H12B20680   6.557   2.844  11.339  2.5756 -3.0011 -0.4293
  181SLPC   C1120681   6.583   2.834  11.135  0.8089  0.0182 -0.8894
  181SLPC  H11A20682   6.475   2.830  11.112  0.6420 -1.1341 -0.0206
  181SLPC  H11B20683   6.615   2.729  11.152  2.1792  0.6529  0.7701
  181SLPC     P20684   6.632   3.029  10.962 -0.0164 -0.4692 -0.2979
  181SLPC   O1320685   6.493   3.052  10.929  0.3558 -0.3595  0.1173
  181SLPC   O1420686   6.694   3.134  11.051 -0.2533 -0.4623  0.2375
  181SLPC   O1220687   6.653   2.893  11.030 -0.2793 -0.1527  1.0895
  181SLPC   O1120688   6.729   3.001  10.834  0.0698  0.0102 -0.2935
  181SLPC    C120689   6.868   3.015  10.835  0.2155  1.0542  0.6816
  181SLPC    HA20690   6.906   3.120  10.840  3.6762 -0.0270  0.2184
  181SLPC    HB20691   6.921   2.966  10.919  1.5558  2.9185  1.0015
  181SLPC    C220692   6.939   2.959  10.714  0.4709 -0.2812  0.3103
  181SLPC    HS20693   7.048   2.981  10.706 -0.2659  3.2774 -2.7381
  181SLPC   O2120694   6.865   2.998  10.595 -0.5721  0.0288  0.1950
  181SLPC   C2120695   6.902   3.113  10.545  0.0589 -0.6134  0.0833
  181SLPC   O2220696   6.998   3.178  10.576 -0.4925 -0.1973 -0.5875
  181SLPC   C2220697   6.815   3.160  10.426 -0.3809  0.5227  0.2674
  181SLPC   H2R20698   6.724   3.097  10.437 -1.1921  1.5993 -0.0588
  181SLPC   H2S20699   6.790   3.268  10.438 -1.4891  0.9315 -3.9514
  181SLPC    C320700   6.927   2.804  10.718 -0.0874  0.3288 -0.3547
  181SLPC    HX20701   6.819   2.781  10.701 -0.6225  0.4505  2.3403
  181SLPC    HY20702   6.962   2.771  10.818 -1.0917  0.9611  0.2183
  181SLPC   O3120703   7.013   2.759  10.611  0.4720 -0.1934  0.4790
  181SLPC   C3120704   7.008   2.632  10.589  0.1012 -0.1012 -0.0451
  181SLPC   O3220705   6.951   2.546  10.652  0.3029 -0.8543  0.2608
  181SLPC   C3220706   7.087   2.609  10.455 -1.0262 -0.3981  0.3223
  181SLPC   H2X20707   7.122   2.504  10.449 -0.3908 -0.1359 -0.7258
  181SLPC   H2Y20708   7.175   2.677  10.465 -0.1646 -1.2303 -1.2120
  181SLPC   C2320709   6.887   3.140  10.289 -0.2076 -0.3158  0.5142
  181SLPC   H3R20710   6.905   3.032  10.268  0.0473 -0.0318 -0.8214
  181SLPC   H3S20711   6.983   3.194  10.278 -0.3654 -0.0841  0.2747
  181SLPC   C2420712   6.798   3.186  10.172  0.0640  0.2045 -0.2554
  181SLPC   H4R20713   6.774   3.294  10.184  0.2721  0.1571  0.6366
  181SLPC   H4S20714   6.697   3.140  10.162  0.0838  0.1503 -0.2061
  181SLPC   C2520715   6.862   3.169  10.026 -0.1201 -0.0280 -0.9828
  181SLPC   H5R20716   6.903   3.066  10.022  0.6157  0.1886  0.4362
  181SLPC   H5S20717   6.937   3.251  10.028  1.2094 -1.2133  0.4439
  181SLPC   C2620718   6.763   3.191   9.922  0.9101  0.7584  0.0462
  181SLPC   H6R20719   6.709   3.288   9.930 -1.4615 -0.2897 -1.7510
  181SLPC   H6S20720   6.676   3.122   9.922  1.1175  0.2963 -3.3747
  181SLPC   C2720721   6.827   3.190   9.784 -0.5935 -0.3253 -0.1620
  181SLPC   H7R20722   6.889   3.097   9.785 -0.6787 -0.3943 -0.6987
  181SLPC   H7S20723   6.902   3.272   9.781 -2.6784  1.8396  1.9250
  181SLPC   C2820724   6.741   3.184   9.654  0.4956 -0.5423 -0.3437
  181SLPC   H8R20725   6.688   3.281   9.659  1.4152 -0.0970  1.5460
  181SLPC   H8S20726   6.659   3.111   9.674  0.6783 -0.2081  1.8195
  181SLPC   C2920727   6.830   3.159   9.534  0.3397  0.6491 -0.4011
  181SLPC   H9R20728   6.915   3.228   9.519  0.5366  0.6620  0.7035
  181SLPC  C21020729   6.825   3.054   9.450  1.1654  0.3388 -0.5537
  181SLPC  H10R20730   6.907   3.044   9.377 -0.7180 -0.2360 -2.6936
  181SLPC  C21120731   6.723   2.946   9.449  0.1370  0.3613 -0.4772
  181SLPC  H11R20732   6.632   2.977   9.394 -0.8393  1.3332  1.5796
  181SLPC  H11S20733   6.698   2.925   9.556  0.3379 -2.0162 -0.8334
  181SLPC  C21220734   6.775   2.816   9.381  0.6830  0.5674 -0.2859
  181SLPC  H12R20735   6.781   2.734   9.455 -0.5185  0.6059 -0.1218
  181SLPC  C21320736   6.807   2.791   9.253  0.3241 -0.7031  0.1060
  181SLPC  H13R20737   6.842   2.689   9.233  1.3842 -0.3376  0.0273
  181SLPC  C21420738   6.804   2.893   9.141 -0.3889  0.8322  0.3106
  181SLPC  H14R20739   6.912   2.913   9.125 -0.5888  1.6961  0.0054
  181SLPC  H14S20740   6.741   2.978   9.175  0.5482  0.9339  1.8586
  181SLPC  C21520741   6.726   2.835   9.019  0.3904 -0.4162 -0.0945
  181SLPC  H15R20742   6.774   2.738   8.993 -0.3041 -0.8677  0.2966
  181SLPC  H15S20743   6.749   2.899   8.931 -0.4024  0.1046  0.0639
  181SLPC  C21620744   6.574   2.820   9.043 -0.0993 -0.2651  0.0493
  181SLPC  H16R20745   6.522   2.916   9.066  1.2261 -0.2580  3.5101
  181SLPC  H16S20746   6.566   2.770   9.141 -0.9313 -0.3382 -0.0459
  181SLPC  C21720747   6.513   2.747   8.929  0.0270  0.2750 -0.2140
  181SLPC  H17R20748   6.564   2.650   8.917  0.8580  0.7979 -1.0074
  181SLPC  H17S20749   6.539   2.788   8.829 -1.8991  0.0734 -0.8367
  181SLPC  C21820750   6.359   2.747   8.943 -1.2323  0.2471  0.4228
  181SLPC  H18R20751   6.315   2.701   9.035 -2.0806 -1.0581 -0.5887
  181SLPC  H18S20752   6.316   2.701   8.851  1.2313  1.9012 -1.7030
  181SLPC  H18T20753   6.334   2.855   8.945 -0.0349  0.5353  1.2412
  181SLPC   C3320754   7.000   2.649  10.336 -0.3385 -0.0626 -0.0532
  181SLPC   H3X20755   6.970   2.756  10.345 -0.1184  0.1101 -1.1705
  181SLPC   H3Y20756   6.913   2.580  10.327  0.5456 -1.1306 -0.6616
  181SLPC   C3420757   7.066   2.618  10.199  1.0281  0.1534  0.0374
  181SLPC   H4X20758   7.071   2.508  10.179  0.7241  0.2540 -0.6471
  181SLPC   H4Y20759   7.175   2.639  10.208  1.1094  0.7702 -1.8545
  181SLPC   C3520760   7.008   2.707  10.095 -0.1077  0.2790  0.4306
  181SLPC   H5X20761   7.021   2.810  10.137  0.4543  0.3172  0.1851
  181SLPC   H5Y20762   6.903   2.677  10.078  0.0726 -1.1264  1.6509
  181SLPC   C3620763   7.092   2.691   9.970 -0.0490  0.0950 -0.2297
  181SLPC   H6X20764   7.080   2.589   9.929 -1.5626  0.4124 -0.6558
  181SLPC   H6Y20765   7.198   2.707  10.001 -0.7294 -0.0363  2.4673
  181SLPC   C3720766   7.047   2.793   9.869 -0.0102 -0.3763  0.0369
  181SLPC   H7X20767   7.090   2.887   9.910  0.7790  1.0229 -3.6572
  181SLPC   H7Y20768   6.936   2.802   9.862 -0.1578 -1.1250  1.1680
  181SLPC   C3820769   7.103   2.782   9.729 -0.4277  0.3168  0.0428
  181SLPC   H8X20770   7.206   2.741   9.742 -1.0858 -1.3167  0.3665
  181SLPC   H8Y20771   7.100   2.875   9.669  0.4707  0.4286  0.1508
  181SLPC   C3920772   7.027   2.669   9.660 -0.1963 -0.0431 -0.0836
  181SLPC   H9X20773   6.917   2.681   9.664 -0.2294  0.0924 -1.0911
  181SLPC   H9Y20774   7.057   2.572   9.706 -1.8766  0.0887  1.3819
  181SLPC  C31020775   7.060   2.672   9.508 -0.0490  0.2470 -0.3584
  181SLPC  H10X20776   7.039   2.776   9.473 -0.6024  0.3541  0.2813
  181SLPC  H10Y20777   6.983   2.600   9.474  0.1776  0.8692 -2.3431
  181SLPC  C31120778   7.205   2.620   9.473  0.1512  0.1902  0.3554
  181SLPC  H11X20779   7.226   2.527   9.529 -0.8799 -1.4099 -1.7784
  181SLPC  H11Y20780   7.273   2.702   9.505  2.6386 -2.5338  2.6408
  181SLPC  C31220781   7.228   2.589   9.330  0.2416 -0.0215  0.0828
  181SLPC  H12X20782   7.178   2.497   9.293  4.2770 -2.2943 -0.3050
  181SLPC  H12Y20783   7.335   2.563   9.318  0.6660  0.1449  2.8337
  181SLPC  C31320784   7.191   2.700   9.226  0.2233  0.4995 -0.2054
  181SLPC  H13X20785   7.213   2.803   9.261 -0.1573  1.3565 -2.3227
  181SLPC  H13Y20786   7.081   2.691   9.209 -0.3631  1.5007  2.5383
  181SLPC  C31420787   7.249   2.664   9.088  0.8064 -0.0687 -0.1506
  181SLPC  H14X20788   7.254   2.553   9.087 -0.8829 -0.1597 -0.2375
  181SLPC  H14Y20789   7.355   2.697   9.079  0.4987  0.4343 -2.9101
  181SLPC  C31520790   7.165   2.708   8.968  0.8301 -0.0688 -0.4912
  181SLPC  H15X20791   7.060   2.677   8.987 -0.1155  1.8279 -2.2312
  181SLPC  H15Y20792   7.202   2.657   8.876  1.8856 -0.6711  0.2434
  181SLPC  C31620793   7.170   2.861   8.951 -0.1433 -0.3324 -0.0888
  181SLPC  H16X20794   7.277   2.891   8.943 -0.0509 -0.5003  0.4811
  181SLPC  H16Y20795   7.135   2.915   9.042  0.3033 -0.6258  0.2626
  181SLPC  C31720796   7.100   2.919   8.825 -0.4541  0.0119  0.4115
  181SLPC  H17X20797   6.992   2.891   8.824 -0.7660  0.9908  2.5455
  181SLPC  H17Y20798   7.146   2.855   8.746  0.7880 -1.9446  2.5942
  181SLPC  C31820799   7.120   3.072   8.815 -0.5125  0.5798  0.5639
  181SLPC  H18X20800   7.225   3.107   8.805 -1.0827  2.3607  0.5623
  181SLPC  H18Y20801   7.074   3.115   8.907  2.6254  2.7769  1.2390
  181SLPC  H18Z20802   7.068   3.115   8.727  0.7760  1.6554  0.3104
  182SLPC     N20803   4.519   3.948  11.145  0.2242 -0.1815 -0.8535
  182SLPC   C1320804   4.391   3.994  11.104  0.0408 -0.4324 -0.2773
  182SLPC  H13A20805   4.307   3.961  11.163  0.2254 -1.1976 -0.4283
  182SLPC  H13B20806   4.385   4.101  11.116  0.8703 -0.2733 -1.1181
  182SLPC  H13C20807   4.362   3.972  11.002  0.5857  0.9770 -0.7528
  182SLPC   C1420808   4.518   3.799  11.144  0.3291 -0.7252  0.0572
  182SLPC  H14A20809   4.434   3.756  11.196 -1.3503  0.3261 -1.6199
  182SLPC  H14B20810   4.515   3.759  11.044  0.1749 -1.4514  0.3512
  182SLPC  H14C20811   4.608   3.761  11.189  0.9043  0.0790 -0.3779
  182SLPC   C1520812   4.543   3.988  11.290  0.1980 -0.3088 -0.0473
  182SLPC  H15A20813   4.476   3.934  11.356 -1.2335  0.3133 -0.9360
  182SLPC  H15B20814   4.642   3.963  11.326  1.2563  3.0434 -0.3551
  182SLPC  H15C20815   4.522   4.093  11.302  0.5573  0.1031 -2.5160
  182SLPC   C1220816   4.628   4.015  11.068  0.2863 -0.9964 -0.0948
  182SLPC  H12A20817   4.720   3.981  11.113  0.9647 -0.1336 -0.7932
  182SLPC  H12B20818   4.607   4.120  11.082  3.3273 -0.3934  0.7789
  182SLPC   C1120819   4.642   3.993  10.914  0.5555  0.1092  0.9866
  182SLPC  H11A20820   4.727   4.050  10.872 -0.7240  2.1674  1.0379
  182SLPC  H11B20821   4.550   4.040  10.873  0.1997 -2.3853 -1.4375
  182SLPC     P20822   4.775   3.781  10.883  0.5596  0.4801 -0.3852
  182SLPC   O1320823   4.844   3.802  11.016 -0.5236 -0.1660  0.3075
  182SLPC   O1420824   4.733   3.642  10.858 -1.0109  0.3385  0.5640
  182SLPC   O1220825   4.634   3.856  10.881  0.1207  0.1917  0.1968
  182SLPC   O1120826   4.865   3.840  10.773  0.1319 -0.1444 -0.2639
  182SLPC    C120827   4.833   3.863  10.635 -0.0057 -0.3453 -0.2737
  182SLPC    HA20828   4.738   3.919  10.622 -0.1632  0.5837  3.7121
  182SLPC    HB20829   4.922   3.901  10.580 -1.0563 -0.0994 -1.8796
  182SLPC    C220830   4.815   3.723  10.559 -0.2861 -0.5126  0.2533
  182SLPC    HS20831   4.737   3.659  10.605 -0.1797 -0.2738  0.7706
  182SLPC   O2120832   4.949   3.663  10.557 -0.2573 -0.5330  0.3567
  182SLPC   C2120833   4.953   3.536  10.561 -0.6387 -0.0188 -0.6431
  182SLPC   O2220834   4.858   3.459  10.545  0.3579 -0.1923 -0.1062
  182SLPC   C2220835   5.098   3.488  10.586 -0.0236 -0.1548 -0.1708
  182SLPC   H2R20836   5.149   3.550  10.662 -1.8592 -2.8005  3.5846
  182SLPC   H2S20837   5.084   3.386  10.629  0.8194  0.0289  0.5461
  182SLPC    C320838   4.762   3.749  10.413 -0.8256  0.0323  0.4313
  182SLPC    HX20839   4.780   3.657  10.353  1.4656  0.1646  0.8184
  182SLPC    HY20840   4.831   3.824  10.369  2.0577 -1.6776  1.7240
  182SLPC   O3120841   4.633   3.802  10.397 -0.4066  0.5461  0.4959
  182SLPC   C3120842   4.529   3.713  10.412  0.1346  0.6338  0.0446
  182SLPC   O3220843   4.543   3.607  10.468  0.4173  0.1456 -0.3691
  182SLPC   C3220844   4.410   3.765  10.347  0.0398 -0.5702  0.2711
  182SLPC   H2X20845   4.419   3.875  10.356  1.8654 -0.8128  2.0044
  182SLPC   H2Y20846   4.323   3.727  10.406  0.6007  1.3893  2.5229
  182SLPC   C2320847   5.180   3.457  10.458 -0.2889  0.3132 -0.1447
  182SLPC   H3R20848   5.118   3.393  10.393 -0.4820 -0.5552  0.8629
  182SLPC   H3S20849   5.266   3.399  10.498  0.4482  0.7253 -1.0917
  182SLPC   C2420850   5.231   3.580  10.383  0.0131  0.6323 -0.0076
  182SLPC   H4R20851   5.151   3.626  10.321  1.6923  0.1361 -2.7145
  182SLPC   H4S20852   5.307   3.543  10.311  0.2518 -0.2216  0.6739
  182SLPC   C2520853   5.299   3.685  10.477  0.9612 -0.0244 -0.1066
  182SLPC   H5R20854   5.367   3.637  10.550  0.5172 -1.2491 -0.4705
  182SLPC   H5S20855   5.214   3.732  10.531 -1.0145 -1.8168 -1.4568
  182SLPC   C2620856   5.369   3.798  10.398  0.4935 -0.3007  0.4447
  182SLPC   H6R20857   5.391   3.880  10.470  0.2859 -0.3016  0.5077
  182SLPC   H6S20858   5.304   3.847  10.323 -0.7053 -1.0049  1.0055
  182SLPC   C2720859   5.499   3.762  10.326 -0.0687 -0.1770  0.1824
  182SLPC   H7R20860   5.534   3.658  10.344 -0.3779 -0.5225 -1.0689
  182SLPC   H7S20861   5.577   3.829  10.368  1.4958 -0.9787 -1.2969
  182SLPC   C2820862   5.501   3.779  10.168  0.6005  0.1412 -0.2273
  182SLPC   H8R20863   5.420   3.724  10.117  0.1506  0.1123  0.5146
  182SLPC   H8S20864   5.594   3.740  10.121 -0.1383  0.5223 -2.1095
  182SLPC   C2920865   5.501   3.918  10.130 -0.2447 -0.7115 -0.4297
  182SLPC   H9R20866   5.534   3.989  10.206  0.4856  0.3457 -1.6852
  182SLPC  C21020867   5.453   3.978  10.016 -0.7280 -0.2547  0.0000
  182SLPC  H10R20868   5.452   4.088  10.013 -2.2530 -0.2548 -1.6742
  182SLPC  C21120869   5.398   3.907   9.895  0.9095  0.2655  0.1208
  182SLPC  H11R20870   5.313   3.965   9.854  1.2805  0.0344 -1.0206
  182SLPC  H11S20871   5.359   3.806   9.918 -0.3704  0.7097 -0.0623
  182SLPC  C21220872   5.503   3.912   9.784 -0.0705  0.1194  0.1987
  182SLPC  H12R20873   5.559   4.006   9.772 -1.5388  1.1909  1.2858
  182SLPC  C21320874   5.534   3.808   9.711  0.2976  0.5658  0.3696
  182SLPC  H13R20875   5.611   3.810   9.632 -2.6662  2.3852 -2.8014
  182SLPC  C21420876   5.470   3.666   9.709  0.7228 -0.5353 -0.6255
  182SLPC  H14R20877   5.453   3.623   9.810 -2.4131 -3.3316 -2.1324
  182SLPC  H14S20878   5.533   3.601   9.644 -0.6043 -1.6398 -0.8412
  182SLPC  C21520879   5.344   3.678   9.618  0.3240  0.0375 -0.4333
  182SLPC  H15R20880   5.274   3.747   9.670 -0.9562  0.0080 -2.0521
  182SLPC  H15S20881   5.302   3.576   9.625  2.9172 -1.0619  0.0665
  182SLPC  C21620882   5.376   3.710   9.469 -0.5009 -0.0565 -0.7405
  182SLPC  H16R20883   5.467   3.659   9.432  0.8431  1.9710 -0.4075
  182SLPC  H16S20884   5.402   3.818   9.462  0.0535 -0.1686 -0.4186
  182SLPC  C21720885   5.262   3.673   9.377  0.4169 -0.7667  0.1364
  182SLPC  H17R20886   5.169   3.723   9.412  1.3331  1.2989 -0.2768
  182SLPC  H17S20887   5.235   3.565   9.386 -0.1213 -0.5064  1.8963
  182SLPC  C21820888   5.282   3.720   9.231 -0.0122  0.3619  0.1319
  182SLPC  H18R20889   5.320   3.824   9.232  1.2586 -0.0811 -0.3912
  182SLPC  H18S20890   5.192   3.707   9.167  0.0892 -0.7015  0.1855
  182SLPC  H18T20891   5.353   3.653   9.178  1.0930  1.8636 -0.3564
  182SLPC   C3320892   4.396   3.728  10.201 -0.8284  0.3768 -0.7329
  182SLPC   H3X20893   4.291   3.738  10.165 -1.6117  2.4932  1.8460
  182SLPC   H3Y20894   4.427   3.621  10.206 -0.2766  0.5291 -0.8894
  182SLPC   C3420895   4.482   3.813  10.113 -0.0909  0.4893  0.8054
  182SLPC   H4X20896   4.588   3.805  10.143 -0.2623 -1.6517  0.9685
  182SLPC   H4Y20897   4.446   3.917  10.130 -0.4319  0.5479 -0.1755
  182SLPC   C3520898   4.452   3.777   9.963 -0.3642  0.0909 -0.6742
  182SLPC   H5X20899   4.342   3.790   9.953 -0.6133  1.1262  2.4599
  182SLPC   H5Y20900   4.490   3.674   9.942  1.9337  1.1810 -2.3580
  182SLPC   C3620901   4.534   3.866   9.863 -0.4151  0.1288 -0.0927
  182SLPC   H6X20902   4.643   3.856   9.882 -0.2852  1.5281  0.0337
  182SLPC   H6Y20903   4.498   3.970   9.880  2.3854  1.2844 -0.6492
  182SLPC   C3720904   4.506   3.817   9.713 -0.2944 -0.9506 -0.5131
  182SLPC   H7X20905   4.564   3.724   9.701  2.7623  0.8328 -0.5964
  182SLPC   H7Y20906   4.553   3.893   9.647 -1.0627  2.0509  2.1011
  182SLPC   C3820907   4.359   3.799   9.677  0.9695 -0.1293  0.2555
  182SLPC   H8X20908   4.296   3.885   9.710 -1.4581 -0.6988 -2.4782
  182SLPC   H8Y20909   4.314   3.715   9.735 -1.8986 -0.4815 -2.2615
  182SLPC   C3920910   4.333   3.768   9.525 -0.5014  0.4765 -0.0774
  182SLPC   H9X20911   4.354   3.862   9.469 -1.1203 -0.3412 -1.7352
  182SLPC   H9Y20912   4.227   3.737   9.514 -0.7430  1.3899 -0.4145
  182SLPC  C31020913   4.435   3.661   9.463  0.5483 -0.0633  0.0152
  182SLPC  H10X20914   4.423   3.568   9.523 -0.6833  0.3565  0.4451
  182SLPC  H10Y20915   4.539   3.700   9.471 -0.5213  3.1461 -0.4155
  182SLPC  C31120916   4.402   3.641   9.316  0.9548 -0.3776 -0.4672
  182SLPC  H11X20917   4.325   3.717   9.288  0.6206 -0.7007 -0.4266
  182SLPC  H11Y20918   4.353   3.542   9.303  0.0648 -0.1408  0.9249
  182SLPC  C31220919   4.527   3.655   9.231 -0.9402  0.7035  0.7371
  182SLPC  H12X20920   4.604   3.587   9.271  0.3252 -0.9637 -3.8290
  182SLPC  H12Y20921   4.567   3.758   9.243 -0.7407  0.6624  0.4338
  182SLPC  C31320922   4.513   3.631   9.074  0.2900 -0.0064 -0.0685
  182SLPC  H13X20923   4.614   3.635   9.027  1.2863 -1.8351  1.7529
  182SLPC  H13Y20924   4.452   3.710   9.026  2.2300  0.3169 -2.1837
  182SLPC  C31420925   4.446   3.499   9.045 -0.2472  0.0613 -0.2109
  182SLPC  H14X20926   4.341   3.497   9.082  0.4189 -3.2893  1.9115
  182SLPC  H14Y20927   4.493   3.414   9.099  0.6270  0.7069  0.0727
  182SLPC  C31520928   4.453   3.470   8.902 -0.4236  0.3693  0.1867
  182SLPC  H15X20929   4.430   3.362   8.891  1.7556 -0.3301  1.7764
  182SLPC  H15Y20930   4.560   3.473   8.870 -0.6032  2.2096 -0.3703
  182SLPC  C31620931   4.376   3.556   8.803 -0.8803 -0.4236 -0.0657
  182SLPC  H16X20932   4.450   3.630   8.767 -1.6886  0.1079 -0.6784
  182SLPC  H16Y20933   4.294   3.617   8.849  1.0129  1.2440  1.2586
  182SLPC  C31720934   4.325   3.486   8.684 -0.3710  0.2499  0.7428
  182SLPC  H17X20935   4.252   3.405   8.704 -0.6234  0.2841 -0.0100
  182SLPC  H17Y20936   4.401   3.425   8.632 -0.6284 -0.1411  0.8177
  182SLPC  C31820937   4.253   3.579   8.592  0.8854  0.7431  0.8056
  182SLPC  H18X20938   4.204   3.526   8.508  2.3405 -0.1469  0.4919
  182SLPC  H18Y20939   4.316   3.659   8.547 -0.2053  2.1390  1.6681
  182SLPC  H18Z20940   4.169   3.624   8.650  0.0225  1.1809 -0.7103
  183SLPC     N20941   0.403   5.143  10.706  0.0509  0.7029 -0.4145
  183SLPC   C1320942   0.261   5.115  10.722 -0.4205  0.0720  0.2491
  183SLPC  H13A20943   0.208   5.191  10.776 -0.3517  0.7699 -0.6548
  183SLPC  H13B20944   0.216   5.115  10.624 -1.0222  2.9035  0.4537
  183SLPC  H13C20945   0.237   5.018  10.764 -1.6111  0.3252  0.1784
  183SLPC   C1420946   0.421   5.285  10.659  0.2793  0.4603 -0.3990
  183SLPC  H14A20947   0.346   5.308  10.585  0.9144 -0.7201 -1.4687
  183SLPC  H14B20948   0.416   5.349  10.745  2.4387 -0.7178  0.6868
  183SLPC  H14C20949   0.518   5.295  10.612 -0.1676 -0.9226 -1.7235
  183SLPC   C1520950   0.451   5.045  10.600 -0.4033 -0.0086 -0.0887
  183SLPC  H15A20951   0.398   5.070  10.509 -2.2437  0.2715  0.9918
  183SLPC  H15B20952   0.556   5.065  10.586  0.3321 -2.8750  0.7870
  183SLPC  H15C20953   0.445   4.940  10.624 -0.1300  0.0668  0.3140
  183SLPC   C1220954   0.484   5.116  10.838  0.4293  0.2337  0.0476
  183SLPC  H12A20955   0.451   5.020  10.876 -1.2889  0.5117 -0.6327
  183SLPC  H12B20956   0.460   5.191  10.912  2.0004  1.7622 -0.9438
  183SLPC   C1120957   0.639   5.122  10.821 -0.1307 -0.3348 -0.3682
  183SLPC  H11A20958   0.695   5.143  10.915  0.4355 -0.7640 -0.6023
  183SLPC  H11B20959   0.665   5.210  10.758  2.2944 -0.9397 -0.3294
  183SLPC     P20960   0.692   4.877  10.859  0.2140 -0.8051 -0.3024
  183SLPC   O1320961   0.802   4.908  10.952  0.1833 -0.8090  0.5406
  183SLPC   O1420962   0.561   4.843  10.921 -0.3216 -0.3432  0.5681
  183SLPC   O1220963   0.682   5.001  10.755  0.3167 -0.0233 -0.8551
  183SLPC   O1120964   0.744   4.758  10.771  0.2081 -0.0655 -0.0573
  183SLPC    C120965   0.817   4.773  10.651 -0.1508  0.2502 -0.1082
  183SLPC    HA20966   0.885   4.861  10.652 -1.5535  1.3588 -0.4891
  183SLPC    HB20967   0.886   4.687  10.638 -1.2804 -0.7630  0.4315
  183SLPC    C220968   0.720   4.776  10.528  0.0942  0.0762  0.2296
  183SLPC    HS20969   0.648   4.856  10.557  1.2650  1.2804 -0.1049
  183SLPC   O2120970   0.652   4.652  10.527 -0.2153  0.0884  0.1363
  183SLPC   C2120971   0.532   4.655  10.464 -0.0559  0.7665  0.5067
  183SLPC   O2220972   0.487   4.755  10.409 -0.2866 -0.3279  0.0206
  183SLPC   C2220973   0.484   4.513  10.473  0.7312  0.6462 -0.1779
  183SLPC   H2R20974   0.562   4.452  10.423  0.3278  1.9281 -2.4930
  183SLPC   H2S20975   0.471   4.474  10.576 -1.1547 -0.8430 -0.9061
  183SLPC    C320976   0.809   4.799  10.403  0.1223 -0.0368 -0.1226
  183SLPC    HX20977   0.879   4.713  10.391  0.8768  0.3104  1.5814
  183SLPC    HY20978   0.871   4.891  10.409 -1.5589  1.1328 -0.1562
  183SLPC   O3120979   0.730   4.806  10.278  0.2984 -0.6604  0.8828
  183SLPC   C3120980   0.670   4.928  10.261  0.2974 -0.4091  0.8666
  183SLPC   O3220981   0.684   5.027  10.332  0.8253  0.0446 -1.1831
  183SLPC   C3220982   0.605   4.933  10.123 -0.4851  0.2884 -0.7817
  183SLPC   H2X20983   0.518   5.002  10.126 -0.2017  0.8021 -2.7240
  183SLPC   H2Y20984   0.571   4.829  10.104  2.9966 -1.5396  1.8384
  183SLPC   C2320985   0.336   4.504  10.419  0.8297 -0.0814 -0.8650
  183SLPC   H3R20986   0.268   4.582  10.460  0.6906  0.2190 -1.6560
  183SLPC   H3S20987   0.299   4.403  10.445 -1.5638  1.0521  0.5023
  183SLPC   C2420988   0.330   4.515  10.266 -0.3902 -0.1069 -0.3404
  183SLPC   H4R20989   0.404   4.437  10.235 -3.3382 -1.7217 -4.0696
  183SLPC   H4S20990   0.359   4.619  10.238  2.6566 -0.7040  0.2070
  183SLPC   C2520991   0.186   4.480  10.220 -0.1941  0.3525  0.4500
  183SLPC   H5R20992   0.135   4.577  10.233 -0.7631  0.2285 -0.7783
  183SLPC   H5S20993   0.138   4.393  10.270  1.7619 -0.6565  0.7108
  183SLPC   C2620994   0.176   4.441  10.069 -0.5363  0.2569 -0.8159
  183SLPC   H6R20995   0.080   4.386  10.056 -0.2563 -0.5675  0.4185
  183SLPC   H6S20996   0.261   4.374  10.047  0.3191  1.2456 -0.5789
  183SLPC   C2720997   0.184   4.558   9.966  0.4954 -0.1178  0.3877
  183SLPC   H7R20998   0.275   4.622   9.975 -0.0240  0.7925 -0.5738
  183SLPC   H7S20999   0.096   4.620   9.993  0.4232 -0.1861  0.3085
  183SLPC   C2821000   0.167   4.512   9.814  0.2912  0.2475  0.0008
  183SLPC   H8R21001   0.151   4.608   9.761  1.5921  0.4529 -0.0403
  183SLPC   H8S21002   0.081   4.442   9.819 -0.9335  1.7716  1.6347
  183SLPC   C2921003   0.291   4.445   9.774 -0.2136 -0.4155 -0.3155
  183SLPC   H9R21004   0.329   4.373   9.848 -0.8094  0.2002  0.5981
  183SLPC  C21021005   0.348   4.451   9.650  0.3885 -0.4979 -0.3860
  183SLPC  H10R21006   0.438   4.392   9.630  0.1670 -1.0652  0.2363
  183SLPC  C21121007   0.294   4.528   9.539  0.3217 -0.3113 -0.4070
  183SLPC  H11R21008   0.185   4.548   9.547  0.0978 -1.3183 -0.8256
  183SLPC  H11S21009   0.289   4.461   9.451  0.2227 -0.7690 -0.0599
  183SLPC  C21221010   0.367   4.654   9.508 -0.4958  0.3208  0.8163
  183SLPC  H12R21011   0.441   4.679   9.585  0.5087 -2.5834  0.9430
  183SLPC  C21321012   0.363   4.726   9.390 -0.2722  0.0173  0.4181
  183SLPC  H13R21013   0.422   4.817   9.378 -0.1728 -0.1044 -0.0201
  183SLPC  C21421014   0.284   4.691   9.267  0.8151 -0.3799  0.7493
  183SLPC  H14R21015   0.224   4.771   9.218 -0.4157 -2.0420 -0.6024
  183SLPC  H14S21016   0.222   4.602   9.291  1.3067 -0.2844  2.4525
  183SLPC  C21521017   0.385   4.656   9.157 -0.9256  0.9842 -0.1007
  183SLPC  H15R21018   0.447   4.567   9.181 -2.3083  0.0272  0.0598
  183SLPC  H15S21019   0.469   4.728   9.150 -0.1781  0.1721  0.2895
  183SLPC  C21621020   0.309   4.625   9.026  0.1602 -0.6853  0.1619
  183SLPC  H16R21021   0.340   4.689   8.941 -0.4583 -0.3619  0.1711
  183SLPC  H16S21022   0.205   4.661   9.038  0.7069  0.6553  1.0608
  183SLPC  C21721023   0.306   4.479   8.987  0.3800 -0.4038  0.4672
  183SLPC  H17R21024   0.268   4.417   9.071 -1.1596 -1.2313 -0.7658
  183SLPC  H17S21025   0.407   4.441   8.960  0.9101  2.0777 -1.3458
  183SLPC  C21821026   0.207   4.460   8.872  0.0133  0.4639  0.0769
  183SLPC  H18R21027   0.103   4.496   8.890 -1.0216 -0.6013 -3.0869
  183SLPC  H18S21028   0.208   4.350   8.864  0.2162  0.5643 -1.6703
  183SLPC  H18T21029   0.242   4.518   8.783 -0.7062  1.7311  0.5850
  183SLPC   C3321030   0.702   5.000  10.017  0.3705  0.7472  0.0650
  183SLPC   H3X21031   0.807   4.977  10.043  1.0879 -0.0690 -3.1597
  183SLPC   H3Y21032   0.683   5.109  10.022  1.2629  0.8709  1.0227
  183SLPC   C3421033   0.674   4.943   9.879  0.4611  0.1553 -0.1349
  183SLPC   H4X21034   0.692   4.834   9.868 -0.6101  0.0426 -0.8791
  183SLPC   H4Y21035   0.752   4.989   9.813  0.9130  1.1334  1.0324
  183SLPC   C3521036   0.534   4.964   9.823 -0.1901  0.0258 -0.0577
  183SLPC   H5X21037   0.492   5.062   9.853  0.9507  0.5360 -0.1029
  183SLPC   H5Y21038   0.467   4.883   9.860  1.1710 -0.6997  0.8631
  183SLPC   C3621039   0.541   4.950   9.669 -0.4903 -0.7509  0.8297
  183SLPC   H6X21040   0.436   4.948   9.633  0.4834 -2.7930 -2.3389
  183SLPC   H6Y21041   0.595   4.860   9.634 -1.8702 -0.6928 -1.6356
  183SLPC   C3721042   0.607   5.078   9.613  0.6718  0.4702 -0.1726
  183SLPC   H7X21043   0.716   5.068   9.634  0.6727  2.8373  1.4543
  183SLPC   H7Y21044   0.576   5.162   9.680  0.8537  0.5803 -0.2251
  183SLPC   C3821045   0.575   5.110   9.469  0.6328 -0.7076 -0.8298
  183SLPC   H8X21046   0.630   5.206   9.456  0.2439 -0.0632  1.7466
  183SLPC   H8Y21047   0.466   5.124   9.458  1.0305  1.7333 -2.4064
  183SLPC   C3921048   0.622   5.004   9.373 -0.5862 -0.4026  0.0483
  183SLPC   H9X21049   0.592   4.902   9.406 -1.5990 -0.4065 -0.8232
  183SLPC   H9Y21050   0.732   5.008   9.369 -0.4911  1.0219  2.3431
  183SLPC  C31021051   0.570   5.025   9.229 -0.6617  0.5277  0.4790
  183SLPC  H10X21052   0.463   4.997   9.226 -0.8740  0.9054  2.9079
  183SLPC  H10Y21053   0.621   4.951   9.162 -2.3361 -0.5056  0.2923
  183SLPC  C31121054   0.590   5.164   9.174 -0.4360 -0.0468 -0.1626
  183SLPC  H11X21055   0.699   5.172   9.195 -1.0402  1.4019  2.9264
  183SLPC  H11Y21056   0.537   5.248   9.223 -0.2205  1.5380 -2.4964
  183SLPC  C31221057   0.566   5.187   9.022 -0.1023  0.2102 -0.2805
  183SLPC  H12X21058   0.455   5.200   9.014 -0.2086 -1.0491 -1.0844
  183SLPC  H12Y21059   0.598   5.093   8.973  0.9647  1.7700 -2.7318
  183SLPC  C31321060   0.635   5.302   8.956  0.5842 -0.3471 -0.0247
  183SLPC  H13X21061   0.745   5.288   8.957  0.4193 -1.8034  1.3188
  183SLPC  H13Y21062   0.614   5.399   9.005 -0.2320 -0.7232  0.3873
  183SLPC  C31421063   0.587   5.325   8.816 -0.3620 -0.9255  0.4848
  183SLPC  H14X21064   0.481   5.358   8.817  0.4022  1.7435 -0.0449
  183SLPC  H14Y21065   0.601   5.235   8.752 -0.2514 -0.4393 -0.1765
  183SLPC  C31521066   0.652   5.441   8.739  0.4732  0.3311  0.1775
  183SLPC  H15X21067   0.609   5.445   8.636 -2.1124 -3.2453  0.9272
  183SLPC  H15Y21068   0.763   5.429   8.736  0.3991 -0.6011  0.7108
  183SLPC  C31621069   0.612   5.575   8.800 -0.2216 -0.0992 -0.1140
  183SLPC  H16X21070   0.661   5.577   8.899 -1.0431  4.2131  0.3800
  183SLPC  H16Y21071   0.501   5.576   8.796 -0.2347 -1.5190 -0.7688
  183SLPC  C31721072   0.659   5.692   8.720 -0.2675 -0.5831  0.5276
  183SLPC  H17X21073   0.631   5.666   8.616 -0.0491  2.6934 -0.4572
  183SLPC  H17Y21074   0.769   5.697   8.731 -0.2359  1.2644 -0.1902
  183SLPC  C31821075   0.597   5.833   8.757 -0.0106 -0.6827 -0.0535
  183SLPC  H18X21076   0.599   5.850   8.866  0.2851  0.4956 -0.2211
  183SLPC  H18Y21077   0.493   5.843   8.718  0.3453  3.1838 -0.4665
  183SLPC  H18Z21078   0.647   5.918   8.704  1.7369 -0.3425  2.0139
  184SLPC     N21079   2.466   1.398  10.871 -0.5542 -0.1712  0.6417
  184SLPC   C1321080   2.353   1.455  10.950 -0.8781 -0.2491  0.5837
  184SLPC  H13A21081   2.369   1.548  11.002  0.2265  0.9342 -1.7212
  184SLPC  H13B21082   2.272   1.472  10.880  0.2983 -0.7833 -0.9758
  184SLPC  H13C21083   2.319   1.376  11.015  3.4529 -1.1738  2.0806
  184SLPC   C1421084   2.574   1.348  10.966  0.2217  0.9391  0.1503
  184SLPC  H14A21085   2.654   1.316  10.901 -0.2368  1.5929 -0.7611
  184SLPC  H14B21086   2.607   1.417  11.043  1.6620 -0.4895  0.8654
  184SLPC  H14C21087   2.542   1.264  11.026 -0.8644 -0.5803 -2.3804
  184SLPC   C1521088   2.525   1.510  10.789  0.0533 -0.1645 -0.2157
  184SLPC  H15A21089   2.535   1.595  10.855 -0.5427 -1.2979  1.4009
  184SLPC  H15B21090   2.619   1.479  10.747 -0.4632 -0.2986 -1.3286
  184SLPC  H15C21091   2.460   1.541  10.708  0.3943  2.3555  0.4007
  184SLPC   C1221092   2.417   1.289  10.778 -0.2152 -0.5672  0.1879
  184SLPC  H12A21093   2.372   1.211  10.838 -1.0914 -1.2071 -1.2561
  184SLPC  H12B21094   2.500   1.249  10.721 -0.6953 -0.7175 -0.4108
  184SLPC   C1121095   2.309   1.321  10.677 -0.2664 -0.1645 -1.0164
  184SLPC  H11A21096   2.301   1.229  10.615 -0.5117 -1.5545  0.9642
  184SLPC  H11B21097   2.335   1.402  10.606  0.0310 -0.5531 -1.3562
  184SLPC     P21098   2.087   1.225  10.779 -0.1485 -0.0042 -0.2765
  184SLPC   O1321099   2.153   1.156  10.897  0.0178 -0.6104  0.5014
  184SLPC   O1421100   1.949   1.265  10.797  0.5184  0.0978  0.1600
  184SLPC   O1221101   2.185   1.345  10.736  0.3295 -0.4232 -0.2454
  184SLPC   O1121102   2.097   1.132  10.661 -0.1836  0.5834 -0.1814
  184SLPC    C121103   2.048   1.167  10.529  0.1739 -0.1509 -0.0806
  184SLPC    HA21104   1.943   1.203  10.535  0.3866  0.2451  2.2960
  184SLPC    HB21105   2.107   1.252  10.490 -1.2734  0.5594 -0.8185
  184SLPC    C221106   2.055   1.042  10.444 -0.7540 -0.3336  0.6821
  184SLPC    HS21107   2.148   0.995  10.484 -0.7598 -1.0195 -0.0686
  184SLPC   O2121108   2.077   1.077  10.302  0.7215  0.0356 -0.0382
  184SLPC   C2121109   2.128   0.985  10.237  0.3069 -0.4077  0.9135
  184SLPC   O2221110   2.182   0.884  10.275 -0.2581 -0.3407 -0.7470
  184SLPC   C2221111   2.118   1.025  10.090 -0.3596 -0.0540  0.1765
  184SLPC   H2R21112   2.172   0.949  10.028 -0.0953  1.7181 -1.8612
  184SLPC   H2S21113   2.015   1.027  10.049  0.6637  0.5510 -2.6254
  184SLPC    C321114   1.926   0.960  10.462 -0.4607 -0.2304 -0.3064
  184SLPC    HX21115   1.846   1.027  10.424 -0.8373  0.0129  0.8646
  184SLPC    HY21116   1.925   0.933  10.570  0.6096  0.4729 -0.1038
  184SLPC   O3121117   1.936   0.840  10.380  0.7274 -0.1912  0.0651
  184SLPC   C3121118   1.817   0.778  10.396 -0.2973 -0.3603  0.0860
  184SLPC   O3221119   1.720   0.820  10.458  0.2538 -0.3949  0.1303
  184SLPC   C3221120   1.826   0.643  10.329 -0.0270  0.0614  0.8094
  184SLPC   H2X21121   1.765   0.582  10.398 -1.8952  2.3779  1.3416
  184SLPC   H2Y21122   1.934   0.616  10.324 -0.1301 -0.5950  1.9357
  184SLPC   C2321123   2.177   1.169  10.050 -0.0160  0.0674  0.1029
  184SLPC   H3R21124   2.282   1.174  10.085 -0.1718 -1.8411  1.0138
  184SLPC   H3S21125   2.105   1.235  10.103  0.4730  0.1224  0.7104
  184SLPC   C2421126   2.165   1.206   9.907  0.0847  0.0531  0.4453
  184SLPC   H4R21127   2.059   1.196   9.875 -0.0923 -0.5034  1.1801
  184SLPC   H4S21128   2.231   1.137   9.849  0.0173  0.8010 -0.5407
  184SLPC   C2521129   2.189   1.356   9.877 -0.2635 -0.6570 -0.2211
  184SLPC   H5R21130   2.110   1.409   9.935  1.7711  0.3794  1.7510
  184SLPC   H5S21131   2.149   1.372   9.775 -0.1461 -2.5617 -0.5958
  184SLPC   C2621132   2.336   1.409   9.900  0.8123 -0.3360  0.7293
  184SLPC   H6R21133   2.358   1.394  10.008  2.1196  0.4213  0.5988
  184SLPC   H6S21134   2.341   1.516   9.870  1.0152 -0.2534  1.0535
  184SLPC   C2721135   2.438   1.322   9.824 -0.0076  0.6102 -0.1654
  184SLPC   H7R21136   2.406   1.315   9.718 -0.2689  0.1210 -0.0517
  184SLPC   H7S21137   2.432   1.219   9.863 -0.6107 -0.0554 -1.9325
  184SLPC   C2821138   2.582   1.374   9.821  1.0178  0.6732 -0.6481
  184SLPC   H8R21139   2.615   1.378   9.927 -3.2860 -1.1793  1.0119
  184SLPC   H8S21140   2.573   1.471   9.767 -0.8155  0.1962 -1.2956
  184SLPC   C2921141   2.672   1.281   9.739 -0.2339 -0.4084  0.3390
  184SLPC   H9R21142   2.712   1.196   9.795 -1.4154 -1.0837  0.2085
  184SLPC  C21021143   2.721   1.305   9.614 -0.4704 -0.3981 -0.1777
  184SLPC  H10R21144   2.784   1.222   9.578 -0.2548 -0.0810 -0.5373
  184SLPC  C21121145   2.707   1.421   9.518 -0.1525 -0.1853  0.5874
  184SLPC  H11R21146   2.682   1.512   9.578  4.0284  1.8142 -0.3302
  184SLPC  H11S21147   2.612   1.411   9.460 -1.0517  0.1566  1.9417
  184SLPC  C21221148   2.822   1.455   9.435 -0.1974 -0.5962  0.3760
  184SLPC  H12R21149   2.894   1.531   9.470  0.2872 -0.1266 -1.5412
  184SLPC  C21321150   2.833   1.418   9.305 -0.8613 -0.4037  0.1515
  184SLPC  H13R21151   2.922   1.457   9.254 -0.3171  0.0347  1.3954
  184SLPC  C21421152   2.732   1.343   9.218 -0.3352  0.4687  0.2012
  184SLPC  H14R21153   2.677   1.281   9.292  1.8260 -0.0102  1.5195
  184SLPC  H14S21154   2.785   1.277   9.147 -0.8136  0.0506  0.2286
  184SLPC  C21521155   2.630   1.442   9.152 -0.9291  0.1821 -0.7801
  184SLPC  H15R21156   2.582   1.504   9.231 -0.0670 -2.7242  2.2508
  184SLPC  H15S21157   2.547   1.375   9.121 -0.9417  0.7011 -1.8948
  184SLPC  C21621158   2.680   1.529   9.037  0.3425  0.5011  0.4261
  184SLPC  H16R21159   2.735   1.465   8.965 -1.6131 -1.0815  0.2577
  184SLPC  H16S21160   2.754   1.593   9.090 -0.1411  0.1031  1.6051
  184SLPC  C21721161   2.569   1.602   8.957 -0.3631  0.0694  0.3529
  184SLPC  H17R21162   2.489   1.530   8.931  0.5580 -0.4409 -1.1870
  184SLPC  H17S21163   2.607   1.646   8.863 -1.5590 -1.3357 -0.8306
  184SLPC  C21821164   2.503   1.709   9.039 -0.1295  0.3506  0.0249
  184SLPC  H18R21165   2.424   1.763   8.983 -0.4221 -1.9921 -1.9699
  184SLPC  H18S21166   2.576   1.784   9.075  0.7248 -0.0309 -0.8676
  184SLPC  H18T21167   2.462   1.669   9.134 -1.8008 -0.1701 -0.8842
  184SLPC   C3321168   1.791   0.640  10.175 -0.2919 -0.0697  0.1342
  184SLPC   H3X21169   1.695   0.695  10.161 -1.5353 -2.3577 -0.8628
  184SLPC   H3Y21170   1.766   0.538  10.138  0.5153  0.1444 -1.0545
  184SLPC   C3421171   1.908   0.697  10.093 -0.2224 -0.2808 -0.8578
  184SLPC   H4X21172   2.011   0.658  10.101  0.2462  0.9548 -0.7341
  184SLPC   H4Y21173   1.909   0.805  10.117  0.1175 -0.3680 -0.4746
  184SLPC   C3521174   1.866   0.696   9.947 -0.7958  0.8213  0.5745
  184SLPC   H5X21175   1.764   0.737   9.929 -0.4812  1.2050 -0.3711
  184SLPC   H5Y21176   1.876   0.596   9.900  1.2939  1.7695 -1.1574
  184SLPC   C3621177   1.952   0.789   9.861 -0.8314 -0.1425 -0.6659
  184SLPC   H6X21178   2.049   0.784   9.915 -0.8188 -1.4775 -0.7683
  184SLPC   H6Y21179   1.910   0.891   9.872  0.8856  0.4286  1.0515
  184SLPC   C3721180   1.965   0.727   9.724  0.0142 -0.0230  0.0772
  184SLPC   H7X21181   1.868   0.750   9.674  0.6190  0.3766 -0.9420
  184SLPC   H7Y21182   1.983   0.618   9.736  2.3685  0.4235  1.0929
  184SLPC   C3821183   2.067   0.778   9.631 -0.3126  0.5636  0.6000
  184SLPC   H8X21184   2.163   0.755   9.682 -1.4477 -1.2611  2.0384
  184SLPC   H8Y21185   2.054   0.889   9.630 -2.9557  0.3286 -0.0212
  184SLPC   C3921186   2.048   0.710   9.492  0.0345  1.1100 -0.0431
  184SLPC   H9X21187   1.943   0.678   9.481  0.6768 -1.0410 -0.3369
  184SLPC   H9Y21188   2.125   0.630   9.498  2.3228  3.2179  0.1907
  184SLPC  C31021189   2.077   0.799   9.367  0.6172 -0.3553  0.0084
  184SLPC  H10X21190   2.091   0.741   9.273 -1.0157  0.9160 -1.0870
  184SLPC  H10Y21191   2.173   0.849   9.392  0.5406 -0.6138  0.8499
  184SLPC  C31121192   1.962   0.899   9.337  0.1726  0.3615  0.0455
  184SLPC  H11X21193   1.940   0.952   9.433 -0.3038  0.8289 -0.3163
  184SLPC  H11Y21194   1.871   0.843   9.307 -0.0946  1.1703 -0.6927
  184SLPC  C31221195   1.979   1.008   9.222 -0.4229  0.5547 -0.6828
  184SLPC  H12X21196   1.895   1.079   9.230  0.3763  1.4093  0.3791
  184SLPC  H12Y21197   1.951   0.953   9.129 -1.0239 -0.9807  0.3563
  184SLPC  C31321198   2.114   1.080   9.204  0.3732 -0.1239  0.3713
  184SLPC  H13X21199   2.192   1.015   9.161 -0.0727 -0.8416  0.6330
  184SLPC  H13Y21200   2.148   1.107   9.306  3.5082 -1.4872 -0.1878
  184SLPC  C31421201   2.098   1.208   9.120  0.2072 -0.4865 -0.3498
  184SLPC  H14X21202   2.018   1.272   9.162  0.2058 -0.1287 -0.8845
  184SLPC  H14Y21203   2.058   1.179   9.021 -3.8657  0.6737  0.7595
  184SLPC  C31521204   2.230   1.288   9.120 -0.4580  0.2156  0.0412
  184SLPC  H15X21205   2.310   1.259   9.048 -0.5392 -0.2368  0.1279
  184SLPC  H15Y21206   2.274   1.283   9.221 -0.5725 -2.5517  0.0465
  184SLPC  C31621207   2.201   1.438   9.086  0.0606 -0.3307 -0.0679
  184SLPC  H16X21208   2.296   1.491   9.108 -0.9815  0.5986  2.4815
  184SLPC  H16Y21209   2.125   1.476   9.157  0.1376 -1.2293  0.5031
  184SLPC  C31721210   2.164   1.465   8.939  0.2573 -0.8342  1.0405
  184SLPC  H17X21211   2.070   1.413   8.910 -1.0599  2.1416 -0.4634
  184SLPC  H17Y21212   2.249   1.421   8.882 -0.0387 -0.7697  0.5412
  184SLPC  C31821213   2.161   1.617   8.909 -0.1147 -0.0337 -1.1884
  184SLPC  H18X21214   2.057   1.649   8.931  0.3317  0.7604 -0.1463
  184SLPC  H18Y21215   2.155   1.625   8.798  2.7726  1.6022 -1.3325
  184SLPC  H18Z21216   2.245   1.675   8.954 -0.3624 -0.5842  0.0167
  185SLPC     N21217   0.309   3.385   6.386  0.0148 -0.2175 -0.0477
  185SLPC   C1321218   0.419   3.281   6.378 -0.1896  0.3685  0.3299
  185SLPC  H13A21219   0.446   3.262   6.275 -1.1632 -1.4606  0.3736
  185SLPC  H13B21220   0.504   3.302   6.440  1.0836 -0.8066 -0.9413
  185SLPC  H13C21221   0.381   3.187   6.414 -0.4624 -0.6770 -2.3959
  185SLPC   C1421222   0.201   3.342   6.287 -0.3267 -0.5634 -0.4316
  185SLPC  H14A21223   0.120   3.411   6.267 -0.5376 -1.0491 -1.2810
  185SLPC  H14B21224   0.248   3.311   6.195 -0.6983  0.4828 -0.9912
  185SLPC  H14C21225   0.154   3.253   6.326  0.5068 -0.3763  1.0750
  185SLPC   C1521226   0.362   3.513   6.351 -0.0869 -0.3065  0.3070
  185SLPC  H15A21227   0.450   3.533   6.411  1.3012 -1.0614 -1.3566
  185SLPC  H15B21228   0.381   3.534   6.247  1.6654  1.0814  0.8574
  185SLPC  H15C21229   0.288   3.585   6.380  1.1299  0.6215  1.2409
  185SLPC   C1221230   0.251   3.390   6.526 -0.4050  0.5467  0.0315
  185SLPC  H12A21231   0.197   3.298   6.542  0.1106  0.3452  0.6671
  185SLPC  H12B21232   0.170   3.460   6.542  1.9785  3.1760  1.6934
  185SLPC   C1121233   0.345   3.396   6.656  0.3063 -0.0686 -0.5465
  185SLPC  H11A21234   0.408   3.304   6.655 -1.9294 -1.6742 -0.4613
  185SLPC  H11B21235   0.275   3.382   6.741  0.4712 -0.2416 -0.4369
  185SLPC     P21236   0.372   3.653   6.685  0.1177  0.2027 -0.1676
  185SLPC   O1321237   0.444   3.748   6.599  0.7133  0.2340  0.1777
  185SLPC   O1421238   0.225   3.649   6.664 -0.0591 -0.0334 -0.5697
  185SLPC   O1221239   0.438   3.511   6.670  0.3943  0.5411 -0.1451
  185SLPC   O1121240   0.417   3.696   6.830 -0.0793  0.3945  0.2637
  185SLPC    C121241   0.551   3.676   6.872 -0.1530 -0.1440  0.4686
  185SLPC    HA21242   0.615   3.605   6.815  1.3755  0.6147  1.1902
  185SLPC    HB21243   0.599   3.775   6.857 -0.2994 -0.1667 -0.2034
  185SLPC    C221244   0.556   3.621   7.019 -0.4284  0.1431 -0.1330
  185SLPC    HS21245   0.537   3.696   7.098  2.5490 -0.5651  1.3986
  185SLPC   O2121246   0.680   3.555   7.044  0.1141 -1.0199  0.5260
  185SLPC   C2121247   0.783   3.631   7.052 -0.1484 -0.1589  0.3175
  185SLPC   O2221248   0.780   3.752   7.051 -0.1610 -0.7188 -0.2622
  185SLPC   C2221249   0.907   3.545   7.071 -0.0267 -0.1417  0.0590
  185SLPC   H2R21250   0.921   3.485   6.978  0.5865 -1.1233  0.7693
  185SLPC   H2S21251   0.992   3.616   7.083 -0.4328  0.3791 -0.0821
  185SLPC    C321252   0.444   3.514   7.039  0.0519 -0.5616 -0.1500
  185SLPC    HX21253   0.468   3.436   6.964 -0.0420 -0.9595  0.2350
  185SLPC    HY21254   0.343   3.558   7.025  0.0517  0.9152  3.4299
  185SLPC   O3121255   0.442   3.441   7.158  0.2077 -0.0199 -0.3517
  185SLPC   C3121256   0.402   3.513   7.263 -0.4190 -0.8849 -0.1967
  185SLPC   O3221257   0.361   3.630   7.266  0.1724  0.1763  0.5017
  185SLPC   C3221258   0.408   3.434   7.391  0.4163  0.0283 -0.0508
  185SLPC   H2X21259   0.494   3.363   7.388  2.4114  2.2471  0.9305
  185SLPC   H2Y21260   0.323   3.365   7.407  2.6268 -3.6168 -2.4855
  185SLPC   C2321261   0.894   3.452   7.191  0.7145  0.5930  0.0323
  185SLPC   H3R21262   0.955   3.359   7.180 -0.5724 -0.0894 -1.8978
  185SLPC   H3S21263   0.790   3.414   7.199  0.7593  0.3948 -0.2940
  185SLPC   C2421264   0.933   3.519   7.320  0.0088 -1.1646 -0.1490
  185SLPC   H4R21265   0.884   3.618   7.333  3.5209  1.2242 -3.1777
  185SLPC   H4S21266   1.044   3.523   7.325  0.4153 -3.0246 -4.1870
  185SLPC   C2521267   0.906   3.417   7.433  0.1673  0.6292  0.1630
  185SLPC   H5R21268   0.960   3.321   7.419  1.0371  0.8680  1.7013
  185SLPC   H5S21269   0.797   3.397   7.443  0.5947 -1.2545  1.5604
  185SLPC   C2621270   0.956   3.472   7.570  0.4006 -0.6938 -0.0703
  185SLPC   H6R21271   0.900   3.564   7.594 -0.7955 -1.9298  2.2735
  185SLPC   H6S21272   1.064   3.496   7.562  0.5782 -1.5364 -0.3035
  185SLPC   C2721273   0.935   3.375   7.687  0.5070  0.2199 -0.2170
  185SLPC   H7R21274   0.971   3.279   7.645 -0.3025  0.0485 -0.5547
  185SLPC   H7S21275   0.825   3.367   7.700 -0.0956  2.7577 -2.5536
  185SLPC   C2821276   1.008   3.407   7.818 -0.2262 -0.4489  0.4004
  185SLPC   H8R21277   0.947   3.487   7.866  0.3043  0.2264 -0.0369
  185SLPC   H8S21278   1.097   3.464   7.786 -1.0798 -0.1548 -1.5953
  185SLPC   C2921279   1.048   3.305   7.924  0.7098 -0.0079 -0.1052
  185SLPC   H9R21280   0.954   3.250   7.943 -0.1261  1.4729  0.2724
  185SLPC  C21021281   1.169   3.276   7.972  0.0870 -0.3778  0.2643
  185SLPC  H10R21282   1.175   3.194   8.045  0.9412  0.1204  0.7688
  185SLPC  C21121283   1.297   3.348   7.949  0.0962  0.4217 -0.0132
  185SLPC  H11R21284   1.354   3.362   8.043  1.3695 -2.5408 -0.2284
  185SLPC  H11S21285   1.290   3.449   7.903  2.2833  0.6019 -0.0421
  185SLPC  C21221286   1.380   3.264   7.857  0.1358  0.0226 -0.8594
  185SLPC  H12R21287   1.391   3.291   7.751  0.8806  0.6491 -0.6276
  185SLPC  C21321288   1.472   3.177   7.899 -0.0534 -0.1060 -0.0574
  185SLPC  H13R21289   1.525   3.126   7.817  0.6336 -1.2584  1.0674
  185SLPC  C21421290   1.501   3.123   8.033 -1.3119 -0.0012 -0.3872
  185SLPC  H14R21291   1.520   3.014   8.041  1.3088  0.2113 -2.4489
  185SLPC  H14S21292   1.423   3.146   8.108 -0.6916  0.8146  0.0153
  185SLPC  C21521293   1.629   3.201   8.091  0.7028 -0.0270  0.0898
  185SLPC  H15R21294   1.597   3.307   8.106  1.5961  0.1464  0.8200
  185SLPC  H15S21295   1.712   3.189   8.019  1.4379 -1.3952  1.1174
  185SLPC  C21621296   1.672   3.128   8.221  0.6186 -0.3759  0.5807
  185SLPC  H16R21297   1.772   3.153   8.262  0.4555 -1.5554  1.7531
  185SLPC  H16S21298   1.678   3.021   8.193 -2.3361 -0.9775  1.9379
  185SLPC  C21721299   1.574   3.141   8.329  0.6984  0.0989 -0.0802
  185SLPC  H17R21300   1.474   3.118   8.288  1.3633  0.8310 -2.2573
  185SLPC  H17S21301   1.583   3.244   8.370  0.3578  0.1794 -0.2051
  185SLPC  C21821302   1.608   3.027   8.427  0.2660  0.3793  0.0433
  185SLPC  H18R21303   1.600   2.923   8.389 -1.7057 -0.4698  2.4876
  185SLPC  H18S21304   1.536   3.030   8.511 -0.4723  1.9719 -0.6019
  185SLPC  H18T21305   1.708   3.051   8.468  1.0172  2.5471 -2.6934
  185SLPC   C3321306   0.448   3.530   7.507  0.0313 -0.1009  0.5558
  185SLPC   H3X21307   0.374   3.612   7.520 -2.5560 -2.5883  2.4780
  185SLPC   H3Y21308   0.546   3.573   7.474 -0.9211  1.0050 -1.0246
  185SLPC   C3421309   0.453   3.452   7.631  0.2479 -0.2050  0.6684
  185SLPC   H4X21310   0.535   3.378   7.626  1.1071  0.4202  3.5378
  185SLPC   H4Y21311   0.361   3.390   7.643  0.2646 -0.4299 -0.2770
  185SLPC   C3521312   0.461   3.541   7.761  0.2580  0.5656 -0.1274
  185SLPC   H5X21313   0.370   3.603   7.770 -1.4926 -1.3584 -2.8222
  185SLPC   H5Y21314   0.550   3.608   7.756  0.8082  0.1943  2.7824
  185SLPC   C3621315   0.463   3.456   7.889 -0.5275  0.8007  0.5446
  185SLPC   H6X21316   0.570   3.425   7.895 -0.7557  0.0038  0.5037
  185SLPC   H6Y21317   0.393   3.371   7.882  1.3052 -0.7728  0.6414
  185SLPC   C3721318   0.426   3.541   8.009  0.1611  0.3437  0.3150
  185SLPC   H7X21319   0.330   3.598   8.017  0.3649  0.8565 -0.7972
  185SLPC   H7Y21320   0.503   3.621   8.005  0.3388  0.1275 -1.7497
  185SLPC   C3821321   0.434   3.459   8.134  0.6386  0.2312  0.3153
  185SLPC   H8X21322   0.486   3.508   8.219  1.3740 -2.1440  1.3321
  185SLPC   H8Y21323   0.509   3.381   8.106  1.0291  0.8760 -0.4678
  185SLPC   C3921324   0.294   3.399   8.168  0.2035 -0.9603  0.2660
  185SLPC   H9X21325   0.262   3.334   8.084  1.0261  0.1332 -0.9355
  185SLPC   H9Y21326   0.221   3.480   8.191 -0.5736 -1.6895  0.4351
  185SLPC  C31021327   0.301   3.326   8.310 -0.0072  0.0041  0.2997
  185SLPC  H10X21328   0.341   3.390   8.391 -1.5081 -0.6745  1.6428
  185SLPC  H10Y21329   0.378   3.247   8.297  0.0864 -0.4431  3.0761
  185SLPC  C31121330   0.160   3.285   8.354  0.2525  0.2427  0.3790
  185SLPC  H11X21331   0.132   3.204   8.284  2.8867 -0.2236 -0.2615
  185SLPC  H11Y21332   0.094   3.375   8.350 -0.2064  0.0972  2.9959
  185SLPC  C31221333   0.157   3.228   8.491  0.2184 -0.3392  0.0546
  185SLPC  H12X21334   0.216   3.289   8.562 -0.1711 -1.0066  0.9901
  185SLPC  H12Y21335   0.204   3.127   8.499  0.6478  0.0134  3.0415
  185SLPC  C31321336   0.010   3.219   8.548 -0.3430 -0.3960  0.0234
  185SLPC  H13X21337  -0.058   3.167   8.477 -0.8466  1.8918 -1.2782
  185SLPC  H13Y21338  -0.012   3.327   8.539  0.9746 -0.0888  0.3383
  185SLPC  C31421339  -0.013   3.168   8.691  0.0902  0.3235 -0.1504
  185SLPC  H14X21340   0.051   3.226   8.762 -0.2367 -0.7234  1.0519
  185SLPC  H14Y21341   0.020   3.062   8.702  0.2052  0.3789  0.0608
  185SLPC  C31521342  -0.162   3.170   8.730 -0.4786 -0.0099  0.0942
  185SLPC  H15X21343  -0.206   3.072   8.703 -0.2121 -0.3997  1.0312
  185SLPC  H15Y21344  -0.210   3.263   8.694  0.1295  0.4115  0.3649
  185SLPC  C31621345  -0.180   3.173   8.885  0.7037  0.6822  0.1182
  185SLPC  H16X21346  -0.118   3.091   8.927 -0.9650  0.9824  3.5151
  185SLPC  H16Y21347  -0.285   3.145   8.908  1.6589 -2.3360  1.3402
  185SLPC  C31721348  -0.151   3.319   8.942 -0.2363  0.1504 -0.4191
  185SLPC  H17X21349  -0.152   3.396   8.861 -0.5134 -1.7788 -2.3673
  185SLPC  H17Y21350  -0.057   3.317   9.000 -0.8232 -2.8355  0.6307
  185SLPC  C31821351  -0.259   3.377   9.042  0.1401  0.3352  0.5414
  185SLPC  H18X21352  -0.245   3.483   9.071  1.0837  0.3134  0.2085
  185SLPC  H18Y21353  -0.254   3.311   9.132  0.7050 -1.1333 -0.5218
  185SLPC  H18Z21354  -0.354   3.366   8.986  1.1166  1.1680 -1.3626
  186SLPC     N21355   2.580   0.087   6.185 -0.1807  0.4033 -0.2289
  186SLPC   C1321356   2.474   0.035   6.102 -0.6073 -0.5130  1.1004
  186SLPC  H13A21357   2.420   0.115   6.052  0.8827  1.4701  2.4824
  186SLPC  H13B21358   2.514  -0.020   6.018  0.7605 -0.2519  1.5669
  186SLPC  H13C21359   2.415  -0.035   6.159 -0.5882 -1.6627 -0.2562
  186SLPC   C1421360   2.685   0.154   6.096 -0.0435 -0.0275  0.3198
  186SLPC  H14A21361   2.736   0.083   6.032 -0.9166  0.3766 -0.8741
  186SLPC  H14B21362   2.643   0.217   6.019  1.2462 -0.1060 -0.4754
  186SLPC  H14C21363   2.750   0.212   6.159  1.7909 -2.1323  0.4929
  186SLPC   C1521364   2.654  -0.028   6.245  0.2684 -0.0241  0.0602
  186SLPC  H15A21365   2.690  -0.078   6.156 -0.6893  1.2525 -1.1011
  186SLPC  H15B21366   2.739   0.003   6.304  0.7168 -0.7349 -0.2014
  186SLPC  H15C21367   2.604  -0.093   6.315 -0.9778 -0.8845 -1.5502
  186SLPC   C1221368   2.529   0.181   6.285  0.2285 -0.1966 -1.0936
  186SLPC  H12A21369   2.470   0.128   6.358 -2.8676  2.6595 -1.2681
  186SLPC  H12B21370   2.461   0.251   6.238 -1.4061 -1.1384 -0.2176
  186SLPC   C1121371   2.621   0.254   6.389 -0.2259 -0.1285  0.4006
  186SLPC  H11A21372   2.683   0.328   6.333 -0.7701  0.3912  0.4653
  186SLPC  H11B21373   2.692   0.186   6.441  1.5020  0.2222 -1.3950
  186SLPC     P21374   2.454   0.453   6.476  0.0982  0.1618 -0.1418
  186SLPC   O1321375   2.426   0.474   6.334 -0.1080 -0.3741 -0.4253
  186SLPC   O1421376   2.345   0.435   6.566  0.1368 -0.5894 -0.0339
  186SLPC   O1221377   2.537   0.315   6.487 -0.7536  0.3985  0.3663
  186SLPC   O1121378   2.546   0.565   6.533  0.6937 -0.1557  0.0430
  186SLPC    C121379   2.647   0.544   6.627  0.9136  0.0067  0.7909
  186SLPC    HA21380   2.701   0.451   6.599  0.3243  0.6969 -3.2197
  186SLPC    HB21381   2.718   0.625   6.597 -1.7297  1.6521 -1.4431
  186SLPC    C221382   2.597   0.540   6.768 -0.2854  0.5420 -0.3762
  186SLPC    HS21383   2.515   0.466   6.780 -0.1049  0.6261  1.5742
  186SLPC   O2121384   2.552   0.672   6.807  0.3087 -0.2686 -0.1273
  186SLPC   C2121385   2.444   0.668   6.889  0.3882  0.0875  0.1743
  186SLPC   O2221386   2.376   0.574   6.931 -0.1293  0.2699 -0.8843
  186SLPC   C2221387   2.403   0.811   6.924 -0.1408 -0.1608  0.1738
  186SLPC   H2R21388   2.489   0.864   6.970  1.1401 -1.2264 -0.9088
  186SLPC   H2S21389   2.378   0.862   6.828 -0.1342 -0.1992  0.1517
  186SLPC    C321390   2.716   0.497   6.864  0.3666  0.2036 -0.2854
  186SLPC    HX21391   2.808   0.556   6.846  0.1618  0.6802  0.2104
  186SLPC    HY21392   2.749   0.399   6.824 -0.4568  0.0131 -0.5185
  186SLPC   O3121393   2.686   0.505   7.005  0.1112  0.0585  0.3465
  186SLPC   C3121394   2.621   0.392   7.051  0.4330  0.3235  0.4302
  186SLPC   O3221395   2.603   0.292   6.977 -0.4333 -0.0733 -0.0291
  186SLPC   C3221396   2.573   0.411   7.195 -0.6425 -0.1383  0.2342
  186SLPC   H2X21397   2.468   0.447   7.198 -0.8807 -0.8391  0.4103
  186SLPC   H2Y21398   2.638   0.492   7.234  0.1863 -0.3707 -0.6371
  186SLPC   C2321399   2.290   0.803   7.030  0.2575 -0.2395  0.1470
  186SLPC   H3R21400   2.210   0.730   7.006  0.1432 -0.4772  1.1755
  186SLPC   H3S21401   2.235   0.899   7.040 -4.1243 -2.3558 -0.9639
  186SLPC   C2421402   2.342   0.783   7.171  0.0885  0.3209  0.1444
  186SLPC   H4R21403   2.393   0.876   7.205  1.8061 -0.7299  0.5247
  186SLPC   H4S21404   2.413   0.699   7.182 -1.4420 -0.8956  1.1721
  186SLPC   C2521405   2.227   0.747   7.272 -0.0591  0.3119  0.3689
  186SLPC   H5R21406   2.185   0.651   7.237  2.0173 -0.0630 -1.2949
  186SLPC   H5S21407   2.140   0.815   7.262 -0.0360  0.3864  0.6520
  186SLPC   C2621408   2.274   0.736   7.417  0.6316 -1.3106 -0.1039
  186SLPC   H6R21409   2.185   0.709   7.478 -1.2827  1.0888 -1.6507
  186SLPC   H6S21410   2.321   0.828   7.456 -1.2569 -0.4176  0.1617
  186SLPC   C2721411   2.379   0.625   7.437  0.2461  0.0240  0.3388
  186SLPC   H7R21412   2.472   0.658   7.386  1.3324 -2.0450  0.8431
  186SLPC   H7S21413   2.346   0.535   7.382  0.5860  1.4984 -2.4479
  186SLPC   C2821414   2.404   0.587   7.585  0.5593 -0.2466 -1.0311
  186SLPC   H8R21415   2.312   0.536   7.620  0.0331  0.5568 -1.2110
  186SLPC   H8S21416   2.424   0.679   7.645  3.3180 -0.4477 -1.4856
  186SLPC   C2921417   2.538   0.512   7.604  0.3255 -0.1232 -0.6060
  186SLPC   H9R21418   2.604   0.503   7.516  0.0702 -0.5970 -0.7538
  186SLPC  C21021419   2.584   0.466   7.726 -0.3049 -1.0068 -0.2260
  186SLPC  H10R21420   2.686   0.425   7.727  0.1273  0.0348  0.7527
  186SLPC  C21121421   2.513   0.497   7.856 -0.5429 -0.0649 -0.3503
  186SLPC  H11R21422   2.412   0.544   7.852 -0.6456  0.0949  2.3154
  186SLPC  H11S21423   2.561   0.577   7.916 -1.6072 -1.2251  2.2270
  186SLPC  C21221424   2.490   0.373   7.936  0.2641 -0.3617 -0.6286
  186SLPC  H12R21425   2.470   0.282   7.877  1.2316 -1.6292  0.9204
  186SLPC  C21321426   2.507   0.356   8.071  0.9304 -0.5620  0.5897
  186SLPC  H13R21427   2.474   0.268   8.127  1.6749 -1.0732  0.2316
  186SLPC  C21421428   2.559   0.473   8.158  0.3891  0.2345  0.7815
  186SLPC  H14R21429   2.537   0.578   8.126 -3.0716 -0.7559 -0.5937
  186SLPC  H14S21430   2.669   0.462   8.161  0.8020  2.2048 -2.1872
  186SLPC  C21521431   2.502   0.466   8.301 -0.8689  0.6850  0.5191
  186SLPC  H15R21432   2.524   0.370   8.354  0.0265  1.9867  2.6793
  186SLPC  H15S21433   2.392   0.473   8.292 -1.1927 -3.6162 -0.8428
  186SLPC  C21621434   2.553   0.586   8.388 -0.1758 -0.3932 -0.2154
  186SLPC  H16R21435   2.555   0.680   8.328  1.6158  0.3821  0.9876
  186SLPC  H16S21436   2.662   0.578   8.409 -0.0797  2.5808  0.9549
  186SLPC  C21721437   2.468   0.606   8.516  0.1207  0.8323  0.2503
  186SLPC  H17R21438   2.490   0.520   8.583 -1.1315  0.9332  0.8278
  186SLPC  H17S21439   2.363   0.598   8.481  0.9557 -1.3036 -2.0553
  186SLPC  C21821440   2.501   0.738   8.577  0.5431 -0.2490 -0.1948
  186SLPC  H18R21441   2.504   0.810   8.493 -2.2534 -2.0732 -2.0352
  186SLPC  H18S21442   2.598   0.732   8.631  1.0844  1.5123 -0.9087
  186SLPC  H18T21443   2.430   0.778   8.653  1.5967 -0.6132  1.0178
  186SLPC   C3321444   2.581   0.281   7.273  0.2553  0.1358 -0.0235
  186SLPC   H3X21445   2.536   0.194   7.220  0.1450 -0.6884  1.3895
  186SLPC   H3Y21446   2.518   0.292   7.364 -2.3766 -3.7315 -1.1468
  186SLPC   C3421447   2.718   0.231   7.316 -0.0806 -0.5241  0.0244
  186SLPC   H4X21448   2.779   0.320   7.344  0.0794 -1.1502  1.8364
  186SLPC   H4Y21449   2.773   0.185   7.231  1.0179 -0.0062  0.4217
  186SLPC   C3521450   2.715   0.141   7.436  0.7854 -0.1846 -0.2536
  186SLPC   H5X21451   2.648   0.055   7.416  1.4451 -0.5866 -0.7779
  186SLPC   H5Y21452   2.674   0.196   7.523 -1.6529 -0.8355 -0.9214
  186SLPC   C3621453   2.853   0.083   7.479  0.1991 -0.3250 -0.9553
  186SLPC   H6X21454   2.925   0.167   7.486 -0.6564  0.3763 -0.0887
  186SLPC   H6Y21455   2.879   0.017   7.393 -1.3889  0.1824 -1.8692
  186SLPC   C3721456   2.857   0.003   7.619 -0.9114  0.0263 -0.0676
  186SLPC   H7X21457   2.953  -0.044   7.645 -1.7861 -0.9623  1.5214
  186SLPC   H7Y21458   2.779  -0.071   7.588 -0.1167  0.0889 -2.4552
  186SLPC   C3821459   2.814   0.082   7.736  0.2395  0.1015 -0.6283
  186SLPC   H8X21460   2.704   0.093   7.723  0.1378  0.8539  0.7546
  186SLPC   H8Y21461   2.864   0.181   7.735  0.0627  0.2044  0.0240
  186SLPC   C3921462   2.823   0.014   7.880 -0.1629 -0.0978 -0.5043
  186SLPC   H9X21463   2.930  -0.010   7.898 -0.8455 -1.9959  1.4542
  186SLPC   H9Y21464   2.766  -0.080   7.864  1.3337 -0.7352 -2.5989
  186SLPC  C31021465   2.780   0.103   7.997  0.3784 -0.0222 -0.9822
  186SLPC  H10X21466   2.671   0.118   7.982 -0.4771 -2.9199  1.5010
  186SLPC  H10Y21467   2.834   0.200   7.996 -0.3179  0.4720  1.4929
  186SLPC  C31121468   2.786   0.017   8.122 -0.4429 -0.1326 -0.4764
  186SLPC  H11X21469   2.891  -0.017   8.139 -0.2984  0.2800 -0.5384
  186SLPC  H11Y21470   2.720  -0.073   8.116 -1.6125  0.5492  1.2829
  186SLPC  C31221471   2.764   0.095   8.254 -0.7238 -0.7086  0.0258
  186SLPC  H12X21472   2.670   0.153   8.244  0.2209  1.1270  1.2707
  186SLPC  H12Y21473   2.845   0.168   8.271 -0.6483 -1.3630  3.1607
  186SLPC  C31321474   2.747  -0.006   8.364  0.1865  0.7320  0.6688
  186SLPC  H13X21475   2.806  -0.100   8.355 -1.6926 -0.5315  0.9728
  186SLPC  H13Y21476   2.640  -0.037   8.364  0.1300  0.9164  1.0600
  186SLPC  C31421477   2.783   0.062   8.499  0.4735 -0.7152  0.1189
  186SLPC  H14X21478   2.727   0.158   8.497 -1.4167 -1.7952 -0.8582
  186SLPC  H14Y21479   2.893   0.078   8.497  0.5929 -1.5461 -2.0384
  186SLPC  C31521480   2.756  -0.012   8.633  0.0143 -0.0398 -0.0496
  186SLPC  H15X21481   2.650  -0.046   8.636 -0.2398  0.6194 -1.0146
  186SLPC  H15Y21482   2.768   0.065   8.711 -2.5397  1.5393 -1.0990
  186SLPC  C31621483   2.865  -0.119   8.662 -0.1924  0.4383 -0.0669
  186SLPC  H16X21484   2.968  -0.085   8.636 -0.6613  1.6252 -0.4690
  186SLPC  H16Y21485   2.854  -0.215   8.608 -0.7408  0.6186 -0.2834
  186SLPC  C31721486   2.870  -0.166   8.808  0.2564  1.1485  0.5534
  186SLPC  H17X21487   2.766  -0.202   8.824  0.7304 -1.3563 -1.2828
  186SLPC  H17Y21488   2.888  -0.083   8.879  0.2731  0.7975  0.9667
  186SLPC  C31821489   2.977  -0.279   8.839 -0.5012  0.3193  1.0136
  186SLPC  H18X21490   2.973  -0.351   8.755 -0.5098  2.4622 -0.9478
  186SLPC  H18Y21491   2.952  -0.325   8.937 -2.8172 -0.8146 -0.0289
  186SLPC  H18Z21492   3.072  -0.222   8.823 -0.3650 -0.3069 -0.6570
  187SLPC     N21493   2.786   4.345   6.252 -0.0237  0.2923 -0.5558
  187SLPC   C1321494   2.674   4.403   6.331 -0.8358  0.6398  0.1460
  187SLPC  H13A21495   2.702   4.485   6.395 -0.8956  0.5725  0.2577
  187SLPC  H13B21496   2.600   4.429   6.257 -0.1766 -1.9439 -1.5673
  187SLPC  H13C21497   2.622   4.326   6.385 -0.2408  0.4426  0.4388
  187SLPC   C1421498   2.853   4.454   6.174  0.0165 -0.2213 -0.1103
  187SLPC  H14A21499   2.784   4.498   6.103 -0.3210 -0.7944 -0.1407
  187SLPC  H14B21500   2.867   4.536   6.243  0.0857 -0.9646  0.7763
  187SLPC  H14C21501   2.936   4.419   6.115 -0.2447 -0.3836 -0.3784
  187SLPC   C1521502   2.727   4.245   6.157 -1.0808  0.6519  0.0978
  187SLPC  H15A21503   2.641   4.269   6.096 -0.4228  0.1841 -1.0438
  187SLPC  H15B21504   2.798   4.215   6.081 -2.7327  1.3811 -1.8576
  187SLPC  H15C21505   2.709   4.152   6.209 -2.9735 -0.0819 -1.6949
  187SLPC   C1221506   2.881   4.280   6.354 -0.4859  0.6295 -0.6477
  187SLPC  H12A21507   2.937   4.358   6.404 -0.1418  1.1355 -1.7927
  187SLPC  H12B21508   2.944   4.209   6.303  0.5547  0.9679  0.1329
  187SLPC   C1121509   2.808   4.188   6.457  0.4629  0.0276 -0.0762
  187SLPC  H11A21510   2.763   4.258   6.531  1.7795  0.2696  0.5269
  187SLPC  H11B21511   2.884   4.146   6.527 -1.9372 -0.0308  2.6733
  187SLPC     P21512   2.776   3.939   6.395 -0.2654 -0.0961  0.1899
  187SLPC   O1321513   2.664   3.853   6.351  0.3982 -0.0246  0.1948
  187SLPC   O1421514   2.903   3.943   6.325  0.3161  1.1825 -0.1979
  187SLPC   O1221515   2.720   4.086   6.397  0.7933 -0.6917  0.2650
  187SLPC   O1121516   2.808   3.904   6.541  0.5768  0.2543 -0.4048
  187SLPC    C121517   2.689   3.924   6.631 -0.2732  0.3717 -0.2291
  187SLPC    HA21518   2.668   4.030   6.659  0.6495  0.5941 -0.3599
  187SLPC    HB21519   2.594   3.880   6.595 -0.9020  1.7833 -0.3788
  187SLPC    C221520   2.712   3.844   6.767 -0.5615 -0.1179 -0.1467
  187SLPC    HS21521   2.629   3.874   6.834 -0.4402  0.2109 -0.1411
  187SLPC   O2121522   2.839   3.894   6.826  0.5384 -0.2060 -0.1806
  187SLPC   C2121523   2.857   3.893   6.957  0.3325  0.5162  0.8662
  187SLPC   O2221524   2.770   3.854   7.035 -0.0273  0.3361 -0.5856
  187SLPC   C2221525   3.007   3.923   7.001  0.9539  0.8815 -0.4754
  187SLPC   H2R21526   3.068   3.831   7.009  0.0746  0.4706  2.7637
  187SLPC   H2S21527   3.043   3.991   6.920 -0.2754  0.8024 -1.1240
  187SLPC    C321528   2.703   3.690   6.744  0.1800 -0.0799  0.2022
  187SLPC    HX21529   2.810   3.661   6.753 -0.0412 -0.2505  3.7835
  187SLPC    HY21530   2.673   3.659   6.641  0.8895  1.0196 -0.3509
  187SLPC   O3121531   2.614   3.627   6.840 -0.3769 -0.3749 -0.0213
  187SLPC   C3121532   2.641   3.491   6.853 -0.0827  0.4808  0.6002
  187SLPC   O3221533   2.741   3.435   6.812 -0.4101 -0.2394  0.6505
  187SLPC   C3221534   2.541   3.419   6.946 -0.7072  0.6769  0.2676
  187SLPC   H2X21535   2.510   3.320   6.906 -0.5179  1.6121 -2.3324
  187SLPC   H2Y21536   2.448   3.479   6.953 -0.2532  1.2641  1.8289
  187SLPC   C2321537   3.015   4.001   7.135 -0.1310  0.0581 -0.3913
  187SLPC   H3R21538   2.934   4.076   7.139 -0.2031 -0.0194 -0.3946
  187SLPC   H3S21539   3.111   4.057   7.131 -0.6849  1.0364 -0.2896
  187SLPC   C2421540   2.998   3.915   7.259 -0.2687  0.1418  0.1371
  187SLPC   H4R21541   3.051   3.819   7.242  0.7893  0.3912  1.7401
  187SLPC   H4S21542   2.890   3.901   7.277 -0.3905  0.8518 -0.0026
  187SLPC   C2521543   3.068   3.975   7.379 -0.0576 -0.1321 -0.0751
  187SLPC   H5R21544   3.010   4.066   7.405  1.2019  0.6453  0.1370
  187SLPC   H5S21545   3.167   4.014   7.346 -0.5407  1.1004 -0.1290
  187SLPC   C2621546   3.084   3.883   7.504  0.7411 -0.2582  0.8830
  187SLPC   H6R21547   3.151   3.798   7.478  0.3905 -1.0195  2.3548
  187SLPC   H6S21548   2.986   3.839   7.534 -0.7857  1.2730 -1.4864
  187SLPC   C2721549   3.122   3.958   7.631 -0.1084 -0.0512  0.0093
  187SLPC   H7R21550   3.037   4.021   7.667 -0.9715 -0.0876 -1.8602
  187SLPC   H7S21551   3.212   4.019   7.611 -0.2152  0.8696  2.0797
  187SLPC   C2821552   3.159   3.861   7.743 -0.0480 -0.1999 -0.0769
  187SLPC   H8R21553   3.270   3.859   7.749  0.1153  1.7152 -1.5385
  187SLPC   H8S21554   3.134   3.757   7.713  1.2535 -0.0161 -2.0190
  187SLPC   C2921555   3.098   3.883   7.878 -0.4325  0.1653  0.3689
  187SLPC   H9R21556   2.996   3.842   7.871 -0.2335 -0.1641 -0.9271
  187SLPC  C21021557   3.151   3.942   7.994  0.0732 -1.0350 -0.2829
  187SLPC  H10R21558   3.087   3.927   8.082 -2.0293 -3.0482 -2.0285
  187SLPC  C21121559   3.299   4.000   8.003 -0.4010  0.3586 -0.2810
  187SLPC  H11R21560   3.350   3.959   7.914  1.9228 -2.9075  2.2756
  187SLPC  H11S21561   3.348   3.951   8.090 -1.2152 -0.3872 -0.2283
  187SLPC  C21221562   3.319   4.150   8.005  0.2475  0.4266 -0.4619
  187SLPC  H12R21563   3.369   4.195   7.917 -2.5512  1.5839 -1.6029
  187SLPC  C21321564   3.280   4.232   8.101 -0.7688 -0.8325 -0.0675
  187SLPC  H13R21565   3.312   4.336   8.086  0.3107 -1.0056  0.9102
  187SLPC  C21421566   3.205   4.213   8.231  0.3419 -0.1123  0.3901
  187SLPC  H14R21567   3.268   4.255   8.312  0.1197  0.6106  0.1997
  187SLPC  H14S21568   3.191   4.103   8.240 -0.9598 -0.1268 -1.3160
  187SLPC  C21521569   3.066   4.283   8.215 -0.5766  0.2832 -0.5998
  187SLPC  H15R21570   3.096   4.390   8.223  0.9271 -0.0062 -1.8523
  187SLPC  H15S21571   2.998   4.265   8.301  0.3083  1.1210  0.2972
  187SLPC  C21621572   2.977   4.260   8.087 -1.2189 -0.4898 -0.7998
  187SLPC  H16R21573   2.940   4.156   8.099  0.7044 -1.1403 -0.0359
  187SLPC  H16S21574   3.032   4.266   7.991 -0.6024  0.3087 -0.4085
  187SLPC  C21721575   2.867   4.372   8.090  0.0823  0.4026 -0.3619
  187SLPC  H17R21576   2.912   4.472   8.106 -2.0222  1.7367 -2.0567
  187SLPC  H17S21577   2.807   4.361   8.183 -0.4570  0.2601 -0.7184
  187SLPC  C21821578   2.775   4.368   7.968 -0.6519  0.2273 -0.1554
  187SLPC  H18R21579   2.750   4.474   7.945 -0.7143  0.1417 -0.4821
  187SLPC  H18S21580   2.684   4.307   7.986  0.3690 -0.6817  2.4137
  187SLPC  H18T21581   2.828   4.329   7.878  0.5197  0.2020  0.5224
  187SLPC   C3321582   2.602   3.401   7.089 -0.5462  0.6078  0.3220
  187SLPC   H3X21583   2.697   3.344   7.085  0.0298  1.5979 -0.7466
  187SLPC   H3Y21584   2.537   3.335   7.151  1.1580 -0.6863  0.8072
  187SLPC   C3421585   2.613   3.540   7.159 -0.2596  0.3408  0.8694
  187SLPC   H4X21586   2.509   3.569   7.182 -1.1802 -0.5179 -1.8691
  187SLPC   H4Y21587   2.664   3.612   7.092 -0.0362 -1.5606 -1.1104
  187SLPC   C3521588   2.692   3.525   7.295  0.3818 -0.0386  0.4235
  187SLPC   H5X21589   2.797   3.509   7.265  0.7526  1.3365  0.9049
  187SLPC   H5Y21590   2.640   3.443   7.349 -3.9464  1.3811 -1.1011
  187SLPC   C3621591   2.682   3.657   7.374 -0.0333 -0.1189  0.1169
  187SLPC   H6X21592   2.579   3.688   7.403  0.2277  0.8283  0.0826
  187SLPC   H6Y21593   2.729   3.733   7.307 -1.4202  0.7093  0.0179
  187SLPC   C3721594   2.772   3.649   7.499 -0.4611 -0.5326 -0.5360
  187SLPC   H7X21595   2.866   3.614   7.452  0.6089  1.1614  0.2104
  187SLPC   H7Y21596   2.787   3.750   7.544 -0.1414 -0.5484 -0.6040
  187SLPC   C3821597   2.726   3.555   7.615  0.2065  0.8166 -0.4139
  187SLPC   H8X21598   2.716   3.453   7.573 -2.6095  0.2490  1.4123
  187SLPC   H8Y21599   2.619   3.578   7.632 -0.8003 -1.5836 -2.7055
  187SLPC   C3921600   2.808   3.553   7.744  0.5026 -0.7553 -0.2027
  187SLPC   H9X21601   2.804   3.656   7.786 -1.9789 -0.9175  0.0761
  187SLPC   H9Y21602   2.913   3.520   7.730  0.9483  1.3722 -2.6750
  187SLPC  C31021603   2.749   3.462   7.858  0.4640  0.1651 -0.1069
  187SLPC  H10X21604   2.719   3.367   7.810  2.6855 -1.3314  1.3101
  187SLPC  H10Y21605   2.662   3.515   7.903  0.8693  0.3146  0.5045
  187SLPC  C31121606   2.846   3.439   7.977  0.1245  0.4683  0.4892
  187SLPC  H11X21607   2.882   3.540   8.006  3.1177 -0.6688  1.1528
  187SLPC  H11Y21608   2.929   3.369   7.952  2.0160  2.5294  0.6070
  187SLPC  C31221609   2.777   3.394   8.109  0.1798 -0.1742 -0.2261
  187SLPC  H12X21610   2.793   3.284   8.113  0.9856 -0.0475  0.4228
  187SLPC  H12Y21611   2.669   3.416   8.105  0.7256  3.1757  0.3361
  187SLPC  C31321612   2.830   3.464   8.235 -0.0793  0.1669  0.3282
  187SLPC  H13X21613   2.802   3.571   8.220 -4.2441 -0.8922 -0.8370
  187SLPC  H13Y21614   2.941   3.461   8.235 -0.0544  0.8741  0.1494
  187SLPC  C31421615   2.774   3.403   8.365  0.9140  0.3129 -0.4661
  187SLPC  H14X21616   2.787   3.294   8.347 -1.2403 -0.1710  0.5978
  187SLPC  H14Y21617   2.664   3.421   8.366  1.0278  1.0558 -0.2830
  187SLPC  C31521618   2.848   3.450   8.493 -0.7140 -0.1699 -0.4197
  187SLPC  H15X21619   2.814   3.550   8.528  1.1628  0.2183  0.4094
  187SLPC  H15Y21620   2.955   3.464   8.467 -0.5886 -0.7409 -0.2301
  187SLPC  C31621621   2.834   3.345   8.600  0.4340 -0.3470  0.1133
  187SLPC  H16X21622   2.724   3.330   8.611  0.0304  0.2826 -2.4766
  187SLPC  H16Y21623   2.875   3.390   8.693 -0.4960 -0.3897  0.5598
  187SLPC  C31721624   2.914   3.220   8.585  0.0266  0.3190  0.3369
  187SLPC  H17X21625   3.022   3.244   8.593  0.1142 -0.0397  0.2275
  187SLPC  H17Y21626   2.899   3.168   8.488  0.7023  0.9391 -0.1157
  187SLPC  C31821627   2.898   3.113   8.692  0.4296 -0.5109 -0.8715
  187SLPC  H18X21628   2.936   3.013   8.661 -1.9884 -0.9552 -2.7130
  187SLPC  H18Y21629   2.790   3.095   8.710  0.8129 -3.1868 -0.8262
  187SLPC  H18Z21630   2.945   3.148   8.786  0.2332 -3.1152  0.2908
  188SLPC     N21631   1.323   4.940   6.431 -0.8266  0.3423  0.0971
  188SLPC   C1321632   1.416   5.037   6.356 -0.6930 -0.1453  0.0942
  188SLPC  H13A21633   1.478   5.093   6.425  1.3214 -0.2588 -1.5418
  188SLPC  H13B21634   1.484   4.982   6.294 -0.4064 -0.6394  0.8333
  188SLPC  H13C21635   1.371   5.107   6.287  0.3170  2.5336  1.9472
  188SLPC   C1421636   1.264   4.835   6.340  1.0477 -0.2326  0.0637
  188SLPC  H14A21637   1.342   4.777   6.293  0.1035 -0.9074 -0.6889
  188SLPC  H14B21638   1.204   4.764   6.395 -1.5758  2.2131  0.5965
  188SLPC  H14C21639   1.197   4.870   6.263 -0.9958 -2.3657  0.7521
  188SLPC   C1521640   1.213   5.019   6.478  0.4836 -0.0265 -0.4440
  188SLPC  H15A21641   1.158   5.059   6.394 -2.0559 -1.1914  0.5588
  188SLPC  H15B21642   1.130   4.965   6.520  0.9063  0.3273  0.8942
  188SLPC  H15C21643   1.233   5.094   6.553 -0.8397 -1.2097  1.1524
  188SLPC   C1221644   1.392   4.865   6.546 -0.1472  0.2863  0.0794
  188SLPC  H12A21645   1.468   4.801   6.503 -0.8634 -0.8251  0.4184
  188SLPC  H12B21646   1.317   4.801   6.590  0.2169 -0.0409  0.2259
  188SLPC   C1121647   1.459   4.959   6.654  0.2717 -0.1764  0.2809
  188SLPC  H11A21648   1.470   4.905   6.750 -2.6264  0.9537  1.3474
  188SLPC  H11B21649   1.382   5.037   6.674  1.4996  1.5785 -1.4581
  188SLPC     P21650   1.708   4.940   6.592 -0.0469  0.1487 -0.0077
  188SLPC   O1321651   1.691   4.842   6.480  0.6089 -0.8780 -0.0813
  188SLPC   O1421652   1.828   5.033   6.593  0.2699  0.1993  0.9057
  188SLPC   O1221653   1.579   5.025   6.612  0.1671 -0.7248  0.6890
  188SLPC   O1121654   1.725   4.851   6.722  0.4444  0.2704 -0.0724
  188SLPC    C121655   1.748   4.915   6.853  0.2885 -0.8037  0.7014
  188SLPC    HA21656   1.760   5.024   6.838 -0.0691 -0.8643 -0.1169
  188SLPC    HB21657   1.658   4.901   6.917 -1.1279  1.3678 -0.6804
  188SLPC    C221658   1.874   4.856   6.922  0.5289 -0.1663 -0.1118
  188SLPC    HS21659   1.954   4.871   6.846  0.5432 -0.9064 -0.2462
  188SLPC   O2121660   1.855   4.721   6.969 -0.2474  0.2837  0.1520
  188SLPC   C2121661   1.973   4.644   6.947 -0.2357  1.2130 -0.6474
  188SLPC   O2221662   2.075   4.683   6.900 -0.2769  0.5248 -0.4687
  188SLPC   C2221663   1.937   4.499   6.993  0.3453  0.0478  0.5083
  188SLPC   H2R21664   1.857   4.473   6.920 -0.6338  1.8341  0.8884
  188SLPC   H2S21665   2.026   4.432   6.993 -0.5246 -1.1341  1.4062
  188SLPC    C321666   1.919   4.943   7.048  0.2771 -0.5800 -0.0671
  188SLPC    HX21667   1.848   4.920   7.130 -1.2758  0.5940 -1.0368
  188SLPC    HY21668   1.898   5.050   7.026  1.0711 -0.3931  0.0545
  188SLPC   O3121669   2.060   4.914   7.077  0.1428 -0.3220  0.3664
  188SLPC   C3121670   2.149   5.008   7.037  0.8150  0.2925 -0.3137
  188SLPC   O3221671   2.112   5.114   6.982 -0.0638  0.1699 -0.5001
  188SLPC   C3221672   2.289   4.957   7.086  0.5240 -0.1115 -0.8794
  188SLPC   H2X21673   2.330   4.888   7.009  3.5670 -1.4271  1.7257
  188SLPC   H2Y21674   2.274   4.894   7.176  1.5146  0.3557 -0.3671
  188SLPC   C2321675   1.872   4.513   7.133  0.0325  0.0796  0.4016
  188SLPC   H3R21676   1.889   4.414   7.181  1.4709 -0.0885 -0.4185
  188SLPC   H3S21677   1.763   4.534   7.124  0.0374 -0.1172 -0.1688
  188SLPC   C2421678   1.935   4.608   7.230 -0.7247 -0.3559  0.3404
  188SLPC   H4R21679   1.876   4.599   7.324 -0.5734  0.0137  0.4687
  188SLPC   H4S21680   1.926   4.716   7.209 -0.7425 -0.3277  0.4880
  188SLPC   C2521681   2.077   4.576   7.266 -0.4887  0.3079 -0.6547
  188SLPC   H5R21682   2.142   4.621   7.188 -1.4897  1.9982 -0.5603
  188SLPC   H5S21683   2.096   4.466   7.269 -0.6565  0.2840 -0.3906
  188SLPC   C2621684   2.118   4.623   7.408 -0.6593  0.5216  0.1043
  188SLPC   H6R21685   2.069   4.723   7.415  0.5833  1.2884 -1.3529
  188SLPC   H6S21686   2.227   4.636   7.429 -0.8196 -2.1031  3.4281
  188SLPC   C2721687   2.069   4.533   7.525 -0.0798 -0.2218  0.4665
  188SLPC   H7R21688   2.146   4.455   7.543  0.0517 -0.1681  0.1521
  188SLPC   H7S21689   1.981   4.479   7.484  0.4841 -2.5634  2.1502
  188SLPC   C2821690   2.026   4.608   7.649 -0.8334 -0.1124  0.4173
  188SLPC   H8R21691   1.933   4.667   7.631 -1.1369 -0.2507  1.4427
  188SLPC   H8S21692   2.107   4.682   7.667  0.1258 -1.0545  0.0364
  188SLPC   C2921693   2.019   4.516   7.765 -0.2490  0.1384  0.1087
  188SLPC   H9R21694   1.939   4.442   7.750  2.8962 -3.6198 -0.0244
  188SLPC  C21021695   2.086   4.521   7.878 -0.0640 -0.2240 -0.2904
  188SLPC  H10R21696   2.064   4.440   7.949  0.0190  1.2269  1.4512
  188SLPC  C21121697   2.196   4.618   7.916  0.0153 -0.2501  0.6522
  188SLPC  H11R21698   2.173   4.668   8.013 -1.2942  2.1598 -0.8104
  188SLPC  H11S21699   2.209   4.692   7.835  0.8734  0.2144  1.1949
  188SLPC  C21221700   2.327   4.536   7.936  0.3190  0.8430  0.4424
  188SLPC  H12R21701   2.379   4.503   7.845  3.3198 -0.3456  2.4228
  188SLPC  C21321702   2.397   4.506   8.050  0.7041  0.3856 -0.0655
  188SLPC  H13R21703   2.486   4.445   8.028  0.3113  0.4391 -2.0279
  188SLPC  C21421704   2.356   4.541   8.195 -0.1144 -0.0191  0.1472
  188SLPC  H14R21705   2.275   4.616   8.200 -0.6139 -0.5659  0.3812
  188SLPC  H14S21706   2.446   4.586   8.242 -2.3526  1.2650  3.5240
  188SLPC  C21521707   2.309   4.420   8.275  0.4567  0.5488  0.4131
  188SLPC  H15R21708   2.388   4.344   8.268  1.1812  1.1933  1.3047
  188SLPC  H15S21709   2.212   4.390   8.230  2.2464 -1.5375 -2.2986
  188SLPC  C21621710   2.290   4.458   8.424 -0.3753  0.2080  0.4258
  188SLPC  H16R21711   2.256   4.376   8.490  1.1253  0.3309  1.4122
  188SLPC  H16S21712   2.210   4.535   8.435  0.9070  1.5779  0.6236
  188SLPC  C21721713   2.418   4.504   8.500 -0.3351  0.8354  0.6525
  188SLPC  H17R21714   2.379   4.568   8.582  0.2736  1.1187  0.7265
  188SLPC  H17S21715   2.478   4.571   8.435 -0.8085  0.7003  0.0656
  188SLPC  C21821716   2.505   4.392   8.546  0.2111  0.7714 -0.1793
  188SLPC  H18R21717   2.590   4.444   8.595  1.5923 -2.4519  1.1488
  188SLPC  H18S21718   2.543   4.337   8.458  4.8850  1.2255  1.2646
  188SLPC  H18T21719   2.448   4.328   8.617 -1.7025  1.0475 -1.3979
  188SLPC   C3321720   2.400   5.058   7.107  0.3993 -0.9821 -0.7450
  188SLPC   H3X21721   2.418   5.127   7.022  0.9527  0.4862  0.5221
  188SLPC   H3Y21722   2.494   5.003   7.126  0.3257 -0.5101  1.1152
  188SLPC   C3421723   2.379   5.145   7.233  0.7906 -0.1845 -0.0691
  188SLPC   H4X21724   2.280   5.193   7.251  0.9323  0.8415 -1.8162
  188SLPC   H4Y21725   2.449   5.231   7.235 -1.2941  1.6195 -0.6682
  188SLPC   C3521726   2.399   5.063   7.367  0.3464 -0.3913  0.0261
  188SLPC   H5X21727   2.491   5.002   7.373  1.2377  0.9521  0.2404
  188SLPC   H5Y21728   2.316   4.990   7.383 -0.3332 -0.2207 -2.3379
  188SLPC   C3621729   2.406   5.167   7.486 -0.5957  0.0862  0.3794
  188SLPC   H6X21730   2.308   5.219   7.490 -1.4655 -1.4873  0.1690
  188SLPC   H6Y21731   2.483   5.243   7.459 -0.4418  0.3537  1.5150
  188SLPC   C3721732   2.450   5.097   7.617 -0.6567 -0.1384 -0.6846
  188SLPC   H7X21733   2.552   5.054   7.605 -0.9519 -0.5607 -1.8199
  188SLPC   H7Y21734   2.376   5.016   7.635  0.6296 -0.8774  1.7081
  188SLPC   C3821735   2.457   5.192   7.738  0.1877 -0.1793  0.2005
  188SLPC   H8X21736   2.352   5.222   7.757  0.1629 -0.0527 -0.1287
  188SLPC   H8Y21737   2.518   5.277   7.702 -0.4230 -1.1107 -3.4946
  188SLPC   C3921738   2.517   5.125   7.862 -0.2727  0.3692 -0.6871
  188SLPC   H9X21739   2.623   5.096   7.851 -0.6999 -0.5260 -3.1065
  188SLPC   H9Y21740   2.462   5.033   7.890  1.1632 -0.4178 -0.3568
  188SLPC  C31021741   2.523   5.224   7.983  0.0580 -0.2195 -0.9021
  188SLPC  H10X21742   2.426   5.227   8.037  0.3807 -0.7295 -0.2788
  188SLPC  H10Y21743   2.552   5.322   7.941  0.1336 -0.3779 -1.2258
  188SLPC  C31121744   2.611   5.191   8.107  0.4473 -0.2268 -0.4196
  188SLPC  H11X21745   2.719   5.202   8.083  0.8100 -1.8488  0.3306
  188SLPC  H11Y21746   2.588   5.085   8.130  1.0831 -0.0780  1.0538
  188SLPC  C31221747   2.574   5.290   8.215  0.0907 -0.1060 -0.2093
  188SLPC  H12X21748   2.467   5.273   8.238  0.3235 -0.3494  0.7747
  188SLPC  H12Y21749   2.578   5.395   8.178  0.2238  0.1504  0.5138
  188SLPC  C31321750   2.650   5.274   8.346 -0.5537  0.1586  0.1318
  188SLPC  H13X21751   2.753   5.309   8.322  0.4669 -1.5764  1.6592
  188SLPC  H13Y21752   2.660   5.166   8.368  0.1282  0.1568 -0.1636
  188SLPC  C31421753   2.589   5.349   8.461  0.1885 -0.5558 -0.2687
  188SLPC  H14X21754   2.655   5.338   8.549 -0.4423 -2.3972  0.0111
  188SLPC  H14Y21755   2.497   5.295   8.491 -0.7200  0.2104 -1.5467
  188SLPC  C31521756   2.560   5.501   8.435  0.4613 -0.1733  0.1024
  188SLPC  H15X21757   2.477   5.498   8.361  0.8588  0.2277 -0.3692
  188SLPC  H15Y21758   2.649   5.546   8.386  1.2239 -0.1768  1.4365
  188SLPC  C31621759   2.524   5.581   8.564  0.0348 -0.6566 -0.1167
  188SLPC  H16X21760   2.603   5.564   8.641 -2.0898 -0.5156  2.2299
  188SLPC  H16Y21761   2.433   5.537   8.609 -0.0520  0.1311  0.5143
  188SLPC  C31721762   2.489   5.725   8.530 -1.0862 -0.5570  0.1139
  188SLPC  H17X21763   2.475   5.777   8.627  1.7946 -0.1291  0.3740
  188SLPC  H17Y21764   2.396   5.730   8.469 -1.7333 -0.3960  1.0970
  188SLPC  C31821765   2.601   5.804   8.452 -0.5513 -0.1133  0.0910
  188SLPC  H18X21766   2.620   5.755   8.354  0.0714  1.4223 -0.5909
  188SLPC  H18Y21767   2.696   5.798   8.508  0.0770 -1.9648 -1.0508
  188SLPC  H18Z21768   2.580   5.912   8.439 -0.6385  0.0295  1.3794
  189SLPC     N21769   6.406   6.598   6.095 -0.8284 -0.2453 -0.0090
  189SLPC   C1321770   6.384   6.453   6.111  0.3979  0.2615  0.0137
  189SLPC  H13A21771   6.291   6.413   6.074  1.2338 -2.4531  0.5803
  189SLPC  H13B21772   6.465   6.401   6.062  1.1759  2.3480 -1.0082
  189SLPC  H13C21773   6.394   6.430   6.216 -0.9115 -1.5051 -0.2101
  189SLPC   C1421774   6.392   6.638   5.949 -0.8874 -0.4002  0.2350
  189SLPC  H14A21775   6.471   6.584   5.899 -0.5226  1.2606 -1.0793
  189SLPC  H14B21776   6.297   6.615   5.902 -1.1099  2.1214 -0.7162
  189SLPC  H14C21777   6.409   6.741   5.922  0.6288 -0.9831 -1.1623
  189SLPC   C1521778   6.550   6.626   6.148  0.0594 -0.6842  0.6197
  189SLPC  H15A21779   6.574   6.731   6.135 -0.5451 -0.3582  1.9670
  189SLPC  H15B21780   6.553   6.591   6.250 -1.1914 -1.5558  0.3775
  189SLPC  H15C21781   6.632   6.579   6.095 -0.2097 -1.8785  1.2401
  189SLPC   C1221782   6.302   6.687   6.176 -0.4441  0.4005  0.0248
  189SLPC  H12A21783   6.204   6.678   6.132 -0.2667 -0.1693 -0.2599
  189SLPC  H12B21784   6.330   6.791   6.176  0.8377  0.0894 -1.5397
  189SLPC   C1121785   6.305   6.671   6.330 -0.1448  0.2575  0.7626
  189SLPC  H11A21786   6.255   6.745   6.396  2.0122  1.0726  1.5723
  189SLPC  H11B21787   6.412   6.687   6.355  0.2825  1.7449 -1.6430
  189SLPC     P21788   6.110   6.488   6.391 -0.5850 -0.2039 -0.3511
  189SLPC   O1321789   6.018   6.519   6.280  0.0516  0.7849 -0.4108
  189SLPC   O1421790   6.123   6.345   6.420  0.0584  0.0975  0.3211
  189SLPC   O1221791   6.257   6.543   6.374 -0.2876  0.6340  0.2514
  189SLPC   O1121792   6.065   6.562   6.520 -0.3874  0.3422  0.0164
  189SLPC    C121793   6.010   6.497   6.638  0.2779  0.5400 -0.1634
  189SLPC    HA21794   6.046   6.394   6.659  1.2284  1.1297  1.2627
  189SLPC    HB21795   6.045   6.550   6.729 -1.7573  0.1921  0.8933
  189SLPC    C221796   5.850   6.510   6.628  0.3703  0.4670 -0.0119
  189SLPC    HS21797   5.827   6.463   6.530  0.3216  1.1423 -0.3348
  189SLPC   O2121798   5.822   6.649   6.628 -0.0329 -0.2235  0.1875
  189SLPC   C2121799   5.698   6.691   6.657  0.2128  0.8839 -0.4769
  189SLPC   O2221800   5.595   6.627   6.666 -0.1790  0.2040 -0.1687
  189SLPC   C2221801   5.697   6.838   6.692  0.2562  0.0484 -0.1840
  189SLPC   H2R21802   5.789   6.864   6.748  0.2897  0.2409 -0.3274
  189SLPC   H2S21803   5.690   6.894   6.596  0.3631  0.7774  0.2329
  189SLPC    C321804   5.784   6.419   6.734  0.3249 -0.0724  0.0867
  189SLPC    HX21805   5.829   6.321   6.706 -1.3024 -0.2535 -2.1891
  189SLPC    HY21806   5.676   6.401   6.718  0.5038 -0.9915 -0.1885
  189SLPC   O3121807   5.817   6.472   6.863  0.1071  0.3524 -0.0138
  189SLPC   C3121808   5.752   6.425   6.963  0.5946 -0.1329 -0.6151
  189SLPC   O3221809   5.662   6.346   6.958  0.3780 -0.5651  0.1448
  189SLPC   C3221810   5.801   6.499   7.081 -0.6557 -0.0065  0.1101
  189SLPC   H2X21811   5.761   6.602   7.077  2.2111  1.2552  1.2478
  189SLPC   H2Y21812   5.912   6.497   7.092 -0.7703 -1.9029  1.4576
  189SLPC   C2321813   5.584   6.878   6.782  0.3726  0.3454 -0.8114
  189SLPC   H3R21814   5.483   6.846   6.748 -0.3302  0.3397  1.1908
  189SLPC   H3S21815   5.568   6.988   6.773  1.0317  0.6156  0.9384
  189SLPC   C2421816   5.604   6.841   6.929  0.4781  0.7420 -0.0851
  189SLPC   H4R21817   5.702   6.885   6.955 -0.9426  2.3413  3.1714
  189SLPC   H4S21818   5.612   6.730   6.936 -2.6353  0.4235 -0.3085
  189SLPC   C2521819   5.495   6.881   7.019  0.7123 -0.1202 -0.2993
  189SLPC   H5R21820   5.398   6.832   6.996  0.6371  0.2719 -0.8322
  189SLPC   H5S21821   5.486   6.989   6.992  1.8980  0.3671  1.0979
  189SLPC   C2621822   5.526   6.850   7.163 -0.3948 -0.4948 -0.1431
  189SLPC   H6R21823   5.603   6.924   7.194 -0.4995 -0.8905  1.1290
  189SLPC   H6S21824   5.566   6.746   7.172  1.1974  0.1871  1.1303
  189SLPC   C2721825   5.414   6.896   7.260 -0.1413 -0.3636  0.4766
  189SLPC   H7R21826   5.326   6.856   7.205  2.2904 -2.4812 -2.1428
  189SLPC   H7S21827   5.413   7.007   7.262 -1.1781 -0.3515  0.1514
  189SLPC   C2821828   5.427   6.842   7.407 -0.6547  0.1309  0.0735
  189SLPC   H8R21829   5.376   6.916   7.472 -0.5010 -0.9973  1.4986
  189SLPC   H8S21830   5.530   6.840   7.448 -0.2488 -0.4839 -0.9220
  189SLPC   C2921831   5.357   6.705   7.425  0.6440 -0.2863 -0.6815
  189SLPC   H9R21832   5.400   6.624   7.364  4.3838  0.6913  0.3481
  189SLPC  C21021833   5.243   6.674   7.499  0.6795 -0.2074 -0.1579
  189SLPC  H10R21834   5.222   6.566   7.513  3.1135 -0.7514 -0.1975
  189SLPC  C21121835   5.166   6.761   7.593 -0.3863 -0.3133 -0.0680
  189SLPC  H11R21836   5.078   6.803   7.540 -2.4241 -1.2015  2.4623
  189SLPC  H11S21837   5.217   6.854   7.625 -1.7129  0.6018 -0.5246
  189SLPC  C21221838   5.124   6.674   7.714 -0.8310  0.0033  0.6347
  189SLPC  H12R21839   5.050   6.597   7.687 -0.5701 -0.1656  0.3994
  189SLPC  C21321840   5.141   6.685   7.848  0.3444 -0.0050  0.5610
  189SLPC  H13R21841   5.100   6.613   7.919  3.9148 -1.1937  1.6462
  189SLPC  C21421842   5.228   6.801   7.895 -0.1696  0.5982 -0.1412
  189SLPC  H14R21843   5.163   6.877   7.943 -1.1435  0.7795 -1.6963
  189SLPC  H14S21844   5.280   6.850   7.810  1.2719  0.4083  0.5924
  189SLPC  C21521845   5.353   6.762   7.967 -0.4145  0.7585  0.5387
  189SLPC  H15R21846   5.425   6.847   7.970  0.5170 -0.0334  0.8754
  189SLPC  H15S21847   5.407   6.679   7.917 -2.8111 -1.1336  0.9101
  189SLPC  C21621848   5.334   6.733   8.115  0.7274 -0.4113 -0.1694
  189SLPC  H16R21849   5.269   6.643   8.128  1.2344 -0.7587 -0.0013
  189SLPC  H16S21850   5.297   6.824   8.167  1.8252  0.2458 -0.5112
  189SLPC  C21721851   5.465   6.696   8.182  0.9868 -0.0034 -0.4049
  189SLPC  H17R21852   5.482   6.588   8.162  0.0183 -0.4816  1.1970
  189SLPC  H17S21853   5.460   6.700   8.293  0.4593  0.2608 -0.4338
  189SLPC  C21821854   5.586   6.779   8.135 -1.0883  0.5092 -0.3574
  189SLPC  H18R21855   5.681   6.757   8.189 -0.2676 -0.7268 -2.1900
  189SLPC  H18S21856   5.576   6.889   8.145  0.1427  0.7852 -1.8691
  189SLPC  H18T21857   5.596   6.757   8.027 -0.9779 -0.2516 -0.1966
  189SLPC   C3321858   5.742   6.444   7.215  0.0088 -1.1383 -0.5524
  189SLPC   H3X21859   5.757   6.335   7.229  0.3684 -1.0312 -0.0994
  189SLPC   H3Y21860   5.633   6.459   7.223  0.1474 -0.7957  0.8182
  189SLPC   C3421861   5.811   6.515   7.332  0.3214 -0.1807 -0.9125
  189SLPC   H4X21862   5.821   6.624   7.313  1.4296 -0.5249 -2.4912
  189SLPC   H4Y21863   5.910   6.470   7.349  0.8251  0.7186 -1.3523
  189SLPC   C3521864   5.714   6.513   7.459 -0.1234 -0.6730 -0.2133
  189SLPC   H5X21865   5.722   6.411   7.503  1.1285  0.2367  1.8572
  189SLPC   H5Y21866   5.608   6.524   7.429 -0.1958  2.0841  0.7432
  189SLPC   C3621867   5.742   6.610   7.560 -0.5221 -0.3078 -0.6435
  189SLPC   H6X21868   5.763   6.713   7.522 -0.3492 -0.3362 -0.6285
  189SLPC   H6Y21869   5.839   6.582   7.606 -0.8394  0.2120  0.3707
  189SLPC   C3721870   5.638   6.623   7.677  0.5951 -0.1116 -0.5875
  189SLPC   H7X21871   5.542   6.665   7.642  0.7496  0.3187 -0.4966
  189SLPC   H7Y21872   5.684   6.699   7.744  2.1052 -0.5934 -1.0357
  189SLPC   C3821873   5.615   6.491   7.755 -0.4858 -0.8773 -0.4002
  189SLPC   H8X21874   5.584   6.414   7.681  0.4983 -1.2609 -0.4248
  189SLPC   H8Y21875   5.537   6.515   7.830 -0.0090 -0.2831 -0.0823
  189SLPC   C3921876   5.743   6.456   7.836  0.1438 -0.6102 -0.5337
  189SLPC   H9X21877   5.769   6.550   7.891  0.6490 -0.7565 -0.5103
  189SLPC   H9Y21878   5.831   6.435   7.771  0.6540 -0.9261  0.2328
  189SLPC  C31021879   5.732   6.348   7.941  0.5215  0.1369  0.0797
  189SLPC  H10X21880   5.690   6.257   7.892  1.8707  1.4178 -3.8871
  189SLPC  H10Y21881   5.658   6.380   8.018 -0.6903  1.5329 -1.5779
  189SLPC  C31121882   5.854   6.316   8.030 -0.1132 -1.0226 -0.1616
  189SLPC  H11X21883   5.932   6.274   7.962  0.6434  2.4331 -1.6305
  189SLPC  H11Y21884   5.829   6.247   8.113  3.4490 -1.6815  0.5647
  189SLPC  C31221885   5.914   6.440   8.104 -0.2144 -0.0854  0.3368
  189SLPC  H12X21886   5.835   6.496   8.158  0.2484  1.5487 -0.6223
  189SLPC  H12Y21887   5.939   6.520   8.031 -2.0024  0.9767  0.8352
  189SLPC  C31321888   6.023   6.410   8.209  0.2255 -0.0215  0.9606
  189SLPC  H13X21889   6.108   6.368   8.152  0.3100  0.4304  0.7546
  189SLPC  H13Y21890   5.988   6.328   8.277 -1.5037 -1.5374 -1.5705
  189SLPC  C31421891   6.064   6.531   8.292 -0.2312 -0.1668 -0.3573
  189SLPC  H14X21892   6.075   6.623   8.230  0.8050  1.3453  1.9500
  189SLPC  H14Y21893   6.159   6.514   8.345  0.3966 -1.6965 -1.8723
  189SLPC  C31521894   5.957   6.566   8.406  0.3962  0.2684  0.3427
  189SLPC  H15X21895   5.936   6.472   8.462  0.6382  0.2771  0.4463
  189SLPC  H15Y21896   5.860   6.592   8.357  0.9705  1.4913 -0.1838
  189SLPC  C31621897   5.990   6.682   8.502  0.0295  0.0094 -0.2550
  189SLPC  H16X21898   5.969   6.772   8.441  1.3358  1.5557  1.4587
  189SLPC  H16Y21899   6.099   6.677   8.522  0.4162 -1.4474 -2.3880
  189SLPC  C31721900   5.919   6.681   8.641 -0.5081  0.6373 -0.2595
  189SLPC  H17X21901   5.962   6.771   8.689  1.4604 -0.6932  0.5698
  189SLPC  H17Y21902   5.938   6.582   8.689  0.6379 -0.3302 -2.5513
  189SLPC  C31821903   5.765   6.681   8.634  0.1063 -0.1913 -0.3542
  189SLPC  H18X21904   5.746   6.786   8.603  1.4970 -0.0151 -0.6736
  189SLPC  H18Y21905   5.713   6.659   8.730  2.0133  0.8991  0.9887
  189SLPC  H18Z21906   5.730   6.615   8.552  0.0152  1.4204 -1.6462
  190SLPC     N21907   0.480   0.737   6.103 -0.0505  0.0747 -0.0912
  190SLPC   C1321908   0.393   0.618   6.086  0.0221  0.2245  0.0157
  190SLPC  H13A21909   0.305   0.642   6.143 -0.1597 -1.4015  0.4468
  190SLPC  H13B21910   0.363   0.597   5.984 -2.0084 -2.7743  1.1178
  190SLPC  H13C21911   0.424   0.531   6.140 -0.8432  0.1896  0.4710
  190SLPC   C1421912   0.422   0.854   6.020 -0.4181  0.2307 -0.0900
  190SLPC  H14A21913   0.442   0.842   5.915  0.6537  1.9894 -0.1343
  190SLPC  H14B21914   0.316   0.859   6.036 -0.5152  0.5615 -0.8513
  190SLPC  H14C21915   0.448   0.951   6.060  1.0026  0.4779 -1.5025
  190SLPC   C1521916   0.616   0.704   6.047 -0.3278  0.3594  0.0743
  190SLPC  H15A21917   0.600   0.684   5.943  0.2838 -1.1798  0.2603
  190SLPC  H15B21918   0.673   0.795   6.038  1.5636 -0.6796  1.0731
  190SLPC  H15C21919   0.663   0.630   6.110 -1.4166  1.6315  2.5572
  190SLPC   C1221920   0.484   0.772   6.247  1.1297 -0.4891 -0.1101
  190SLPC  H12A21921   0.388   0.805   6.282  0.9880 -0.5094 -0.4706
  190SLPC  H12B21922   0.554   0.854   6.249  1.9714 -1.1986  0.3031
  190SLPC   C1121923   0.530   0.674   6.349 -0.5815  0.4818  0.0896
  190SLPC  H11A21924   0.540   0.703   6.456 -0.6208 -2.4757  0.9626
  190SLPC  H11B21925   0.635   0.651   6.319 -1.4434 -1.6971 -1.5118
  190SLPC     P21926   0.319   0.553   6.441 -0.0310  0.0211  0.3571
  190SLPC   O1321927   0.219   0.658   6.399 -0.4818  0.2111 -0.0802
  190SLPC   O1421928   0.271   0.409   6.433 -0.3374  0.2859 -0.3204
  190SLPC   O1221929   0.453   0.560   6.351 -0.0828 -0.0861 -0.1662
  190SLPC   O1121930   0.374   0.594   6.580 -0.1018 -0.0400 -0.2025
  190SLPC    C121931   0.489   0.525   6.641 -0.6087  0.8998  0.2610
  190SLPC    HA21932   0.555   0.481   6.564  0.7290  0.2936  1.6887
  190SLPC    HB21933   0.537   0.607   6.699 -1.0175  1.3081  0.0299
  190SLPC    C221934   0.441   0.408   6.728 -0.1323  0.1725 -0.1218
  190SLPC    HS21935   0.388   0.338   6.660  0.6038 -0.6308  0.1130
  190SLPC   O2121936   0.360   0.460   6.841  0.4022 -0.3209 -0.1933
  190SLPC   C2121937   0.245   0.397   6.869  0.9090  0.6721 -0.0306
  190SLPC   O2221938   0.217   0.286   6.825 -0.5395  0.1822  0.5599
  190SLPC   C2221939   0.151   0.488   6.955 -0.3231 -0.6064 -0.5384
  190SLPC   H2R21940   0.208   0.582   6.974  0.9570 -1.3090 -0.7664
  190SLPC   H2S21941   0.063   0.512   6.891  0.9753 -0.8870 -2.5265
  190SLPC    C321942   0.570   0.340   6.792 -0.3164  0.3387  0.3596
  190SLPC    HX21943   0.614   0.413   6.862  0.6369 -1.0809  1.2949
  190SLPC    HY21944   0.643   0.316   6.711  0.4416 -0.3301  1.2219
  190SLPC   O3121945   0.539   0.215   6.852  0.5943 -0.0848 -0.6495
  190SLPC   C3121946   0.505   0.220   6.982  1.0968  0.4215  0.1357
  190SLPC   O3221947   0.526   0.315   7.058 -0.7921 -0.3614  0.1138
  190SLPC   C3221948   0.434   0.088   7.028 -0.0083 -0.3792 -0.1562
  190SLPC   H2X21949   0.495   0.002   6.992 -2.0777 -2.4717  1.1018
  190SLPC   H2Y21950   0.331   0.096   6.988 -0.0855  2.2780  0.3945
  190SLPC   C2321951   0.098   0.422   7.080  0.0390 -0.1525  0.1417
  190SLPC   H3R21952   0.061   0.319   7.064  1.6446 -1.2154  2.6146
  190SLPC   H3S21953   0.015   0.478   7.128  1.3526  1.0451  1.1323
  190SLPC   C2421954   0.205   0.426   7.185 -0.4512  0.2769  0.9172
  190SLPC   H4R21955   0.253   0.525   7.202 -0.6279  0.4836  0.2318
  190SLPC   H4S21956   0.286   0.354   7.159 -2.3976 -1.2647 -1.2563
  190SLPC   C2521957   0.160   0.378   7.327  0.4201  0.4430 -0.0752
  190SLPC   H5R21958   0.245   0.337   7.386  0.4056 -0.4073 -0.6270
  190SLPC   H5S21959   0.085   0.297   7.318  0.4567  0.5590 -1.8122
  190SLPC   C2621960   0.107   0.494   7.408 -0.1593  0.0636  0.0750
  190SLPC   H6R21961   0.026   0.546   7.352  0.0268  1.8706  1.3684
  190SLPC   H6S21962   0.196   0.560   7.417  0.1396  0.0247 -2.0885
  190SLPC   C2721963   0.049   0.452   7.547  0.2859 -0.2719  0.2869
  190SLPC   H7R21964  -0.033   0.380   7.526  1.4738 -1.6155  0.0924
  190SLPC   H7S21965   0.008   0.538   7.603 -0.1320  0.5514 -1.2379
  190SLPC   C2821966   0.145   0.384   7.644 -0.1174  0.3820 -0.4235
  190SLPC   H8R21967   0.225   0.460   7.651 -0.5796  0.8023  0.4855
  190SLPC   H8S21968   0.178   0.291   7.592 -0.4771 -0.2919  0.5301
  190SLPC   C2921969   0.074   0.342   7.768 -0.3489  0.2446 -0.0429
  190SLPC   H9R21970   0.004   0.263   7.741 -0.7468  1.1608 -1.8284
  190SLPC  C21021971   0.081   0.392   7.898 -0.4901 -0.5671  0.4268
  190SLPC  H10R21972   0.016   0.346   7.973  0.9024 -1.6346  1.0257
  190SLPC  C21121973   0.180   0.486   7.953 -0.8060  0.0183  0.5430
  190SLPC  H11R21974   0.110   0.557   8.002  0.6442  2.6152 -0.9704
  190SLPC  H11S21975   0.240   0.536   7.875 -1.7513 -0.3835 -0.4713
  190SLPC  C21221976   0.275   0.422   8.052  0.8333  0.4129  0.1144
  190SLPC  H12R21977   0.334   0.337   8.016 -0.6589 -0.8672  0.5651
  190SLPC  C21321978   0.293   0.471   8.176  0.6555  0.1415  0.4563
  190SLPC  H13R21979   0.350   0.408   8.246 -0.0216 -0.6824  0.2787
  190SLPC  C21421980   0.223   0.589   8.231 -0.0573 -0.3367 -0.0763
  190SLPC  H14R21981   0.195   0.665   8.155  3.2137  0.3911 -0.7159
  190SLPC  H14S21982   0.285   0.635   8.311  1.5345 -1.2474 -0.7191
  190SLPC  C21521983   0.089   0.554   8.298 -0.6114 -0.1304 -0.3132
  190SLPC  H15R21984   0.112   0.486   8.383 -1.0908 -1.5886 -1.3102
  190SLPC  H15S21985   0.021   0.499   8.229 -0.0071  1.5666 -2.3358
  190SLPC  C21621986   0.023   0.682   8.352  0.2631  0.1747  0.0532
  190SLPC  H16R21987   0.001   0.760   8.275  2.1847 -0.0955 -0.8515
  190SLPC  H16S21988   0.099   0.717   8.425  2.0786 -0.9031 -1.2189
  190SLPC  C21721989  -0.107   0.643   8.424  0.0443  0.1678 -0.1860
  190SLPC  H17R21990  -0.170   0.592   8.348  0.7593 -0.3522 -0.4434
  190SLPC  H17S21991  -0.153   0.737   8.461  0.5780  1.0345 -1.6465
  190SLPC  C21821992  -0.098   0.556   8.556 -0.1599  0.0661  0.1047
  190SLPC  H18R21993  -0.200   0.544   8.596 -0.7120  1.1122 -0.9281
  190SLPC  H18S21994  -0.044   0.611   8.637 -1.2042  0.7236  0.3699
  190SLPC  H18T21995  -0.047   0.461   8.531  0.4015  0.3608  0.1059
  190SLPC   C3321996   0.436   0.065   7.182 -0.6793  0.4117 -0.2071
  190SLPC   H3X21997   0.395   0.152   7.236  2.1076  1.3234  0.5922
  190SLPC   H3Y21998   0.543   0.060   7.211 -0.8944  4.8593  2.2109
  190SLPC   C3421999   0.348  -0.051   7.223  0.4190  0.0960 -0.1829
  190SLPC   H4X22000   0.372  -0.143   7.165 -2.0925 -1.3430  0.8727
  190SLPC   H4Y22001   0.240  -0.025   7.219  0.7148  1.5345  0.4579
  190SLPC   C3522002   0.374  -0.106   7.369  0.2339  0.3716 -0.0930
  190SLPC   H5X22003   0.476  -0.150   7.377  0.7830  1.7193  0.5743
  190SLPC   H5Y22004   0.297  -0.184   7.388 -2.8466  2.5525 -2.6416
  190SLPC   C3622005   0.367  -0.001   7.479 -0.1665 -0.2453  0.1207
  190SLPC   H6X22006   0.257   0.014   7.481  0.1217  2.7461 -1.0096
  190SLPC   H6Y22007   0.402   0.097   7.440 -2.8195  0.1307 -1.6091
  190SLPC   C3722008   0.419  -0.042   7.618 -0.9069  0.1367 -0.4518
  190SLPC   H7X22009   0.427   0.050   7.680  0.2690 -0.6388  0.5977
  190SLPC   H7Y22010   0.524  -0.075   7.605 -0.5281  2.0182 -2.9374
  190SLPC   C3822011   0.336  -0.148   7.686  0.1096 -0.4650 -0.8116
  190SLPC   H8X22012   0.341  -0.242   7.627  1.9916 -1.3274  0.6326
  190SLPC   H8Y22013   0.233  -0.105   7.691  1.4029  2.7030  2.2605
  190SLPC   C3922014   0.379  -0.155   7.838  0.0935 -0.1137 -0.3608
  190SLPC   H9X22015   0.488  -0.177   7.832  0.1603  0.2915 -0.6766
  190SLPC   H9Y22016   0.332  -0.239   7.894  1.5129 -0.5317  0.2423
  190SLPC  C31022017   0.345  -0.033   7.920  0.0278 -0.1927  0.2657
  190SLPC  H10X22018   0.240   0.002   7.922 -0.3413 -1.2935  0.6505
  190SLPC  H10Y22019   0.408   0.049   7.879 -0.2731  0.1363  0.4608
  190SLPC  C31122020   0.400  -0.061   8.066  0.2934 -0.1995  0.7658
  190SLPC  H11X22021   0.419   0.043   8.101  0.6477  0.4057 -1.1201
  190SLPC  H11Y22022   0.498  -0.113   8.060  0.0952 -0.4808 -0.1500
  190SLPC  C31222023   0.298  -0.132   8.153  0.3556 -0.3776 -0.0298
  190SLPC  H12X22024   0.282  -0.234   8.112  0.2455 -0.2617 -0.2775
  190SLPC  H12Y22025   0.202  -0.076   8.159  0.3768 -0.2583 -0.7554
  190SLPC  C31322026   0.354  -0.146   8.298  0.0656  0.4069  0.4183
  190SLPC  H13X22027   0.403  -0.050   8.326  0.1333  0.4393  0.1945
  190SLPC  H13Y22028   0.433  -0.225   8.297  1.1363  1.4266 -1.5760
  190SLPC  C31422029   0.252  -0.168   8.413  0.3720 -0.4184 -0.3491
  190SLPC  H14X22030   0.179  -0.086   8.429  0.4879 -0.5859  1.2562
  190SLPC  H14Y22031   0.308  -0.161   8.509  0.9231  1.0226 -0.7520
  190SLPC  C31522032   0.195  -0.306   8.416  0.3981  0.5830 -0.4003
  190SLPC  H15X22033   0.270  -0.384   8.442  0.1412  1.4167  3.3478
  190SLPC  H15Y22034   0.161  -0.339   8.315 -2.6057 -1.0661  1.0281
  190SLPC  C31622035   0.070  -0.322   8.506  0.2049  0.5861 -0.4547
  190SLPC  H16X22036   0.043  -0.428   8.521  2.5066  0.3600  3.1377
  190SLPC  H16Y22037  -0.020  -0.275   8.460  0.6966 -1.0856 -3.4080
  190SLPC  C31722038   0.100  -0.266   8.647 -0.2628  0.5132  0.0856
  190SLPC  H17X22039   0.151  -0.168   8.648 -1.3472  1.0945 -0.1139
  190SLPC  H17Y22040   0.158  -0.348   8.696 -1.0632  0.0472  0.2752
  190SLPC  C31822041  -0.018  -0.232   8.736 -0.0525  0.0439  0.8250
  190SLPC  H18X22042  -0.086  -0.318   8.753 -0.6364  0.7284  2.0648
  190SLPC  H18Y22043  -0.082  -0.150   8.698  0.0801 -0.2106  0.0485
  190SLPC  H18Z22044   0.015  -0.195   8.836 -0.0406  0.9239  0.5018
  191SLPC     N22045   5.867   1.675   6.205  1.0029 -0.1931 -0.0648
  191SLPC   C1322046   5.742   1.691   6.133  0.6759 -0.1546 -0.2608
  191SLPC  H13A22047   5.722   1.788   6.090  0.2081  0.3596  1.0645
  191SLPC  H13B22048   5.744   1.628   6.046 -0.4949 -0.0364 -0.3944
  191SLPC  H13C22049   5.662   1.642   6.186  1.8065 -0.6371  1.0476
  191SLPC   C1422050   5.835   1.707   6.346 -0.4885 -0.0319 -0.2766
  191SLPC  H14A22051   5.928   1.704   6.401  0.2001 -1.2074 -1.4709
  191SLPC  H14B22052   5.792   1.806   6.360 -0.3818 -0.0819  0.4684
  191SLPC  H14C22053   5.775   1.625   6.383 -0.2369 -0.1511 -0.1360
  191SLPC   C1522054   5.976   1.767   6.155 -0.3558  0.6497 -0.2783
  191SLPC  H15A22055   6.069   1.743   6.204  0.8504  3.4490 -0.9937
  191SLPC  H15B22056   6.000   1.765   6.050 -1.2278  3.6988 -0.6455
  191SLPC  H15C22057   5.970   1.873   6.176  0.1958  0.2636  2.0388
  191SLPC   C1222058   5.932   1.537   6.199 -0.5783 -0.3059  1.1885
  191SLPC  H12A22059   5.848   1.472   6.221 -2.4091  1.0391 -1.3392
  191SLPC  H12B22060   6.006   1.530   6.277  2.6026 -0.0859 -1.6012
  191SLPC   C1122061   5.997   1.480   6.067 -0.7013  0.2452  0.4791
  191SLPC  H11A22062   6.046   1.381   6.080 -0.0560  0.4139 -0.5675
  191SLPC  H11B22063   6.082   1.545   6.036  1.1277 -2.0737  0.3749
  191SLPC     P22064   5.799   1.354   5.943 -0.2544 -0.7211  0.0625
  191SLPC   O1322065   5.686   1.413   5.866  0.0631  0.2662  0.2778
  191SLPC   O1422066   5.868   1.240   5.884  0.2768  0.4348 -0.3858
  191SLPC   O1222067   5.907   1.478   5.957  0.5583  0.7841 -0.1211
  191SLPC   O1122068   5.766   1.336   6.099 -0.1606  0.1326  0.2479
  191SLPC    C122069   5.659   1.256   6.150  0.1247  0.5566 -0.1074
  191SLPC    HA22070   5.575   1.250   6.077  0.8985  0.9811 -1.0488
  191SLPC    HB22071   5.694   1.152   6.165  0.2017  0.5966 -0.0080
  191SLPC    C222072   5.608   1.322   6.278  0.2496 -0.2381 -0.5684
  191SLPC    HS22073   5.646   1.425   6.261  0.4898 -0.7164 -3.3168
  191SLPC   O2122074   5.652   1.241   6.394 -0.3470  0.4233  0.1172
  191SLPC   C2122075   5.734   1.319   6.466 -0.0406  0.4800 -0.8035
  191SLPC   O2222076   5.754   1.437   6.456  1.0459 -0.0848 -0.0600
  191SLPC   C2222077   5.802   1.227   6.575 -0.2174 -0.1016  0.1025
  191SLPC   H2R22078   5.721   1.191   6.641 -2.2313  3.3991 -0.1968
  191SLPC   H2S22079   5.848   1.137   6.530  0.2549 -0.3637  1.0787
  191SLPC    C322080   5.455   1.348   6.290  0.2368  0.6614 -0.5076
  191SLPC    HX22081   5.408   1.248   6.289  3.3461 -0.9794  2.0308
  191SLPC    HY22082   5.424   1.422   6.212 -1.5220  0.2876 -0.2015
  191SLPC   O3122083   5.408   1.399   6.418 -0.3268 -0.2109  0.2626
  191SLPC   C3122084   5.420   1.527   6.451 -0.3820 -0.4315  0.6815
  191SLPC   O3222085   5.464   1.612   6.371  0.7363 -0.9153  0.0257
  191SLPC   C3222086   5.385   1.538   6.594 -0.0032 -0.4671 -0.1896
  191SLPC   H2X22087   5.433   1.464   6.662  2.9635  0.9072 -0.6309
  191SLPC   H2Y22088   5.275   1.525   6.607  0.1148 -0.0266  1.4736
  191SLPC   C2322089   5.908   1.292   6.671 -0.2105 -0.2837  0.5998
  191SLPC   H3R22090   5.993   1.330   6.610 -0.8602 -0.9927 -0.7994
  191SLPC   H3S22091   5.950   1.223   6.747  1.6915 -0.3298 -0.4118
  191SLPC   C2422092   5.857   1.410   6.740  0.1774 -0.1594 -0.1688
  191SLPC   H4R22093   5.856   1.497   6.671 -0.7805  1.0213  1.2852
  191SLPC   H4S22094   5.932   1.434   6.818  0.3683 -1.0038 -0.0800
  191SLPC   C2522095   5.717   1.392   6.800 -0.0533  0.1759  0.0399
  191SLPC   H5R22096   5.701   1.286   6.830 -2.5007 -0.3314 -2.6622
  191SLPC   H5S22097   5.648   1.419   6.718  0.6609  2.3888  0.0927
  191SLPC   C2622098   5.680   1.468   6.931 -0.3296  0.0294  0.1337
  191SLPC   H6R22099   5.570   1.456   6.947 -0.1783 -1.3555  0.2202
  191SLPC   H6S22100   5.688   1.578   6.914 -0.2205 -0.0037 -0.0372
  191SLPC   C2722101   5.766   1.424   7.054  0.2666 -0.6475  0.4631
  191SLPC   H7R22102   5.867   1.469   7.049 -0.3706  0.7764 -0.3935
  191SLPC   H7S22103   5.776   1.314   7.042 -1.2368 -0.7191 -0.3746
  191SLPC   C2822104   5.701   1.445   7.195 -1.2153 -0.0717  0.2749
  191SLPC   H8R22105   5.745   1.372   7.267 -2.2842 -1.6315 -0.5847
  191SLPC   H8S22106   5.595   1.415   7.184 -0.6451 -1.7441 -1.2960
  191SLPC   C2922107   5.713   1.586   7.240 -0.6945 -0.7990 -0.9074
  191SLPC   H9R22108   5.696   1.659   7.159  0.1447  0.7258  0.2519
  191SLPC  C21022109   5.765   1.632   7.356 -0.2279 -0.3438  0.0326
  191SLPC  H10R22110   5.761   1.741   7.369  3.6653 -0.3106  2.3693
  191SLPC  C21122111   5.818   1.547   7.472  0.3274  0.0552  0.6937
  191SLPC  H11R22112   5.747   1.467   7.499  1.7616 -1.8389 -0.7835
  191SLPC  H11S22113   5.814   1.610   7.563 -1.5966  0.0294  0.6476
  191SLPC  C21222114   5.956   1.493   7.448  0.0259 -0.2253  0.5234
  191SLPC  H12R22115   5.997   1.499   7.346 -2.6719  4.1114 -0.5816
  191SLPC  C21322116   6.030   1.449   7.549  0.9263  0.2597  0.2850
  191SLPC  H13R22117   6.125   1.402   7.521  0.4888 -0.0951 -0.6272
  191SLPC  C21422118   6.003   1.453   7.695  0.0919 -0.2351 -0.1055
  191SLPC  H14R22119   5.898   1.485   7.706 -0.6220 -1.8023 -1.8746
  191SLPC  H14S22120   6.057   1.537   7.743 -0.7535  0.3619 -0.1835
  191SLPC  C21522121   6.045   1.329   7.762 -0.2556 -0.0820 -0.1877
  191SLPC  H15R22122   6.153   1.307   7.746 -0.1227  1.3979 -1.5453
  191SLPC  H15S22123   5.980   1.250   7.718 -3.0221  2.0001 -0.0723
  191SLPC  C21622124   6.004   1.323   7.907 -1.0571  0.2592 -0.0769
  191SLPC  H16R22125   5.895   1.303   7.915 -0.6959 -2.3078 -0.8346
  191SLPC  H16S22126   6.037   1.418   7.955 -2.4205  1.1788 -0.8880
  191SLPC  C21722127   6.059   1.212   7.990 -0.5907  0.4070 -0.1151
  191SLPC  H17R22128   6.058   1.228   8.099  3.3543 -2.8605  0.6353
  191SLPC  H17S22129   6.169   1.199   7.980 -0.7760 -0.6156 -1.0380
  191SLPC  C21822130   5.993   1.084   7.957 -0.1735 -0.7909  0.2311
  191SLPC  H18R22131   6.005   1.057   7.850 -2.0674 -3.4992  0.6016
  191SLPC  H18S22132   5.883   1.095   7.969 -0.2474 -1.7167  0.4386
  191SLPC  H18T22133   6.036   1.004   8.019  0.2906 -0.3163  0.5290
  191SLPC   C3322134   5.423   1.678   6.646 -0.4961 -0.0744  0.0975
  191SLPC   H3X22135   5.400   1.754   6.568  2.1398  1.0078  0.2780
  191SLPC   H3Y22136   5.531   1.689   6.666 -0.6782  0.3759  0.8805
  191SLPC   C3422137   5.351   1.718   6.786  0.7864  0.4090  0.0741
  191SLPC   H4X22138   5.400   1.665   6.871  1.7259  1.6631  0.3397
  191SLPC   H4Y22139   5.242   1.695   6.787  0.7974  0.0476 -2.2609
  191SLPC   C3522140   5.364   1.871   6.821 -0.2870  0.3605  0.3037
  191SLPC   H5X22141   5.310   1.922   6.739 -0.1686 -0.8058 -0.5296
  191SLPC   H5Y22142   5.474   1.887   6.814 -0.0153 -1.6725 -0.7228
  191SLPC   C3622143   5.302   1.905   6.955 -0.3500  0.2820 -0.4470
  191SLPC   H6X22144   5.201   1.860   6.961 -0.8682  1.6244  1.9611
  191SLPC   H6Y22145   5.280   2.014   6.959 -0.8705  0.1816 -0.4621
  191SLPC   C3722146   5.384   1.865   7.084  0.3838 -1.0962  0.9790
  191SLPC   H7X22147   5.473   1.931   7.094  1.0441 -1.8658  0.3352
  191SLPC   H7Y22148   5.416   1.759   7.077 -1.1673 -1.4941 -0.8684
  191SLPC   C3822149   5.295   1.872   7.210 -0.0757 -0.0982  0.2383
  191SLPC   H8X22150   5.207   1.807   7.191 -0.4441 -0.4299  2.6711
  191SLPC   H8Y22151   5.251   1.973   7.227  0.7526  0.1561  0.9580
  191SLPC   C3922152   5.348   1.815   7.342  0.2218 -0.1267  1.1932
  191SLPC   H9X22153   5.457   1.802   7.324 -0.3296 -2.1856 -1.2629
  191SLPC   H9Y22154   5.298   1.718   7.365 -2.9951  0.8613 -0.9861
  191SLPC  C31022155   5.304   1.906   7.468  0.0312  0.5774  0.2126
  191SLPC  H10X22156   5.193   1.917   7.468 -0.1378 -1.0011  0.3842
  191SLPC  H10Y22157   5.341   2.009   7.445  1.4876  0.4142  1.6295
  191SLPC  C31122158   5.347   1.853   7.603 -0.0434  0.7337 -0.7140
  191SLPC  H11X22159   5.456   1.831   7.604 -0.3380 -1.5923  3.3921
  191SLPC  H11Y22160   5.298   1.754   7.622 -0.1642  0.7865 -0.7516
  191SLPC  C31222161   5.318   1.936   7.731  0.7767  0.2379 -0.3679
  191SLPC  H12X22162   5.209   1.954   7.744  0.9129 -0.2669  1.8890
  191SLPC  H12Y22163   5.365   2.036   7.722 -1.4920  1.3069 -1.0533
  191SLPC  C31322164   5.370   1.866   7.855 -0.0806 -0.1400  0.3153
  191SLPC  H13X22165   5.479   1.848   7.845  0.1853  1.3215  0.4689
  191SLPC  H13Y22166   5.323   1.765   7.847  1.4015 -0.8583  0.2147
  191SLPC  C31422167   5.321   1.927   7.989  0.3117  0.6820  0.5814
  191SLPC  H14X22168   5.213   1.948   7.974 -0.0004 -1.3495 -0.3878
  191SLPC  H14Y22169   5.361   2.030   7.998 -1.4117  1.4189  0.1393
  191SLPC  C31522170   5.365   1.843   8.101 -0.5446  0.0655  0.1163
  191SLPC  H15X22171   5.474   1.825   8.101 -0.3839  0.9823 -0.3250
  191SLPC  H15Y22172   5.320   1.742   8.088  0.1244  0.0301 -2.2797
  191SLPC  C31622173   5.317   1.888   8.240  0.1481  0.3043  0.2040
  191SLPC  H16X22174   5.207   1.894   8.245  0.2370  1.2173  2.9181
  191SLPC  H16Y22175   5.353   1.992   8.258 -0.2256  0.2263  1.5261
  191SLPC  C31722176   5.361   1.785   8.349 -0.0282 -0.2789 -0.0839
  191SLPC  H17X22177   5.471   1.771   8.339 -0.2165 -1.2906 -0.8676
  191SLPC  H17Y22178   5.312   1.691   8.317  0.2761 -0.6472  0.5230
  191SLPC  C31822179   5.306   1.835   8.482 -0.1277  0.6461 -0.8702
  191SLPC  H18X22180   5.343   1.766   8.561 -0.9856 -0.2613 -1.2381
  191SLPC  H18Y22181   5.196   1.823   8.487  0.0175 -0.3087  1.6847
  191SLPC  H18Z22182   5.348   1.935   8.504  0.9629  0.1608 -0.6370
  192SLPC     N22183   5.306   3.688   6.277  0.2532 -0.3892 -0.1933
  192SLPC   C1322184   5.208   3.681   6.162 -0.0412  0.3179  0.2867
  192SLPC  H13A22185   5.155   3.775   6.172  0.9505  0.8336  0.7987
  192SLPC  H13B22186   5.265   3.683   6.070  0.2940 -0.0239  0.4892
  192SLPC  H13C22187   5.138   3.600   6.174 -0.1788  0.6180  1.6525
  192SLPC   C1422188   5.237   3.704   6.403 -0.9562 -0.3041 -0.1644
  192SLPC  H14A22189   5.301   3.712   6.489 -0.8665  0.9754 -0.3275
  192SLPC  H14B22190   5.176   3.794   6.402 -0.5782 -0.0460 -0.8328
  192SLPC  H14C22191   5.164   3.626   6.419  0.2099 -1.3061  0.3645
  192SLPC   C1522192   5.407   3.795   6.258  0.0293 -0.0838  0.6023
  192SLPC  H15A22193   5.465   3.785   6.349 -1.5382 -1.8361  1.4983
  192SLPC  H15B22194   5.475   3.775   6.177  0.3401  2.4350  0.1739
  192SLPC  H15C22195   5.367   3.895   6.258 -0.1524 -0.1495  1.1822
  192SLPC   C1222196   5.377   3.554   6.285  0.2184  0.3993  1.0536
  192SLPC  H12A22197   5.434   3.533   6.196 -1.1536 -1.2119  0.4947
  192SLPC  H12B22198   5.304   3.474   6.285 -0.3674  0.9252  1.5945
  192SLPC   C1122199   5.475   3.528   6.399  0.5802 -0.2594 -0.0802
  192SLPC  H11A22200   5.519   3.429   6.373 -0.0766 -0.2024 -1.4905
  192SLPC  H11B22201   5.426   3.513   6.498  1.1327 -0.3954  0.1830
  192SLPC     P22202   5.691   3.604   6.508 -0.7124  0.0891 -0.3470
  192SLPC   O1322203   5.819   3.630   6.431 -0.0367  0.0406 -0.8638
  192SLPC   O1422204   5.668   3.690   6.627 -0.0987  0.0615 -0.8328
  192SLPC   O1222205   5.573   3.628   6.404 -0.0033  0.2584  0.0545
  192SLPC   O1122206   5.680   3.455   6.551 -0.9023  0.3394  0.5685
  192SLPC    C122207   5.742   3.397   6.669 -0.6637 -0.0117  0.0291
  192SLPC    HA22208   5.798   3.308   6.632 -0.6956 -0.9599  2.1567
  192SLPC    HB22209   5.798   3.475   6.725 -1.0626 -0.8923  1.6872
  192SLPC    C222210   5.635   3.337   6.760 -0.2576 -0.6681 -0.0500
  192SLPC    HS22211   5.558   3.415   6.778 -0.5405 -0.9663  0.0610
  192SLPC   O2122212   5.698   3.288   6.882  0.7227  0.6620  0.4123
  192SLPC   C2122213   5.707   3.363   6.980 -0.0731 -0.4610 -0.9852
  192SLPC   O2222214   5.686   3.486   6.984 -0.3572  0.6828 -0.0745
  192SLPC   C2222215   5.763   3.271   7.093 -0.1813 -0.1348 -0.0420
  192SLPC   H2R22216   5.720   3.170   7.077 -1.0496 -0.0253  1.3814
  192SLPC   H2S22217   5.873   3.268   7.106 -0.1404  1.5367  0.1621
  192SLPC    C322218   5.555   3.221   6.696 -0.0708 -0.2922  0.0894
  192SLPC    HX22219   5.638   3.152   6.668  1.6010  1.4091  0.6565
  192SLPC    HY22220   5.499   3.249   6.604 -0.3920  1.0554  0.6700
  192SLPC   O3122221   5.467   3.178   6.800 -0.6665  0.8973  0.1179
  192SLPC   C3122222   5.468   3.057   6.847  0.1916 -0.1155 -0.4641
  192SLPC   O3222223   5.515   2.961   6.791 -0.4833  0.1309  0.8067
  192SLPC   C3222224   5.381   3.055   6.970  0.1410 -0.4838  0.4251
  192SLPC   H2X22225   5.287   3.003   6.941 -0.7677  0.8792  0.8012
  192SLPC   H2Y22226   5.355   3.162   6.989  0.9740 -0.1555 -0.1959
  192SLPC   C2322227   5.719   3.315   7.232  0.2728  0.8100 -0.9181
  192SLPC   H3R22228   5.615   3.352   7.220  0.1546  0.8061  0.0401
  192SLPC   H3S22229   5.784   3.400   7.260  2.1350 -1.4093  2.0870
  192SLPC   C2422230   5.720   3.197   7.334 -0.4862 -0.1222  0.7593
  192SLPC   H4R22231   5.820   3.158   7.363 -0.1317 -1.0351 -1.4439
  192SLPC   H4S22232   5.677   3.118   7.269  0.8324  0.2840 -0.6884
  192SLPC   C2522233   5.639   3.223   7.461  0.1692 -0.4488 -0.0347
  192SLPC   H5R22234   5.649   3.123   7.509 -0.7926 -0.9864 -0.9207
  192SLPC   H5S22235   5.531   3.251   7.457  0.3587  1.1587  2.9151
  192SLPC   C2622236   5.715   3.329   7.545  1.1141 -0.7252 -0.5327
  192SLPC   H6R22237   5.725   3.421   7.482 -3.5170 -1.3364 -2.5728
  192SLPC   H6S22238   5.819   3.293   7.562  2.1196  1.8761 -0.7206
  192SLPC   C2722239   5.663   3.349   7.694  0.2987  0.4076  0.5678
  192SLPC   H7R22240   5.553   3.334   7.691  0.5685 -2.0170  0.7720
  192SLPC   H7S22241   5.695   3.453   7.719  1.5305  0.5912 -1.5164
  192SLPC   C2822242   5.723   3.257   7.801  0.1937 -0.0731  0.2329
  192SLPC   H8R22243   5.834   3.256   7.799  0.2148  1.6443 -0.6379
  192SLPC   H8S22244   5.695   3.152   7.774 -1.1519  0.0550  1.0686
  192SLPC   C2922245   5.673   3.292   7.937 -0.2253  0.2134  0.2765
  192SLPC   H9R22246   5.565   3.310   7.949 -0.1860  1.1893 -0.6328
  192SLPC  C21022247   5.755   3.319   8.042 -0.1705  0.0089  0.5541
  192SLPC  H10R22248   5.707   3.340   8.139 -0.0172  0.6909  0.4865
  192SLPC  C21122249   5.910   3.322   8.049  0.3407 -0.4684 -0.7137
  192SLPC  H11R22250   5.948   3.287   7.951 -0.5876 -0.2485 -1.1669
  192SLPC  H11S22251   5.947   3.257   8.132  1.2839  1.6880  0.6634
  192SLPC  C21222252   5.978   3.458   8.063 -0.0306 -0.3150  0.4963
  192SLPC  H12R22253   5.920   3.541   8.018 -0.3031  0.4007  2.0748
  192SLPC  C21322254   6.094   3.494   8.125 -0.0769  0.1613 -0.2498
  192SLPC  H13R22255   6.129   3.598   8.121  0.9917 -0.1747  0.1216
  192SLPC  C21422256   6.189   3.404   8.199 -0.5023 -0.5611  0.2035
  192SLPC  H14R22257   6.131   3.316   8.236 -0.7997 -0.7276 -0.6314
  192SLPC  H14S22258   6.228   3.459   8.288  0.4268 -0.1579 -0.4416
  192SLPC  C21522259   6.303   3.368   8.109  0.3955 -0.2007  1.2553
  192SLPC  H15R22260   6.270   3.317   8.016  0.6215  0.8539  0.5739
  192SLPC  H15S22261   6.353   3.295   8.176  1.0976 -1.1112 -0.1901
  192SLPC  C21622262   6.400   3.480   8.092 -0.0754  0.3435 -0.6091
  192SLPC  H16R22263   6.409   3.514   8.197 -2.3994  1.3570 -0.6773
  192SLPC  H16S22264   6.351   3.564   8.040 -3.5077 -0.4741  1.0413
  192SLPC  C21722265   6.532   3.434   8.043 -0.1568 -0.1357 -0.2922
  192SLPC  H17R22266   6.567   3.340   8.090 -1.0769 -0.1480  0.3852
  192SLPC  H17S22267   6.521   3.420   7.933 -0.5731 -0.1488 -0.2491
  192SLPC  C21822268   6.630   3.550   8.047 -0.1597  0.7853 -0.0667
  192SLPC  H18R22269   6.577   3.648   8.048  0.1658  1.0451 -2.6174
  192SLPC  H18S22270   6.700   3.537   7.963 -1.1381  3.4909 -1.3967
  192SLPC  H18T22271   6.687   3.543   8.142  1.4709  3.0098 -0.8177
  192SLPC   C3322272   5.444   2.983   7.088  0.2649 -0.4843 -0.8078
  192SLPC   H3X22273   5.549   3.013   7.106  0.6272 -1.7902 -0.6527
  192SLPC   H3Y22274   5.441   2.874   7.070  1.2368 -0.3474 -1.9093
  192SLPC   C3422275   5.360   3.014   7.217 -0.0966  0.5181  0.1245
  192SLPC   H4X22276   5.254   2.982   7.212  0.0507 -0.1544  0.9370
  192SLPC   H4Y22277   5.347   3.124   7.217 -2.5389  0.4091 -3.1920
  192SLPC   C3522278   5.427   2.976   7.354  0.2315  0.1884  0.3656
  192SLPC   H5X22279   5.528   3.020   7.370 -0.6506  2.2003  0.6781
  192SLPC   H5Y22280   5.438   2.866   7.355  1.2348  0.2735  0.4863
  192SLPC   C3622281   5.335   3.001   7.475 -0.0852  0.2361  0.7255
  192SLPC   H6X22282   5.242   2.941   7.459 -0.9523  2.0915 -1.9149
  192SLPC   H6Y22283   5.308   3.109   7.472  0.8035  0.4876  1.5629
  192SLPC   C3722284   5.396   2.953   7.608 -0.4000  1.1669  0.2047
  192SLPC   H7X22285   5.486   3.016   7.618 -1.0598  1.9481  1.4888
  192SLPC   H7Y22286   5.433   2.848   7.608  0.1959  1.3326  2.0716
  192SLPC   C3822287   5.316   2.982   7.742  0.3154  0.0373  0.6716
  192SLPC   H8X22288   5.227   2.915   7.743 -0.9689  1.6923  1.7869
  192SLPC   H8Y22289   5.285   3.088   7.747  0.1166 -0.0590  1.9142
  192SLPC   C3922290   5.407   2.954   7.863  0.6221 -0.1201 -0.1558
  192SLPC   H9X22291   5.478   3.038   7.882  0.0132  0.3233  0.2112
  192SLPC   H9Y22292   5.463   2.860   7.843 -0.9250 -1.2366  0.5781
  192SLPC  C31022293   5.329   2.914   7.989  0.1176  0.1722  0.6798
  192SLPC  H10X22294   5.273   2.820   7.967  1.4618 -0.3924 -0.4950
  192SLPC  H10Y22295   5.259   2.999   8.002 -0.3605 -0.0442 -0.3841
  192SLPC  C31122296   5.421   2.878   8.102 -0.5566  0.5006 -0.5234
  192SLPC  H11X22297   5.452   2.976   8.145  0.7279 -0.2078  0.2428
  192SLPC  H11Y22298   5.504   2.820   8.056 -1.7004 -1.3718 -0.3465
  192SLPC  C31222299   5.354   2.800   8.217  0.2425 -0.3689 -0.2670
  192SLPC  H12X22300   5.309   2.704   8.182 -1.6843 -0.7044  2.7878
  192SLPC  H12Y22301   5.273   2.865   8.254  1.5900  0.8677  0.6342
  192SLPC  C31322302   5.446   2.751   8.335  0.0606  0.8911 -0.2786
  192SLPC  H13X22303   5.491   2.837   8.388  1.1118 -0.7145  1.5436
  192SLPC  H13Y22304   5.528   2.689   8.292 -0.5306  1.1217 -1.8115
  192SLPC  C31422305   5.359   2.678   8.439  0.1930 -0.0336 -0.2214
  192SLPC  H14X22306   5.340   2.574   8.404  0.9218 -1.2627  2.7393
  192SLPC  H14Y22307   5.270   2.743   8.449  0.0176 -0.4007  0.7444
  192SLPC  C31522308   5.412   2.655   8.580  0.0776  0.3675  0.5864
  192SLPC  H15X22309   5.487   2.574   8.568 -0.6746 -0.2599  0.0472
  192SLPC  H15Y22310   5.339   2.610   8.651  1.5052 -1.8278  0.7568
  192SLPC  C31622311   5.486   2.775   8.644 -0.5595 -0.5649  0.2251
  192SLPC  H16X22312   5.581   2.793   8.590 -1.0994  0.4297 -0.4373
  192SLPC  H16Y22313   5.523   2.767   8.748  3.3901  2.5563 -0.6797
  192SLPC  C31722314   5.407   2.909   8.643  0.1031 -0.6653 -0.4224
  192SLPC  H17X22315   5.346   2.904   8.736 -1.5116 -0.4929 -1.4423
  192SLPC  H17Y22316   5.331   2.928   8.564 -0.4032  0.3726  0.2867
  192SLPC  C31822317   5.498   3.034   8.649  0.1181  0.3980 -0.5577
  192SLPC  H18X22318   5.442   3.112   8.704 -3.6404 -2.2065 -0.2766
  192SLPC  H18Y22319   5.505   3.072   8.544 -1.5089  2.8119  0.1386
  192SLPC  H18Z22320   5.596   2.996   8.685 -0.3492 -1.0592 -0.7502
  193SOD    SOD22321   0.357   2.470   2.076 -0.5239  0.1033  0.0905
  194SOD    SOD22322   5.117   4.539   0.207 -0.4155 -0.2020  0.0548
  195SOD    SOD22323   6.063   3.622  12.156 -0.2900  0.1732 -0.2747
  196SOD    SOD22324   2.153   3.209  13.562  0.0642  0.1029 -0.2546
  197SOD    SOD22325   3.157   0.501  17.307  0.1396 -0.0741 -0.0508
  198SOD    SOD22326   3.959   3.451  12.124  0.2147  0.0659 -0.3301
  199SOD    SOD22327   2.960   0.847   0.986  0.3986  0.2785 -0.3464
  200SOD    SOD22328   0.259   2.999  12.951 -0.0425 -0.1398 -0.3498
  201SOD    SOD22329   6.093   6.494   1.404  0.1758  0.0140 -0.5894
  202SOD    SOD22330   6.563   0.240  11.153 -0.0757 -0.1483 -0.7192
  203SOD    SOD22331   4.765   2.697  13.304 -0.0360 -0.0716 -0.0739
  204SOD    SOD22332   4.910   1.865  12.504  0.1629 -0.2309  0.5797
  205SOD    SOD22333   1.459   1.278   2.131 -0.5022  0.3402 -0.0925
  206SOD    SOD22334   2.151   2.573  11.928  0.0821  0.2449  0.4780
  207SOD    SOD22335   6.417   1.871  11.620  0.5749  1.0061  0.1048
  208SOD    SOD22336   1.587   3.030  16.524 -0.2262 -0.5688 -0.2398
  209SOD    SOD22337   0.548   4.283  15.023  0.0822  0.4553  0.2937
  210SOD    SOD22338   4.126   0.262  10.461 -0.2066  0.3291  0.4987
  211SOD    SOD22339   3.202   1.006  11.829 -0.4898  0.1612  0.0803
  212SOD    SOD22340   0.643   5.059   4.638 -0.1993  0.2569  0.0101
  213SOD    SOD22341   1.747   3.538   2.874 -0.6147  0.4837  0.0856
  214SOD    SOD22342   4.522   4.547   6.069  0.4319 -0.4149  0.1609
  215SOD    SOD22343   4.100   3.474   0.901  0.0682  0.3274  0.4620
  216SOD    SOD22344   4.967   6.067  13.347  0.4517  0.5636  0.1892
  217SOD    SOD22345   3.791   1.375  15.074  0.0105  0.4470 -0.0483
  218SOD    SOD22346   4.574   2.208   6.411 -0.4367  0.1143 -0.0819
  219SOD    SOD22347   6.159   5.377   5.516 -0.1209  0.2919 -0.0139
  220SOD    SOD22348   1.594   0.889  10.632 -0.2182 -0.0527 -0.2710
  221SOD    SOD22349   3.274   6.207   6.404  0.0306  0.0562 -0.0047
  222SOD    SOD22350   2.408   1.402   4.397 -0.1543 -0.0554 -0.0937
  223SOD    SOD22351   1.699   4.488   0.988  0.1065  0.3231  0.1041
  224SOD    SOD22352   6.366   1.244  11.650  0.2722  0.0366 -0.6801
  225SOD    SOD22353   4.584   6.364   5.449 -0.0014  0.0057 -0.5012
  226SOD    SOD22354   5.697   6.701  12.114 -0.1928  0.2041 -0.1859
  227SOD    SOD22355   6.384   2.633  13.257 -0.0820  0.2492  0.4271
  228SOD    SOD22356   6.511   6.018  16.716  0.1260 -0.0998  0.2184
  229SOD    SOD22357   2.362   0.872  17.228  0.3307  0.4691 -0.2232
  230SOD    SOD22358   2.790   0.821   6.214  0.1293  0.0083 -0.1794
  231SOD    SOD22359   2.578   4.961   0.967  0.1819  0.5254  0.1796
  232SOD    SOD22360   5.840   5.520  11.103  0.5219  0.0925  0.4675
  233SOD    SOD22361   2.418   4.955  12.807  0.5572  0.1930  0.4739
  234SOD    SOD22362   3.341   6.229  15.203  0.1323 -0.5339  0.2039
  235SOD    SOD22363   2.979   1.252   3.259 -0.0022 -0.7288 -0.3926
  236SOD    SOD22364   4.710   3.007   0.456 -0.1407  0.1078  0.4747
  237SOD    SOD22365   0.959   6.028  11.122 -0.3894 -0.1868 -0.0388
  238SOD    SOD22366   4.692   4.887   4.256 -0.4211  0.8405  0.3329
  239SOD    SOD22367   0.433   3.004   6.712 -0.5459  0.3936 -0.0425
  240SOD    SOD22368   2.354   0.180  12.921 -0.1505 -0.2891 -0.1620
  241SOD    SOD22369   5.100   1.247  12.045 -0.2639 -0.3767 -0.0981
  242SOD    SOD22370   4.809   3.723  13.914  0.1074  0.0365 -0.0674
  243SOD    SOD22371   0.116   2.320  11.108  0.0555 -0.1585 -0.3959
  244SOD    SOD22372   3.618   5.364   2.802  0.4472  0.1149  0.0525
  245SOD    SOD22373   3.635   5.114   0.757 -0.0301 -0.4242 -1.1283
  246SOD    SOD22374   0.044   1.641   3.741 -0.5921  0.5360  0.4626
  247SOD    SOD22375   0.038   6.085   1.129  0.2882  0.1353  0.4568
  248SOD    SOD22376   6.582   3.064  14.298  0.3738 -0.0031  0.1827
  249SOD    SOD22377   3.983   3.824   6.495  0.0905 -0.5208 -0.2788
  250SOD    SOD22378   6.509   0.585  13.786 -0.2760 -0.1146  0.8099
  251SOD    SOD22379   6.396   5.969   0.266 -0.3234 -0.4247 -0.4252
  252SOD    SOD22380   2.546   3.444   6.138  0.2687  0.1397  0.0433
  253SOD    SOD22381   2.275   6.499   5.128  0.7264 -0.3688  0.2516
  254SOD    SOD22382   2.354   2.996   1.817  0.3822 -0.1576 -0.0679
  255SOD    SOD22383   6.511   4.300  16.687  0.2519 -0.5725 -0.0627
  256SOD    SOD22384   5.183   3.153   5.888 -0.1518 -0.3400 -0.4971
  257SOD    SOD22385   0.255   6.436  12.732  0.1601  0.3193  0.2593
  258SOD    SOD22386   3.441   2.964  13.346 -0.0427  0.6872 -0.6678
  259SOD    SOD22387   0.604   0.009   5.550  0.2356 -0.5573  0.3755
  260SOD    SOD22388   4.786   2.932   1.767 -0.2342  1.1617  0.4074
  261SOD    SOD22389   0.956   3.937   6.712 -0.5506 -0.1618  0.2332
  262SOD    SOD22390   5.788   5.991  15.880 -0.3810  0.0638  0.4693
  263SOD    SOD22391   3.671   1.854  17.284 -0.1007 -0.5555 -0.1853
  264SOD    SOD22392   1.665   0.322  12.634  0.0055  0.0996  0.4235
  265SOD    SOD22393   5.208   0.772   5.903  0.0100 -0.1150 -0.1502
  266CLA    CLA22394   6.003   5.913   1.071 -0.0764 -0.2588 -0.0565
  267CLA    CLA22395   0.176   1.569  13.383 -0.2266  0.1706 -0.5851
  268CLA    CLA22396   5.155   3.697  14.751  0.1030  0.0307 -0.3459
  269CLA    CLA22397   1.362   0.245  13.315 -0.0760 -0.5034 -0.0347
  270CLA    CLA22398   1.344   2.254   0.128  0.1498 -0.0277 -0.2205
  271CLA    CLA22399   3.196   1.812  13.117  0.1074 -0.2444 -0.0306
  272CLA    CLA22400   4.962   4.937  14.134  0.9261 -0.0432  0.1029
  273CLA    CLA22401   3.489   4.285   5.433  0.5449  0.1366 -0.4486
  274CLA    CLA22402   1.214   2.523   5.927 -0.4559  0.3548 -0.0208
  275CLA    CLA22403   0.363   4.381  16.393  0.1688 -0.0856  0.4030
  276CLA    CLA22404   3.434   3.804  12.180  0.1991 -0.2283  0.0913
  277CLA    CLA22405   4.117   0.230  16.759 -0.4715  0.0970  0.1908
  278CLA    CLA22406   2.889   6.497   1.931 -0.0629 -0.4680 -0.4542
  279CLA    CLA22407   6.762   5.058  11.756  0.0175 -0.0804 -0.2339
  280CLA    CLA22408   6.653   0.143  16.730  0.1588 -0.0867 -0.4774
  281CLA    CLA22409   5.743   4.495  14.275 -0.2474 -0.2970  0.7292
  282CLA    CLA22410   3.089   0.914  15.187 -0.2862  0.2147 -0.0680
  283CLA    CLA22411   6.675   2.892   5.394  0.2136 -0.0082  0.4576
  284CLA    CLA22412   6.619   2.310   2.772  0.0390  0.1178  0.3510
  285CLA    CLA22413   1.189   2.436   3.138  0.1699  0.0317  0.0324
  286CLA    CLA22414   6.166   0.867  13.973  0.0376  0.0479  0.0008
  287CLA    CLA22415   6.194   4.599  16.172 -0.1633 -0.0831 -0.5743
  288CLA    CLA22416   4.506   4.032  17.249 -0.0816 -0.2485  0.4559
  289CLA    CLA22417   0.018   2.575   1.242  0.2298  0.1672  0.0070
  290CLA    CLA22418   0.946   0.670  16.070 -0.1393  0.2204  0.1072
  291CLA    CLA22419   5.589   6.770  11.308  0.3718 -0.3794 -0.4237
  292CLA    CLA22420   2.882   0.472  17.363 -0.0290  0.2261 -0.0366
  293CLA    CLA22421   1.538   3.248   3.458 -0.0188 -0.2500  0.0044
  294CLA    CLA22422   4.456   5.840   1.871  0.0830  0.1739  0.0110
  295CLA    CLA22423   4.140   3.929  12.192 -0.0346  0.6185 -0.0938
  296CLA    CLA22424   3.547   4.303   1.047 -0.1045 -0.5298  0.2365
  297CLA    CLA22425   5.531   2.045  14.055  0.0929  0.3101  0.0467
  298CLA    CLA22426   3.763   5.351   1.876 -0.1845  0.1196 -0.5763
  299CLA    CLA22427   1.446   2.191  13.696 -0.3222  0.3188 -0.5157
  300CLA    CLA22428   3.086   1.383   4.298 -0.4007  0.1524  0.2271
  301CLA    CLA22429   3.151   4.075  11.866  0.1399  0.1319 -0.0310
  302CLA    CLA22430   5.587   2.123  12.314 -0.3940  0.7911 -0.5776
  303CLA    CLA22431   5.774   6.193  15.432 -0.1997  0.0673  0.4718
  304CLA    CLA22432   0.683   3.458   1.986  0.4194  0.4877 -0.0488
  305CLA    CLA22433   5.054   1.984   5.075  0.2000 -0.3083  0.2150
  306CLA    CLA22434   5.043   0.165   1.803 -0.0298  0.0232  0.0872
  307CLA    CLA22435   2.814   3.001  14.223  0.0212 -0.0004 -0.0810
  308CLA    CLA22436   4.001   4.335  13.878  0.1023 -0.2351  0.3979
  309CLA    CLA22437   0.934   6.349   5.582  0.0589 -0.3717  0.0311
  310CLA    CLA22438   0.054   2.519  15.580 -0.0746 -0.0563 -0.3868
  311CLA    CLA22439   1.119   5.056   1.665  0.3140  0.1060  0.1480
  312CLA    CLA22440   0.063   4.353  14.640 -0.0311  0.1039  0.0186
  313CLA    CLA22441   1.524   4.306  11.748  0.0166  0.7873  0.0701
  314CLA    CLA22442   3.062   2.551   4.080  0.3273  0.2219  0.2115
  315CLA    CLA22443   5.115   2.234  13.405 -0.5230  0.0979 -0.0099
  316CLA    CLA22444   5.064   1.695   0.079  0.3335 -0.4241 -0.0145
  317CLA    CLA22445   0.780   3.641   4.173 -0.0056  0.5204  0.3649
  318CLA    CLA22446   0.050   6.035  16.321  0.1746  0.8193  0.0093
  319TIP3   OH222447   4.398   0.166  13.468 -0.0342  0.5502 -0.1198
  319TIP3    H122448   4.372   0.258  13.472  0.4408  0.6586  2.9083
  319TIP3    H222449   4.331   0.121  13.520  0.4953 -0.6165 -0.4338
  320TIP3   OH222450   1.278   3.702   4.228  0.5320  0.2385 -0.4425
  320TIP3    H122451   1.244   3.653   4.153  0.8582  0.6081 -0.8356
  320TIP3    H222452   1.285   3.636   4.297 -2.5424  0.4498  0.2022
  321TIP3   OH222453   1.001   3.248   0.577 -0.6926  0.2419  0.8919
  321TIP3    H122454   0.908   3.266   0.560  0.3383  4.0644 -1.8731
  321TIP3    H222455   1.030   3.200   0.500  0.0152  0.8089  0.7978
  322TIP3   OH222456   1.538   5.787   2.916  0.5497  0.3498  0.1877
  322TIP3    H122457   1.448   5.803   2.890  0.7271  0.8056 -0.1569
  322TIP3    H222458   1.590   5.816   2.841  1.0312  0.9194  0.7343
  323TIP3   OH222459   0.006   1.071   4.606 -0.0734 -0.1347  0.3698
  323TIP3    H122460  -0.044   0.996   4.573  2.0298 -0.4374 -2.4137
  323TIP3    H222461   0.036   1.043   4.692 -0.5187 -1.9339 -0.0173
  324TIP3   OH222462   2.860   5.253  11.297 -0.0658 -0.2073  0.1082
  324TIP3    H122463   2.824   5.328  11.345 -0.4186  1.0466 -1.9427
  324TIP3    H222464   2.946   5.239  11.335 -0.1599  0.9853  0.8232
  325TIP3   OH222465   5.215   6.450   5.293 -0.1557 -0.1524 -0.7765
  325TIP3    H122466   5.215   6.453   5.389 -1.3267 -0.7955 -0.7342
  325TIP3    H222467   5.203   6.541   5.266 -0.1831 -0.0146 -0.3066
  326TIP3   OH222468   5.200   5.943  15.355  0.7531  0.6349 -0.3386
  326TIP3    H122469   5.111   5.949  15.389  0.0409  0.4090 -2.0520
  326TIP3    H222470   5.221   6.033  15.327  1.0871  0.7014  0.1296
  327TIP3   OH222471   0.547   0.190  11.906 -0.6322  0.1725  0.1422
  327TIP3    H122472   0.534   0.128  11.978  1.3411  0.2374  0.6185
  327TIP3    H222473   0.574   0.137  11.832 -0.3066  0.3342  0.1442
  328TIP3   OH222474   2.621   6.330   0.597  0.3519 -0.3164  0.2230
  328TIP3    H122475   2.603   6.244   0.558  1.6909 -0.1749 -0.7785
  328TIP3    H222476   2.605   6.318   0.690 -1.6083 -1.0497 -0.1643
  329TIP3   OH222477   0.437   0.318  12.476  0.1355  0.7227  0.0717
  329TIP3    H122478   0.405   0.233  12.508  0.1171  0.5139 -0.4927
  329TIP3    H222479   0.532   0.307  12.470 -0.0479 -0.0890 -2.3107
  330TIP3   OH222480   6.472   3.634   1.958 -0.2486 -0.3382  0.0738
  330TIP3    H122481   6.461   3.541   1.977  0.0830 -0.5468 -0.7098
  330TIP3    H222482   6.408   3.652   1.890 -0.2757 -0.0063  0.1880
  331TIP3   OH222483   6.203   5.742   2.815  0.2004 -0.2351 -0.2475
  331TIP3    H122484   6.167   5.742   2.726 -0.5347 -0.1388  0.0452
  331TIP3    H222485   6.292   5.708   2.804 -0.4688 -1.9245 -0.7714
  332TIP3   OH222486   5.670   2.767  11.943 -0.0548  0.2909 -0.6003
  332TIP3    H122487   5.635   2.782  11.855  1.2434 -0.6105 -1.3071
  332TIP3    H222488   5.629   2.835  11.997  0.3082  1.8828 -2.2158
  333TIP3   OH222489   1.753   1.970   4.191  0.2519  0.0238 -0.2610
  333TIP3    H122490   1.682   1.928   4.239  0.3377  0.5773  0.3715
  333TIP3    H222491   1.827   1.969   4.253  0.5997  0.0423 -0.6691
  334TIP3   OH222492   4.288   5.009  16.116 -0.6922  0.1251  0.2202
  334TIP3    H122493   4.350   4.938  16.135 -1.4113 -0.0697  2.0532
  334TIP3    H222494   4.327   5.086  16.156 -0.4480  0.5648 -0.8227
  335TIP3   OH222495   4.968   3.318  11.806  0.2463 -0.6547  0.3031
  335TIP3    H122496   4.931   3.385  11.863  1.5599  0.3354  0.0429
  335TIP3    H222497   4.894   3.259  11.787 -1.1101  1.0722 -0.0086
  336TIP3   OH222498   2.807   3.030   6.053 -0.3573 -0.0791  0.4016
  336TIP3    H122499   2.882   3.010   6.108  0.1411  0.9563  0.1251
  336TIP3    H222500   2.734   2.985   6.095  0.4754 -1.4357  0.4488
  337TIP3   OH222501   1.485   5.058   1.238 -0.3435 -0.5660  0.0144
  337TIP3    H122502   1.493   4.974   1.192 -1.9441 -1.3621  1.1045
  337TIP3    H222503   1.503   5.037   1.329 -0.6584  0.2947  0.2831
  338TIP3   OH222504   0.127   6.258  12.636  0.4218 -0.2639 -0.1745
  338TIP3    H122505   0.060   6.256  12.705  0.0737  1.1753 -0.4393
  338TIP3    H222506   0.098   6.191  12.573 -0.4667 -0.0446 -0.0163
  339TIP3   OH222507   6.385   1.587  13.871  0.2920 -0.2422  0.1844
  339TIP3    H122508   6.302   1.606  13.828 -0.6159 -2.4638  0.8170
  339TIP3    H222509   6.360   1.539  13.950  2.1641 -0.8861  0.4287
  340TIP3   OH222510   1.484   1.794   6.292 -0.6386 -0.3256 -0.3556
  340TIP3    H122511   1.497   1.884   6.322 -0.0161 -0.3866 -0.4223
  340TIP3    H222512   1.550   1.744   6.340 -0.3867 -0.6037 -0.9802
  341TIP3   OH222513   6.130   2.718   6.515  0.2854 -0.4205  0.7297
  341TIP3    H122514   6.145   2.805   6.552  1.8437  0.9048 -2.6275
  341TIP3    H222515   6.216   2.676   6.517  0.2902 -0.5293 -0.6772
  342TIP3   OH222516   0.968   4.670   1.322  0.2024 -0.0998 -0.2241
  342TIP3    H122517   1.055   4.708   1.313  1.2573 -1.9142  1.5233
  342TIP3    H222518   0.983   4.584   1.360 -2.4843  0.2568  1.9394
  343TIP3   OH222519   0.740   5.730  15.463  0.3294 -0.5176  0.3462
  343TIP3    H122520   0.709   5.659  15.518  0.3277 -0.9529 -0.2110
  343TIP3    H222521   0.723   5.809  15.514 -2.8200 -0.5965 -0.3974
  344TIP3   OH222522   0.821   0.960   1.136 -0.0256 -0.4426 -0.0413
  344TIP3    H122523   0.847   0.916   1.217  1.0939 -2.0008 -1.1905
  344TIP3    H222524   0.891   0.941   1.074 -1.8444 -1.1480 -2.0278
  345TIP3   OH222525   3.670   1.339   2.749 -0.4136  0.3432  0.0507
  345TIP3    H122526   3.603   1.356   2.683  0.4165 -0.9672 -1.1832
  345TIP3    H222527   3.706   1.254   2.725 -2.2762 -1.8932  4.0358
  346TIP3   OH222528   4.548   2.685   6.266 -0.1425  0.5912  0.0286
  346TIP3    H122529   4.466   2.646   6.234  0.0627 -0.7088  0.9705
  346TIP3    H222530   4.550   2.772   6.228 -1.8189  0.5347 -0.2656
  347TIP3   OH222531   6.294   0.612  11.169 -0.0051 -0.0626 -0.2492
  347TIP3    H122532   6.266   0.703  11.177  0.9034  0.4664 -2.4415
  347TIP3    H222533   6.389   0.616  11.164  0.0855 -1.2093  0.3532
  348TIP3   OH222534   2.470   3.893  16.247 -0.3255 -0.2769 -0.0263
  348TIP3    H122535   2.426   3.809  16.235 -0.4167 -0.5430  1.8405
  348TIP3    H222536   2.403   3.958  16.227 -0.7775 -0.6650  0.2059
  349TIP3   OH222537   6.080   6.729   0.025 -0.4301  0.8400 -0.2255
  349TIP3    H122538   6.088   6.780  -0.056 -1.4919 -0.4729 -1.2049
  349TIP3    H222539   6.169   6.703   0.046 -0.2409  0.2521 -1.6292
  350TIP3   OH222540   5.060   3.290  12.783  0.1821 -0.6837 -0.1535
  350TIP3    H122541   5.068   3.359  12.849  0.8499  0.3207 -1.2375
  350TIP3    H222542   4.977   3.247  12.804  0.1066 -0.0342  0.9996
  351TIP3   OH222543   2.568   1.147  16.455  0.1336 -0.7540  0.2767
  351TIP3    H122544   2.566   1.208  16.528 -0.5985  0.0845 -0.4295
  351TIP3    H222545   2.587   1.062  16.495 -1.0308 -0.4435  1.5430
  352TIP3   OH222546   4.683   0.645  16.441  0.2059 -0.2108 -0.2499
  352TIP3    H122547   4.762   0.597  16.465 -0.2390 -1.7137 -1.6154
  352TIP3    H222548   4.710   0.699  16.366  0.4962  1.1132  0.7662
  353TIP3   OH222549   2.631   1.191  12.500 -0.8417  0.2068 -0.2873
  353TIP3    H122550   2.694   1.240  12.447 -0.3085  1.4957  1.4615
  353TIP3    H222551   2.677   1.109  12.521  0.6318  1.4433  1.5999
  354TIP3   OH222552   1.747   6.479   5.365  0.1167  0.1969  0.2391
  354TIP3    H122553   1.762   6.439   5.451 -1.3983  0.2578  0.5656
  354TIP3    H222554   1.652   6.487   5.359  0.2894  2.8075 -0.2519
  355TIP3   OH222555   6.451   5.313  11.858  0.0312 -0.4405 -0.4242
  355TIP3    H122556   6.369   5.265  11.847  0.6696 -1.3531 -1.4793
  355TIP3    H222557   6.488   5.318  11.769  1.5868 -0.9126  0.1669
  356TIP3   OH222558   3.605   6.504  14.785  0.0560 -0.4679 -0.1718
  356TIP3    H122559   3.623   6.559  14.709  0.4099  0.0450  0.2796
  356TIP3    H222560   3.635   6.417  14.758 -0.0448 -0.3438 -0.7053
  357TIP3   OH222561   1.587   6.624   1.973 -0.0000 -0.2148 -0.0415
  357TIP3    H122562   1.671   6.616   1.928 -0.9536  0.9615 -2.2149
  357TIP3    H222563   1.606   6.677   2.050  1.1589  0.6145 -0.8587
  358TIP3   OH222564   4.962   1.335   3.213  0.0839  0.0267 -0.8970
  358TIP3    H122565   5.032   1.290   3.166  0.6143  0.8737 -0.9392
  358TIP3    H222566   4.917   1.387   3.146  0.4151  0.7061 -0.6072
  359TIP3   OH222567   3.239   4.421   2.064  0.2460  0.1217  0.1084
  359TIP3    H122568   3.320   4.387   2.100  1.0419  1.1098 -0.7016
  359TIP3    H222569   3.205   4.350   2.009  2.8469  1.1435 -3.0868
  360TIP3   OH222570   3.187   4.951  17.039 -0.1993  0.4839 -0.2884
  360TIP3    H122571   3.119   4.999  17.087  1.2969  1.9410  0.4904
  360TIP3    H222572   3.152   4.863  17.030 -2.5803  1.3857 -0.7169
  361TIP3   OH222573   3.659   4.677   4.442 -0.0658  0.4113 -0.6549
  361TIP3    H122574   3.727   4.628   4.488 -0.6187  0.1844 -0.0695
  361TIP3    H222575   3.705   4.754   4.408  0.2810  0.8391  0.6900
  362TIP3   OH222576   3.785   1.536   3.356 -0.1663  0.9298 -0.1071
  362TIP3    H122577   3.702   1.513   3.397 -1.6451 -0.3974 -3.5315
  362TIP3    H222578   3.851   1.500   3.416 -2.1165 -0.0724  1.5574
  363TIP3   OH222579   5.536   0.442  13.897  0.0109 -0.3578  0.4080
  363TIP3    H122580   5.479   0.507  13.854 -0.3003 -1.5094 -1.0150
  363TIP3    H222581   5.624   0.480  13.890 -0.4528  1.1843  2.1336
  364TIP3   OH222582   3.705   1.423  15.632  0.2087  0.3637 -0.4635
  364TIP3    H122583   3.724   1.345  15.683  2.5967  2.1729  1.6660
  364TIP3    H222584   3.625   1.401  15.583  0.0495 -2.8825  1.0059
  365TIP3   OH222585   4.258   4.203   5.969 -0.4317 -0.1157  0.1702
  365TIP3    H122586   4.204   4.168   6.040 -0.5204 -0.3240  0.0020
  365TIP3    H222587   4.277   4.127   5.913  0.1645 -0.0742  0.3097
  366TIP3   OH222588   0.287   5.881   3.750  0.0666 -0.5737  0.1463
  366TIP3    H122589   0.209   5.849   3.796 -0.9305  0.1454 -0.9940
  366TIP3    H222590   0.302   5.818   3.680 -1.5745  1.0152 -1.7607
  367TIP3   OH222591   1.217   5.705   0.542  0.6098  0.0308 -0.3043
  367TIP3    H122592   1.308   5.723   0.563  0.0600  1.7983  0.8043
  367TIP3    H222593   1.167   5.748   0.612 -1.0573 -2.1298 -0.0402
  368TIP3   OH222594   3.052   5.873   5.975 -0.3973  0.2299  0.5884
  368TIP3    H122595   3.079   5.816   6.047  0.9598 -0.4968 -0.4438
  368TIP3    H222596   2.957   5.875   5.981 -0.4464 -1.6079  1.0799
  369TIP3   OH222597   4.613   4.832   4.977  0.3435  1.1035 -0.2052
  369TIP3    H122598   4.678   4.761   4.982 -0.0629  0.6613 -1.0394
  369TIP3    H222599   4.529   4.787   4.968  0.0913  1.6917 -0.8630
  370TIP3   OH222600   5.988   0.668   4.474 -0.0004 -0.1978  0.2203
  370TIP3    H122601   6.040   0.598   4.514  0.1808 -1.2959 -1.8243
  370TIP3    H222602   5.903   0.661   4.518  0.3966 -0.8783  0.9159
  371TIP3   OH222603   4.903   4.832   4.687  0.2151  0.7295 -0.1277
  371TIP3    H122604   4.965   4.765   4.657 -1.4151 -0.1284 -1.8138
  371TIP3    H222605   4.917   4.837   4.782  0.7066 -1.7010  0.0059
  372TIP3   OH222606   3.488   4.219   4.593 -0.0399  0.0022 -0.1832
  372TIP3    H122607   3.504   4.227   4.499  0.1401 -0.0721 -0.1602
  372TIP3    H222608   3.432   4.293   4.614  2.2199  1.7257  0.1590
  373TIP3   OH222609   5.784   1.858   3.603 -0.2621  0.2522  0.2578
  373TIP3    H122610   5.825   1.870   3.517 -2.7097 -2.9937 -1.6347
  373TIP3    H222611   5.692   1.881   3.589 -0.9680 -1.5087  1.5755
  374TIP3   OH222612   2.311   1.350  13.973 -0.7178 -0.6537 -0.0757
  374TIP3    H122613   2.303   1.341  13.878  1.8247  2.0626 -0.7003
  374TIP3    H222614   2.238   1.407  13.997 -0.4751 -0.0508 -0.7054
  375TIP3   OH222615   5.797   2.599  16.425  0.0815  0.1939 -0.0959
  375TIP3    H122616   5.753   2.593  16.509 -0.2094 -1.1410 -0.3214
  375TIP3    H222617   5.841   2.514  16.415  0.7693  0.6307 -0.9351
  376TIP3   OH222618   5.308   0.721  15.223  0.5547 -0.4517 -0.0115
  376TIP3    H122619   5.270   0.676  15.147  0.1413 -1.4590  0.7737
  376TIP3    H222620   5.360   0.792  15.185 -1.4165  0.4687 -1.1605
  377TIP3   OH222621   0.906   1.296  14.626 -0.1098 -0.2133 -0.1503
  377TIP3    H122622   0.910   1.208  14.590  1.7025 -3.0671  5.6971
  377TIP3    H222623   0.987   1.338  14.599  0.0813 -1.2339 -1.2004
  378TIP3   OH222624   1.045   3.052   3.315 -0.2568 -0.5627 -0.1716
  378TIP3    H122625   1.056   3.109   3.391 -1.8883 -0.8707  0.3223
  378TIP3    H222626   1.076   2.966   3.345  0.2166 -0.4243 -0.2496
  379TIP3   OH222627   2.259   3.101  13.414 -0.1858 -0.6626  0.1033
  379TIP3    H122628   2.257   3.023  13.359 -0.5342 -0.6265  0.0680
  379TIP3    H222629   2.261   3.174  13.353  2.8419 -0.6505  0.0513
  380TIP3   OH222630   3.640   1.608   4.349 -0.4962  1.0033  0.0443
  380TIP3    H122631   3.728   1.603   4.312 -0.4638 -0.0238  0.2233
  380TIP3    H222632   3.631   1.527   4.399 -1.2153  1.5191  0.7695
  381TIP3   OH222633   0.525   6.647  15.982  0.2075  0.2012 -0.0736
  381TIP3    H122634   0.533   6.699  16.062 -0.5205  0.5465 -0.2165
  381TIP3    H222635   0.611   6.654  15.941  0.1626  1.2170 -0.0324
  382TIP3   OH222636   0.644   1.378  14.399 -0.4078  0.1026 -0.0851
  382TIP3    H122637   0.701   1.396  14.324 -0.0489 -1.2484 -0.1676
  382TIP3    H222638   0.691   1.311  14.449 -1.3160 -0.0764  0.5521
  383TIP3   OH222639   3.526   2.470  11.713  0.1908 -0.2441  0.3260
  383TIP3    H122640   3.516   2.511  11.627 -1.4254 -0.9165  0.1631
  383TIP3    H222641   3.475   2.524  11.772 -1.4046 -1.5645  0.2307
  384TIP3   OH222642   1.670   2.629  16.722  0.2750  0.1213  0.1670
  384TIP3    H122643   1.668   2.610  16.628 -0.1578 -2.2994  0.6277
  384TIP3    H222644   1.744   2.579  16.755  0.1368  0.5834  1.2208
  385TIP3   OH222645   3.633   1.048  11.276 -0.2852  0.0688  0.1849
  385TIP3    H122646   3.642   1.138  11.246  2.0350 -0.5454 -1.1673
  385TIP3    H222647   3.687   1.042  11.354 -0.1961 -0.2236  0.1048
  386TIP3   OH222648   2.558   1.428   4.680 -0.2131  0.2008  0.0526
  386TIP3    H122649   2.618   1.358   4.705 -0.2061 -0.0357 -0.6124
  386TIP3    H222650   2.558   1.488   4.755 -0.8709 -0.9390  0.9941
  387TIP3   OH222651   5.912   4.516   3.327 -0.1004 -0.0836  0.4384
  387TIP3    H122652   5.943   4.599   3.290 -1.1996  0.1267 -0.0374
  387TIP3    H222653   5.991   4.462   3.333  0.7966  1.2778  1.5742
  388TIP3   OH222654   3.691   4.525  17.355  0.7727  0.0559  0.0107
  388TIP3    H122655   3.773   4.479  17.373 -0.0813 -1.5745 -0.0595
  388TIP3    H222656   3.715   4.593  17.292  2.3000  0.5152  1.0379
  389TIP3   OH222657   0.983   1.258  10.476  0.1515  0.1935  0.0298
  389TIP3    H122658   1.017   1.296  10.395  0.5711 -2.5235 -1.1608
  389TIP3    H222659   1.060   1.224  10.521 -0.3740 -1.2957 -0.1224
  390TIP3   OH222660   2.235   3.501  11.639  0.6669  0.0391  0.5241
  390TIP3    H122661   2.279   3.423  11.675  1.6865  0.8195  1.0428
  390TIP3    H222662   2.305   3.548  11.594 -0.3796 -0.3758 -1.6475
  391TIP3   OH222663   4.497   1.226  12.830 -0.5606 -0.6805  0.3880
  391TIP3    H122664   4.546   1.233  12.912  2.1368  1.1222 -1.2179
  391TIP3    H222665   4.492   1.315  12.797 -0.2244 -1.5015 -2.0907
  392TIP3   OH222666   5.055   5.759  16.574  0.1220  0.5181 -0.5425
  392TIP3    H122667   4.974   5.771  16.525  1.7038  2.7567 -2.9226
  392TIP3    H222668   5.033   5.782  16.664 -2.4823 -1.9117 -0.4132
  393TIP3   OH222669   2.947   4.353  13.012 -0.4264  0.6807  1.1098
  393TIP3    H122670   2.997   4.273  13.021 -1.4540  0.1064  2.0272
  393TIP3    H222671   2.929   4.360  12.918  0.1463  0.1468  0.9549
  394TIP3   OH222672   0.328   3.444  16.496  0.2474  0.2444 -0.0188
  394TIP3    H122673   0.374   3.368  16.530 -0.4786 -0.2765 -0.1860
  394TIP3    H222674   0.315   3.426  16.403  0.3719  0.7249 -0.1337
  395TIP3   OH222675   4.032   5.822   3.047 -0.0370  0.4453  0.1961
  395TIP3    H122676   4.081   5.837   3.127 -1.6076  1.4295  1.0351
  395TIP3    H222677   3.964   5.759   3.072  0.5599 -0.6406 -0.8420
  396TIP3   OH222678   0.961   0.729  15.175  0.3374 -0.2828 -0.0379
  396TIP3    H122679   1.011   0.654  15.209  3.0335  0.9559 -0.9902
  396TIP3    H222680   0.900   0.751  15.245  0.1599 -2.7118  0.6759
  397TIP3   OH222681   5.249   5.951   2.864  0.5486  0.3474 -0.6772
  397TIP3    H122682   5.334   5.915   2.837  0.4039 -0.8150  0.3370
  397TIP3    H222683   5.185   5.893   2.824  0.2520  0.6795 -0.6862
  398TIP3   OH222684   1.676   0.491  13.575  0.2579 -0.2446 -0.1003
  398TIP3    H122685   1.618   0.551  13.622  0.2560 -1.0139  0.9178
  398TIP3    H222686   1.701   0.539  13.496  0.6643  1.3036  0.9143
  399TIP3   OH222687   4.899   0.530  11.334 -0.4927 -0.0623 -0.6327
  399TIP3    H122688   4.882   0.558  11.244 -0.1814 -1.2049 -1.0637
  399TIP3    H222689   4.834   0.577  11.387 -2.0165 -0.9097 -1.6928
  400TIP3   OH222690   6.239   0.215   2.723  0.3138  0.1491 -0.1515
  400TIP3    H122691   6.151   0.252   2.724 -0.4597 -1.5446 -0.5191
  400TIP3    H222692   6.225   0.121   2.707  2.1193 -0.3589  0.8957
  401TIP3   OH222693   5.594   6.455  14.668  0.1587  0.6129 -0.1500
  401TIP3    H122694   5.593   6.372  14.716  0.7776  0.7887  0.1772
  401TIP3    H222695   5.519   6.450  14.609  1.7662 -1.4532 -2.2499
  402TIP3   OH222696   6.453   2.999  16.417 -0.3468 -0.0659  0.1431
  402TIP3    H122697   6.462   2.919  16.366  0.1744  0.0832 -0.0095
  402TIP3    H222698   6.396   3.055  16.364  0.7551  0.3655 -0.6527
  403TIP3   OH222699   2.529   4.445   1.633 -0.2104 -0.3154 -0.5073
  403TIP3    H122700   2.538   4.480   1.544  0.5181 -3.2154 -1.7062
  403TIP3    H222701   2.448   4.393   1.630  0.1541 -0.9500  0.2905
  404TIP3   OH222702   3.698   5.265  16.997 -0.2244 -0.5812 -0.7221
  404TIP3    H122703   3.661   5.326  17.060  1.0169 -1.9661  1.4729
  404TIP3    H222704   3.758   5.318  16.945 -2.1770  0.8430 -1.6621
  405TIP3   OH222705   5.423   2.147  10.904 -0.4204 -0.2501  0.3061
  405TIP3    H122706   5.352   2.153  10.840  0.5496  0.5446 -0.7579
  405TIP3    H222707   5.502   2.171  10.854  0.8734 -2.7218  1.0024
  406TIP3   OH222708   3.464   2.116   5.168  0.0230 -0.3648  0.0257
  406TIP3    H122709   3.535   2.172   5.136 -0.7043  0.3487 -0.3587
  406TIP3    H222710   3.508   2.034   5.192  1.1401  0.4356  0.8347
  407TIP3   OH222711   0.548   2.887  16.896  0.2470  0.6472  0.1490
  407TIP3    H122712   0.471   2.942  16.883  0.0307  0.3815  0.2915
  407TIP3    H222713   0.514   2.809  16.941  0.4453  0.1100 -0.6210
  408TIP3   OH222714   4.854   5.163   3.841 -0.5757  0.6226 -0.0174
  408TIP3    H122715   4.812   5.078   3.829 -0.3673  0.6580 -1.1056
  408TIP3    H222716   4.927   5.146   3.901  0.6732 -0.3844 -1.7342
  409TIP3   OH222717   5.895   5.911   4.827 -0.8655  0.2157  1.0502
  409TIP3    H122718   5.982   5.887   4.860 -0.9371  0.1198  1.1713
  409TIP3    H222719   5.892   6.007   4.834 -0.2002  0.3709 -0.3818
  410TIP3   OH222720   1.868   4.655   1.579  0.2696  0.3142  0.5485
  410TIP3    H122721   1.892   4.738   1.539  0.8625 -0.5826 -1.0300
  410TIP3    H222722   1.779   4.669   1.611 -0.8500  0.6995 -2.3843
  411TIP3   OH222723   1.989   4.293  13.868  0.6328  0.4690  0.4210
  411TIP3    H122724   1.960   4.363  13.927  0.9637  0.6019  0.4299
  411TIP3    H222725   2.018   4.339  13.789  1.5372  0.4008  0.7059
  412TIP3   OH222726   3.262   4.964  12.360 -0.3441 -0.0176 -0.3019
  412TIP3    H122727   3.280   5.058  12.350 -0.4881  0.1352  0.8180
  412TIP3    H222728   3.198   4.946  12.290 -0.5739  0.7941 -0.3235
  413TIP3   OH222729   1.927   1.446  11.971 -0.3464  0.3643  0.3554
  413TIP3    H122730   1.900   1.534  11.944 -0.6884  0.3883  0.7730
  413TIP3    H222731   1.919   1.393  11.892  0.0229  0.7415  0.0586
  414TIP3   OH222732   5.163   3.677  15.062 -0.0192  0.2237  0.5617
  414TIP3    H122733   5.082   3.726  15.073 -1.2369 -1.1094 -1.6797
  414TIP3    H222734   5.178   3.676  14.968  2.5461  0.2669  0.8918
  415TIP3   OH222735   0.540   3.088   2.936 -0.0335  0.2120  0.1113
  415TIP3    H122736   0.497   3.070   2.853  0.4519  0.9990 -0.3163
  415TIP3    H222737   0.487   3.158   2.976  0.0482  0.2119  0.2214
  416TIP3   OH222738   5.141   0.453  11.417 -0.3095 -0.4288 -0.4122
  416TIP3    H122739   5.184   0.408  11.344 -0.4685  0.4245 -1.0489
  416TIP3    H222740   5.053   0.472  11.385 -0.3062  0.1562 -0.0871
  417TIP3   OH222741   0.153   4.426   2.239  0.1303  0.2416 -0.5285
  417TIP3    H122742   0.060   4.427   2.216 -0.0735  0.5272  0.2731
  417TIP3    H222743   0.197   4.467   2.165 -0.4334  0.5227 -0.7065
  418TIP3   OH222744   0.649   0.291  13.903  0.2368  0.1263  0.1708
  418TIP3    H122745   0.690   0.288  13.817  1.4728  0.2149  0.7360
  418TIP3    H222746   0.619   0.382  13.912 -2.0810 -0.4377 -1.1109
  419TIP3   OH222747   5.613   1.891  11.620  0.3159 -0.3891 -0.3198
  419TIP3    H122748   5.540   1.918  11.564  0.1654 -1.7610 -0.8201
  419TIP3    H222749   5.640   1.971  11.664  0.3451  0.7113 -2.2505
  420TIP3   OH222750   0.249   0.477   5.867 -0.0859  0.4577  0.3535
  420TIP3    H122751   0.300   0.401   5.893  1.8379  2.2538  2.2238
  420TIP3    H222752   0.170   0.474   5.921 -0.4437 -0.6177 -0.2099
  421TIP3   OH222753   3.328   4.701  14.218 -0.0886 -0.0870 -0.0935
  421TIP3    H122754   3.238   4.699  14.187 -0.6442  1.0695  1.2916
  421TIP3    H222755   3.375   4.641  14.161 -1.9876 -1.7316 -0.0163
  422TIP3   OH222756   4.217   2.448   3.520 -0.4965  0.2604 -0.5672
  422TIP3    H122757   4.283   2.461   3.588  0.4231 -0.1450 -1.3646
  422TIP3    H222758   4.133   2.464   3.564  0.1771  2.0856  0.1579
  423TIP3   OH222759   6.310   3.792  11.418 -0.4154  0.1065 -0.7832
  423TIP3    H122760   6.217   3.787  11.395 -0.3368 -0.3893 -0.9987
  423TIP3    H222761   6.355   3.795  11.333 -0.2270  0.2150 -0.6800
  424TIP3   OH222762   5.385   5.393  13.776 -0.1761 -0.6145  0.1046
  424TIP3    H122763   5.424   5.365  13.859  0.9182 -0.8926 -0.4779
  424TIP3    H222764   5.352   5.481  13.793  0.1510 -0.6182  0.8024
  425TIP3   OH222765   5.762   0.379  10.812 -0.3912 -0.0297  0.1710
  425TIP3    H122766   5.732   0.366  10.722 -0.7422  0.8374  0.1539
  425TIP3    H222767   5.686   0.415  10.858  0.1749  0.8009  0.4801
  426TIP3   OH222768   6.527   4.463   2.671 -0.1276 -0.6524  0.4150
  426TIP3    H122769   6.486   4.387   2.710 -0.3640 -0.0879  1.2984
  426TIP3    H222770   6.520   4.531   2.738 -0.0972  0.2003 -0.4226
  427TIP3   OH222771   2.489   5.484   4.207  0.2871 -0.0190  0.1551
  427TIP3    H122772   2.412   5.537   4.224  1.0662  0.5159  2.4328
  427TIP3    H222773   2.539   5.533   4.142 -0.3755  0.5809  0.0876
  428TIP3   OH222774   0.185   6.619   0.484  0.3742 -0.8360 -0.0491
  428TIP3    H122775   0.164   6.555   0.553 -0.3693  0.0875  0.6136
  428TIP3    H222776   0.140   6.586   0.406 -0.8945 -0.5894  0.5501
  429TIP3   OH222777   3.151   2.875  16.512  0.1838  0.2484 -0.3259
  429TIP3    H122778   3.055   2.881  16.519  0.1928  0.5147 -0.4231
  429TIP3    H222779   3.179   2.836  16.594  0.1196  1.5384  0.3336
  430TIP3   OH222780   1.531   5.543  15.742  0.1941  0.3062 -0.2411
  430TIP3    H122781   1.475   5.472  15.709  0.2573 -0.0042  0.3074
  430TIP3    H222782   1.619   5.506  15.742  0.0675 -0.0906  1.2747
  431TIP3   OH222783   2.500   6.467   5.152 -0.5596  0.1395  0.6395
  431TIP3    H122784   2.542   6.387   5.185  1.2690  1.2796  1.2318
  431TIP3    H222785   2.569   6.533   5.155 -1.5497  1.3604 -1.4556
  432TIP3   OH222786   4.350   2.968   3.028  0.3736 -0.1803 -0.3819
  432TIP3    H122787   4.307   2.888   3.058 -0.4604  1.2006  2.5097
  432TIP3    H222788   4.418   2.984   3.093 -1.1042  2.6933  0.6417
  433TIP3   OH222789   1.064   5.992  14.795  0.2264  0.5727  0.0139
  433TIP3    H122790   1.010   5.955  14.726 -0.5105 -3.5061  2.4815
  433TIP3    H222791   1.014   6.068  14.826 -0.9502  0.5939 -1.7967
  434TIP3   OH222792   3.777   4.457   5.605 -0.1402  0.3333  0.0616
  434TIP3    H122793   3.816   4.480   5.520 -0.7908 -1.7436 -0.8637
  434TIP3    H222794   3.726   4.534   5.630 -0.0579  0.9260 -1.5016
  435TIP3   OH222795   2.603   1.699   6.181  0.1666 -0.2120  0.0689
  435TIP3    H122796   2.671   1.725   6.119  1.1062 -1.3786  0.5684
  435TIP3    H222797   2.633   1.732   6.266 -0.9306  1.0634 -0.0175
  436TIP3   OH222798   6.103   6.349   4.610  0.7957 -0.4596 -0.2554
  436TIP3    H122799   6.088   6.270   4.557 -2.6791  0.2718 -0.5588
  436TIP3    H222800   6.181   6.389   4.571  2.2078 -3.2740 -0.5780
  437TIP3   OH222801   6.313   3.374  13.943  0.1859 -0.1103  0.0580
  437TIP3    H122802   6.388   3.430  13.959 -1.4418  2.1969  0.0941
  437TIP3    H222803   6.347   3.302  13.889  2.4178  0.7017  0.2943
  438TIP3   OH222804   3.099   0.580  13.568  0.1567 -0.2733 -0.0635
  438TIP3    H122805   3.023   0.620  13.610  0.7636  1.1340 -0.2451
  438TIP3    H222806   3.063   0.529  13.496 -0.5513  1.4438 -0.9613
  439TIP3   OH222807   1.905   1.509  10.920 -0.1445 -0.3482 -0.0838
  439TIP3    H122808   1.972   1.559  10.874 -0.3922  0.5832  0.5320
  439TIP3    H222809   1.897   1.427  10.871  0.4158  0.1343 -0.9932
  440TIP3   OH222810   6.460   5.722   2.114 -0.2642  0.8224  0.2160
  440TIP3    H122811   6.506   5.709   2.031  2.9579  1.6780  1.7006
  440TIP3    H222812   6.401   5.796   2.097  1.0166  1.6113 -1.1077
  441TIP3   OH222813   0.651   3.955   5.646  0.2196  0.0574  0.1410
  441TIP3    H122814   0.735   3.911   5.631 -0.1100 -0.3392 -0.6023
  441TIP3    H222815   0.587   3.898   5.605 -0.3182  0.7860 -0.0420
  442TIP3   OH222816   4.239   5.294  10.782 -0.1196  0.3186 -0.2635
  442TIP3    H122817   4.263   5.222  10.724  0.4506  0.4400 -0.1844
  442TIP3    H222818   4.145   5.306  10.767 -0.1021 -0.0485 -0.7123
  443TIP3   OH222819   0.107   3.334  17.035 -0.1483 -0.5986 -0.0891
  443TIP3    H122820   0.027   3.384  17.025  0.5855  0.7128  0.2586
  443TIP3    H222821   0.125   3.337  17.129  0.6934 -0.2358 -0.2537
  444TIP3   OH222822   3.762   3.166  11.686 -0.5021 -0.3462 -0.5559
  444TIP3    H122823   3.776   3.247  11.637  2.4954 -0.4453 -0.0672
  444TIP3    H222824   3.759   3.098  11.618 -0.6357 -0.0770 -0.8260
  445TIP3   OH222825   3.286   6.658   5.449  0.1704  0.0012 -0.4269
  445TIP3    H122826   3.285   6.731   5.512 -1.0902  1.3600 -1.9015
  445TIP3    H222827   3.281   6.580   5.503  0.1559  1.0662  1.1982
  446TIP3   OH222828   4.217   6.141   4.662 -0.0006  0.1573 -0.2655
  446TIP3    H122829   4.283   6.095   4.714 -0.6715  0.4043  0.8407
  446TIP3    H222830   4.213   6.229   4.700 -0.5672  0.3193 -0.6846
  447TIP3   OH222831   5.773   0.283   5.795 -0.2111 -0.5277  0.1829
  447TIP3    H122832   5.692   0.285   5.745  0.2962  1.0154 -0.6590
  447TIP3    H222833   5.763   0.353   5.859 -0.1705 -1.3910  1.1637
  448TIP3   OH222834   3.823   5.250   0.693  0.8780  0.0911 -0.0172
  448TIP3    H122835   3.877   5.322   0.725 -0.2168  0.7729  0.3652
  448TIP3    H222836   3.885   5.189   0.652  2.1351  0.0454  1.8239
  449TIP3   OH222837   0.536   0.019  15.266  0.4406 -0.5685  0.0108
  449TIP3    H122838   0.519   0.109  15.293  1.2313 -0.4764  0.2270
  449TIP3    H222839   0.546  -0.029  15.349  0.1846 -0.8227 -0.1033
  450TIP3   OH222840   3.882   0.025  16.858  1.0774 -0.4648 -0.1831
  450TIP3    H122841   3.927   0.105  16.831 -0.3441  0.1557 -0.8511
  450TIP3    H222842   3.804   0.021  16.802  0.5557 -1.7467  0.5749
  451TIP3   OH222843   6.527   1.790  14.218  0.6244  0.4133 -0.0401
  451TIP3    H122844   6.433   1.801  14.200  0.1707  0.9728  2.3818
  451TIP3    H222845   6.566   1.873  14.190  0.5231 -0.0136 -1.5429
  452TIP3   OH222846   4.917   5.920  11.720 -0.3395  0.1237 -0.0263
  452TIP3    H122847   4.854   5.850  11.704 -0.6085 -0.2839  2.4859
  452TIP3    H222848   4.998   5.889  11.680 -1.3500  0.1091 -2.2036
  453TIP3   OH222849   1.767   0.425  17.059 -0.0987  0.5468  0.0595
  453TIP3    H122850   1.721   0.341  17.066  0.9924 -0.1409 -0.6184
  453TIP3    H222851   1.776   0.439  16.964 -1.2795  2.0299  0.1259
  454TIP3   OH222852   6.114   4.504   1.153 -0.4461 -0.3009  0.6888
  454TIP3    H122853   6.076   4.580   1.198 -0.9805  2.6216 -4.0342
  454TIP3    H222854   6.040   4.466   1.104  0.3025 -2.5744  1.1983
  455TIP3   OH222855   4.557   3.063   5.351 -0.0720  0.3311  0.6188
  455TIP3    H122856   4.637   3.054   5.403 -0.4939  0.8095  1.3750
  455TIP3    H222857   4.574   3.136   5.292  1.3037 -1.6851 -1.6590
  456TIP3   OH222858   2.483   0.715  12.398  0.0602  0.3719 -0.1164
  456TIP3    H122859   2.418   0.683  12.335 -0.6329  1.8812 -0.1996
  456TIP3    H222860   2.522   0.791  12.356  2.1929 -0.7111 -0.2170
  457TIP3   OH222861   5.849   3.934   0.230  0.5080  0.1709 -0.0015
  457TIP3    H122862   5.903   4.004   0.192 -2.4451  1.4212 -2.3686
  457TIP3    H222863   5.827   3.965   0.318  0.7554  1.3794 -0.3490
  458TIP3   OH222864   3.581   0.612  13.701  0.5861 -0.1024 -0.7794
  458TIP3    H122865   3.658   0.577  13.656 -0.1314 -0.7058 -1.5816
  458TIP3    H222866   3.508   0.561  13.665 -0.1564  0.2788  0.1545
  459TIP3   OH222867   0.198   2.370  11.766  0.1416 -0.3187  0.3811
  459TIP3    H122868   0.263   2.397  11.701 -1.7484 -1.9461 -2.4325
  459TIP3    H222869   0.157   2.451  11.794 -0.2469  0.4126 -2.0111
  460TIP3   OH222870   0.636   1.641  13.215 -0.3047  0.0662  0.1906
  460TIP3    H122871   0.575   1.704  13.253 -1.8205 -0.1959 -1.6779
  460TIP3    H222872   0.715   1.691  13.197 -0.6677  0.8815  0.7910
  461TIP3   OH222873   4.745   2.256  11.478  0.4276 -0.3065 -0.6689
  461TIP3    H122874   4.696   2.328  11.518  1.1370  0.5335 -1.2686
  461TIP3    H222875   4.708   2.248  11.391  1.0275  0.0261 -0.9619
  462TIP3   OH222876   3.532   0.469  16.759  0.2444 -0.0623 -0.0688
  462TIP3    H122877   3.450   0.421  16.751 -0.0532  0.5517 -0.7863
  462TIP3    H222878   3.508   0.561  16.750  0.9606  0.1514  0.1246
  463TIP3   OH222879   6.243   2.424  11.897 -0.5422 -0.2613  0.3123
  463TIP3    H122880   6.327   2.465  11.881 -0.7709 -0.4390 -1.7006
  463TIP3    H222881   6.203   2.476  11.966  0.6455  0.6682  0.3289
  464TIP3   OH222882   0.109   4.418  15.951 -0.0234 -0.3196  0.3105
  464TIP3    H122883   0.171   4.421  16.024 -0.0176 -1.9183  0.4075
  464TIP3    H222884   0.075   4.329  15.952 -1.5417  0.2160 -0.4036
  465TIP3   OH222885   1.354   2.049  16.959  0.4863  0.4973 -0.6903
  465TIP3    H122886   1.434   2.102  16.959  0.0814  1.1261  0.0998
  465TIP3    H222887   1.362   1.993  17.036  0.1318  0.6087 -0.5721
  466TIP3   OH222888   4.663   5.715   0.024  0.2512  0.6763 -0.1524
  466TIP3    H122889   4.665   5.758  -0.061 -1.2039 -1.2982 -1.2767
  466TIP3    H222890   4.591   5.652   0.017  0.6486 -0.1460  2.2533
  467TIP3   OH222891   4.335   1.166  10.314  0.1191 -0.3170 -0.1039
  467TIP3    H122892   4.334   1.179  10.408  1.5026 -1.3895  0.0815
  467TIP3    H222893   4.243   1.176  10.287 -0.4105 -0.8501  1.4551
  468TIP3   OH222894   3.109   2.464   0.141 -0.1548 -0.2207  0.0310
  468TIP3    H122895   3.192   2.462   0.093  0.1601 -0.6084  0.5699
  468TIP3    H222896   3.046   2.501   0.080  0.3665 -0.1500 -0.4702
  469TIP3   OH222897   0.035   5.693   3.491 -0.4429  0.0458 -0.4862
  469TIP3    H122898   0.125   5.681   3.521 -0.0732 -1.6890 -2.1045
  469TIP3    H222899   0.004   5.769   3.539  0.8589 -1.1023  2.3928
  470TIP3   OH222900   3.283   1.615   6.671 -0.5144 -0.6301 -0.1378
  470TIP3    H122901   3.372   1.616   6.705 -0.8980 -0.2174  0.9191
  470TIP3    H222902   3.293   1.621   6.576  0.5865 -1.0854 -0.0644
  471TIP3   OH222903   0.296   5.633   3.604 -0.0238 -0.3443  0.5950
  471TIP3    H122904   0.330   5.575   3.535 -0.4915  0.4981 -0.3780
  471TIP3    H222905   0.366   5.635   3.670  1.3868  0.4874 -0.8434
  472TIP3   OH222906   2.464   0.322  17.219 -0.4491 -0.0737  0.5039
  472TIP3    H122907   2.369   0.324  17.209 -0.3384  3.4107 -1.0816
  472TIP3    H222908   2.496   0.280  17.138 -0.6051  1.0871 -0.1823
  473TIP3   OH222909   1.944   3.786  16.063 -0.0837 -0.7060 -0.2908
  473TIP3    H122910   1.897   3.816  15.985  1.3170  0.6242 -0.6709
  473TIP3    H222911   2.029   3.756  16.029  0.7842  0.4690  0.7579
  474TIP3   OH222912   2.218   5.431   3.319 -0.4328 -0.5362  0.0081
  474TIP3    H122913   2.279   5.357   3.319  0.0904 -0.2568  3.2669
  474TIP3    H222914   2.199   5.446   3.226  2.6495 -2.0798 -1.0193
  475TIP3   OH222915   5.235   3.736  12.710  0.0747  0.4417  0.2652
  475TIP3    H122916   5.239   3.656  12.761 -2.5458  0.6777  0.9941
  475TIP3    H222917   5.185   3.713  12.632 -0.4726  1.2763  0.3503
  476TIP3   OH222918   2.139   1.838   1.461 -0.3996  0.2569 -0.5966
  476TIP3    H122919   2.114   1.793   1.542 -2.1694  2.1339  0.0138
  476TIP3    H222920   2.233   1.823   1.453 -0.3990 -1.0239  1.1320
  477TIP3   OH222921   0.652   4.708   2.640  0.0265  0.4960 -0.1747
  477TIP3    H122922   0.586   4.650   2.601 -0.3209 -0.7494  2.0798
  477TIP3    H222923   0.602   4.765   2.698  0.6686  1.2980 -0.3972
  478TIP3   OH222924   1.032   3.700  15.717  0.3896  0.5795 -0.3642
  478TIP3    H122925   0.959   3.729  15.662  0.2896  0.5237 -0.2627
  478TIP3    H222926   0.995   3.628  15.768  0.5707  0.4250 -0.4514
  479TIP3   OH222927   5.789   6.640  15.553 -0.5846  0.1759 -0.0126
  479TIP3    H122928   5.835   6.720  15.527 -1.6763  0.2705 -1.8709
  479TIP3    H222929   5.839   6.570  15.511 -1.8395  0.2559 -1.7735
  480TIP3   OH222930   1.397   3.320   0.282  0.9816  0.0670  0.0386
  480TIP3    H122931   1.422   3.337   0.373  1.4894  0.2779 -0.1371
  480TIP3    H222932   1.393   3.225   0.275 -0.4541  0.0558  0.6501
  481TIP3   OH222933   6.280   6.534  12.808 -0.1173  0.2718  0.1404
  481TIP3    H122934   6.327   6.547  12.890 -0.1899 -0.2214  0.2623
  481TIP3    H222935   6.268   6.440  12.802  0.3738  0.2593 -0.7154
  482TIP3   OH222936   1.322   0.460  17.057  0.1275 -0.2070 -0.6203
  482TIP3    H122937   1.400   0.483  17.108  0.5038 -2.1379 -0.2654
  482TIP3    H222938   1.254   0.448  17.122 -0.5422  1.5107 -0.9324
  483TIP3   OH222939   3.709   0.733  11.938 -0.7041 -0.8878 -0.1430
  483TIP3    H122940   3.710   0.730  12.034 -1.7869  1.0963 -0.0368
  483TIP3    H222941   3.802   0.739  11.913 -0.3073 -2.8040  0.6622
  484TIP3   OH222942   5.217   2.042   4.544 -0.6104 -0.2193  0.5899
  484TIP3    H122943   5.172   2.094   4.478  0.8751 -0.9918 -1.1051
  484TIP3    H222944   5.186   2.077   4.627 -1.2846  1.9021 -0.4886
  485TIP3   OH222945   0.203   0.421  17.246  0.2792  0.5738 -0.7258
  485TIP3    H122946   0.162   0.491  17.195 -0.2200  0.6056 -0.2909
  485TIP3    H222947   0.134   0.389  17.304  0.6690  0.1288 -0.4906
  486TIP3   OH222948   2.460   2.668   1.015 -0.0808 -0.0972 -0.1566
  486TIP3    H122949   2.390   2.616   0.975  1.1740 -1.8140 -0.2314
  486TIP3    H222950   2.414   2.743   1.054 -1.9469 -1.1183 -0.2428
  487TIP3   OH222951   0.312   2.974  16.521  0.7388  0.2483 -0.0576
  487TIP3    H122952   0.266   2.981  16.438 -0.2294  0.4730  0.4845
  487TIP3    H222953   0.340   2.882  16.525  2.8573  0.7441 -1.6714
  488TIP3   OH222954   3.355   6.562  12.480  0.1393  0.1234  0.1515
  488TIP3    H122955   3.375   6.574  12.387 -0.6863  1.2868  0.0961
  488TIP3    H222956   3.419   6.497  12.510  0.4933 -0.1901 -1.1939
  489TIP3   OH222957   1.129   6.241  11.406  0.2995 -0.3008 -0.1783
  489TIP3    H122958   1.133   6.312  11.342  1.7239 -1.0425 -0.9881
  489TIP3    H222959   1.126   6.284  11.491 -0.1488  0.7089 -0.6901
  490TIP3   OH222960   0.771   5.066  11.723 -0.2458  0.0966  0.8221
  490TIP3    H122961   0.701   5.023  11.773 -0.7747 -1.3890 -1.0635
  490TIP3    H222962   0.830   5.101  11.789 -1.8039 -0.2501  2.4745
  491TIP3   OH222963   3.301   3.570  12.029 -1.2329  0.3041 -0.1987
  491TIP3    H122964   3.328   3.644  12.083  0.4318  0.8348 -1.6569
  491TIP3    H222965   3.248   3.609  11.959  0.9282  0.4531 -1.8708
  492TIP3   OH222966   4.264   3.139   4.157  0.0479 -0.2237 -0.2586
  492TIP3    H122967   4.230   3.147   4.246 -1.2028 -1.2383 -0.6194
  492TIP3    H222968   4.356   3.115   4.168 -0.2002 -0.7404  0.7650
  493TIP3   OH222969   4.206   0.454  14.223  0.5255 -0.4665  0.3397
  493TIP3    H122970   4.253   0.375  14.199  1.0706  0.1473 -0.6853
  493TIP3    H222971   4.271   0.524  14.215 -0.3248  0.2801 -0.2613
  494TIP3   OH222972   3.641   6.213  16.579  0.1575 -0.0249  0.1907
  494TIP3    H122973   3.721   6.233  16.532 -0.7758  0.4072 -1.2902
  494TIP3    H222974   3.586   6.167  16.515 -0.8692 -0.1179  1.0928
  495TIP3   OH222975   2.443   1.148   6.029 -0.1192 -0.1092 -0.5133
  495TIP3    H122976   2.427   1.057   6.007  0.1662 -0.2797 -0.0275
  495TIP3    H222977   2.536   1.162   6.010 -0.0370 -0.0669 -0.0855
  496TIP3   OH222978   1.562   2.938   3.520  0.4158  0.6167  0.4606
  496TIP3    H122979   1.491   2.929   3.584  1.9608  3.1934  2.8025
  496TIP3    H222980   1.546   3.022   3.478  0.1507 -0.4594 -1.7039
  497TIP3   OH222981   5.990   6.451  16.528  0.4198  0.2542 -0.1185
  497TIP3    H122982   6.035   6.476  16.447  0.2273  0.8864 -0.0426
  497TIP3    H222983   6.031   6.506  16.595 -0.5958  1.0041 -0.0837
  498TIP3   OH222984   1.649   6.020   3.461  0.4982  0.1879 -0.0269
  498TIP3    H122985   1.711   6.035   3.389  3.0967 -1.0046  1.7851
  498TIP3    H222986   1.628   6.108   3.493 -0.0581  0.6907 -1.6685
  499TIP3   OH222987   6.485   4.346   1.068  0.4853 -0.3091  0.6446
  499TIP3    H122988   6.562   4.337   1.125 -0.0557  0.1122  1.4629
  499TIP3    H222989   6.417   4.296   1.113 -0.1697  0.7002  0.7797
  500TIP3   OH222990   6.396   5.327   3.707  0.1394  0.4192  0.5159
  500TIP3    H122991   6.489   5.315   3.693 -0.0249 -1.4428  0.7458
  500TIP3    H222992   6.360   5.349   3.621  0.5739 -0.5253  0.0785
  501TIP3   OH222993   3.933   5.635   5.554  0.1589 -0.4099 -0.2596
  501TIP3    H122994   4.018   5.652   5.596 -0.3292  2.2533 -0.1293
  501TIP3    H222995   3.906   5.721   5.522 -1.3230 -1.6623 -2.6153
  502TIP3   OH222996   4.973   2.355   3.368  0.5674 -0.3853  0.6815
  502TIP3    H122997   4.935   2.439   3.394 -1.2084 -0.1547 -2.2737
  502TIP3    H222998   4.901   2.292   3.379  0.6848 -0.7891 -0.7089
  503TIP3   OH222999   3.169   0.507   6.198  0.2780  0.0378  0.3908
  503TIP3    H123000   3.200   0.502   6.288  0.4885 -0.9018  0.2690
  503TIP3    H223001   3.139   0.419   6.177 -0.4610  0.4153 -0.2194
  504TIP3   OH223002   6.235   5.565   3.878 -0.0506  0.4627  0.0364
  504TIP3    H123003   6.254   5.657   3.862  1.1903  0.5021  1.4622
  504TIP3    H223004   6.300   5.538   3.944 -1.4750 -0.9730  0.9342
  505TIP3   OH223005   5.445   0.464   2.651 -0.3952 -0.1722 -0.1606
  505TIP3    H123006   5.497   0.512   2.716  0.2140 -0.7557 -0.2037
  505TIP3    H223007   5.402   0.532   2.600  0.8015  0.3573 -0.5007
  506TIP3   OH223008   5.808   2.189   2.664 -0.3310  0.7518 -0.8942
  506TIP3    H123009   5.859   2.126   2.715 -1.3765  1.6685  1.4097
  506TIP3    H223010   5.847   2.185   2.577  0.6334 -1.9384 -0.4583
  507TIP3   OH223011   2.508   5.128  12.680 -0.5339 -0.1859  0.5841
  507TIP3    H123012   2.471   5.215  12.699 -1.9385 -0.3791 -1.0344
  507TIP3    H223013   2.594   5.129  12.722 -1.4969  1.0679  2.7361
  508TIP3   OH223014   5.101   3.258  13.374 -0.1589 -0.5506 -0.1188
  508TIP3    H123015   5.027   3.215  13.417 -0.0595  0.7284  1.4216
  508TIP3    H223016   5.098   3.348  13.405  0.2344  0.3588 -2.4581
  509TIP3   OH223017   0.258   1.005   0.113 -0.3163  0.1239  0.8302
  509TIP3    H123018   0.299   0.993   0.199 -0.3785  0.8580  0.9695
  509TIP3    H223019   0.324   0.977   0.051 -0.1585 -0.1325  1.1097
  510TIP3   OH223020   4.102   4.108   3.806 -0.1430  0.7976 -0.6220
  510TIP3    H123021   4.130   4.017   3.794 -0.3139  0.6858 -0.2005
  510TIP3    H223022   4.079   4.138   3.718 -0.0443  0.4455 -0.7691
  511TIP3   OH223023   4.142   4.040   1.063  0.3336 -0.2059  0.8317
  511TIP3    H123024   4.059   3.995   1.073  0.9240 -1.9488 -1.1837
  511TIP3    H223025   4.119   4.125   1.025 -0.5419 -0.8320 -0.1048
  512TIP3   OH223026   4.528   3.912  13.082 -0.5158 -0.1683  0.3813
  512TIP3    H123027   4.438   3.886  13.097 -0.9773  1.1667  0.1133
  512TIP3    H223028   4.542   3.987  13.140 -0.1320  0.6877 -0.7728
  513TIP3   OH223029   0.469   0.086   0.597 -0.0711 -0.5642 -0.8902
  513TIP3    H123030   0.496  -0.003   0.574  2.1183 -0.2928  0.2849
  513TIP3    H223031   0.379   0.077   0.627 -0.7797 -1.9191 -3.2274
  514TIP3   OH223032   3.976   4.160  13.607 -0.6674  0.1915  0.2018
  514TIP3    H123033   3.962   4.208  13.688 -2.1302 -0.0821  0.1314
  514TIP3    H223034   3.888   4.144  13.572 -0.1618 -1.3368 -0.4731
  515TIP3   OH223035   5.954   3.046  11.169  0.1376 -0.7622 -0.1817
  515TIP3    H123036   5.860   3.043  11.151  0.5337  1.4539 -3.5854
  515TIP3    H223037   5.994   3.001  11.095  1.8234 -2.3111  1.5708
  516TIP3   OH223038   4.757   4.288  17.329 -0.2195  0.0469  0.2566
  516TIP3    H123039   4.742   4.318  17.239  2.4849 -1.9061 -0.9918
  516TIP3    H223040   4.674   4.249  17.356 -1.3020  1.3151 -1.0735
  517TIP3   OH223041   3.426   5.010  15.251 -0.0283 -0.0930  0.1625
  517TIP3    H123042   3.340   4.969  15.263 -0.2773  0.3048 -0.2227
  517TIP3    H223043   3.470   4.953  15.188 -0.5940  0.5268 -0.8208
  518TIP3   OH223044   4.527   4.368   3.508 -0.3529  0.5453 -0.1356
  518TIP3    H123045   4.456   4.413   3.463 -0.5004  0.0536 -0.4052
  518TIP3    H223046   4.553   4.427   3.579 -1.6378  0.3430  0.5398
  519TIP3   OH223047   2.017   2.427   2.339 -0.3807 -0.4034  0.1065
  519TIP3    H123048   1.925   2.400   2.350 -0.3581  0.1408  2.1339
  519TIP3    H223049   2.064   2.379   2.407  0.2984  1.6859  1.1973
  520TIP3   OH223050   3.284   5.309  13.884 -0.5881 -0.5375 -0.0263
  520TIP3    H123051   3.347   5.264  13.941 -0.7915 -0.2582  0.4295
  520TIP3    H223052   3.201   5.266  13.903 -0.2138 -2.5469 -2.3535
  521TIP3   OH223053   4.923   1.824  12.024  0.3375  0.4899 -0.2934
  521TIP3    H123054   4.950   1.805  11.934  0.9044  0.6962 -0.1742
  521TIP3    H223055   4.945   1.916  12.037 -0.2634  0.6118 -0.1241
  522TIP3   OH223056   0.151   2.395  13.462 -0.2572 -0.5443  0.1702
  522TIP3    H123057   0.208   2.367  13.391 -1.0101 -1.3102 -0.1439
  522TIP3    H223058   0.173   2.338  13.535  0.8789  0.5787  0.7396
  523TIP3   OH223059   0.364   2.917   5.322 -0.4183  0.4890  0.2955
  523TIP3    H123060   0.402   2.894   5.406 -1.2283  1.6232  1.0067
  523TIP3    H223061   0.382   3.010   5.312 -1.8681  0.7792  0.0766
  524TIP3   OH223062   2.230   0.250  13.720  0.6155  0.6648  0.1126
  524TIP3    H123063   2.165   0.243  13.790  2.9610  1.4156  2.5284
  524TIP3    H223064   2.241   0.344  13.706  0.1724  0.5257 -1.3316
  525TIP3   OH223065   2.960   4.492   0.249 -0.1247 -0.4883  0.1936
  525TIP3    H123066   2.966   4.435   0.172  1.0370 -1.5511  1.0276
  525TIP3    H223067   2.866   4.496   0.269 -0.5776  0.7490 -1.9205
  526TIP3   OH223068   1.386   0.490   1.888  1.0915 -0.5239  0.0558
  526TIP3    H123069   1.313   0.447   1.932  2.2755 -1.8373  0.8135
  526TIP3    H223070   1.424   0.422   1.832  1.4181  0.2858 -0.7299
  527TIP3   OH223071   4.589   5.458  12.783 -0.1886  0.5721 -0.1043
  527TIP3    H123072   4.643   5.423  12.712  0.2801  0.6939  0.1882
  527TIP3    H223073   4.645   5.453  12.861 -0.4847  1.0014  0.1403
  528TIP3   OH223074   0.268   3.709  12.945  0.0109 -0.4263  0.1543
  528TIP3    H123075   0.350   3.745  12.912 -0.0068 -0.5154  0.0125
  528TIP3    H223076   0.271   3.616  12.921  0.2186 -0.6000  0.8372
  529TIP3   OH223077   2.593   1.709  15.958 -0.0437 -0.1359  0.2429
  529TIP3    H123078   2.553   1.678  16.039 -0.3213  0.1065  0.2004
  529TIP3    H223079   2.590   1.804  15.965  0.3710 -0.1169  0.1628
  530TIP3   OH223080   0.349   2.390   6.341  0.6775 -0.3220  0.2747
  530TIP3    H123081   0.273   2.417   6.392  0.8992 -0.7570  0.8444
  530TIP3    H223082   0.323   2.305   6.304  0.1066  0.4664 -1.2394
  531TIP3   OH223083   1.094   5.945  13.043 -0.1496  0.2920 -0.4261
  531TIP3    H123084   1.040   5.891  13.101 -1.7920  1.5065 -0.7740
  531TIP3    H223085   1.161   5.884  13.011  0.9273 -0.4311  2.7589
  532TIP3   OH223086   4.857   3.658   2.030  0.4252  0.4826  0.6246
  532TIP3    H123087   4.773   3.640   1.987  0.3318  0.8326  0.6550
  532TIP3    H223088   4.872   3.752   2.015  1.6807  0.0848 -0.8971
  533TIP3   OH223089   3.253   6.461  17.256  0.4477  0.0925 -0.4204
  533TIP3    H123090   3.296   6.472  17.341  1.0397 -0.0523 -0.6999
  533TIP3    H223091   3.159   6.455  17.277  0.4592  1.4987  0.0975
  534TIP3   OH223092   2.846   5.542  15.778 -0.1925 -0.2494  0.0170
  534TIP3    H123093   2.912   5.587  15.726  0.4264 -0.8344  0.2901
  534TIP3    H223094   2.872   5.450  15.777 -0.0265 -0.2482  1.5361
  535TIP3   OH223095   4.372   5.943  11.855  0.1587 -0.2723 -0.0073
  535TIP3    H123096   4.462   5.912  11.860 -0.1605 -1.3307 -0.6426
  535TIP3    H223097   4.372   6.024  11.907  1.6383  0.1488 -0.6115
  536TIP3   OH223098   6.499   2.083  13.271  0.4771 -0.4280  0.3264
  536TIP3    H123099   6.513   1.988  13.276  1.3547 -0.3982 -1.0255
  536TIP3    H223100   6.409   2.096  13.303  0.0936 -1.7957 -0.1202
  537TIP3   OH223101   5.498   4.404  10.631 -0.2941  0.0516 -0.3987
  537TIP3    H123102   5.457   4.349  10.565 -3.4170  0.0122  1.3865
  537TIP3    H223103   5.525   4.483  10.583 -0.7001 -0.7542 -2.0148
  538TIP3   OH223104   0.289   1.599   4.957 -0.5366  0.4367 -0.7430
  538TIP3    H123105   0.325   1.605   5.046 -1.5211  0.2015 -0.3140
  538TIP3    H223106   0.352   1.545   4.909  0.0753  0.6748 -0.2291
  539TIP3   OH223107   1.030   2.695  11.347 -0.1052  0.0210  0.0130
  539TIP3    H123108   1.000   2.626  11.288  1.3475 -0.5234 -0.1326
  539TIP3    H223109   0.979   2.682  11.427  0.1585 -1.2508 -0.0020
  540TIP3   OH223110   3.536   6.389  12.583  0.0858  0.3601  0.2953
  540TIP3    H123111   3.567   6.328  12.650 -0.4136  1.6699  1.8094
  540TIP3    H223112   3.599   6.381  12.512  0.4770 -1.3062  0.7781
  541TIP3   OH223113   1.080   0.648   2.903 -0.0339 -0.5023 -0.1980
  541TIP3    H123114   1.096   0.735   2.867 -1.7748  0.2830  0.8256
  541TIP3    H223115   1.065   0.663   2.996 -0.0269 -1.9514  0.0578
  542TIP3   OH223116   5.619   5.828  11.686  0.0281  0.0618  0.0344
  542TIP3    H123117   5.695   5.772  11.697  1.1944  1.7434  1.0463
  542TIP3    H223118   5.548   5.781  11.729  0.5883 -1.2950 -0.4715
  543TIP3   OH223119   6.228   0.439   6.442 -0.3086  0.0416 -0.7055
  543TIP3    H123120   6.167   0.440   6.515 -1.1523 -0.8886 -1.3758
  543TIP3    H223121   6.209   0.519   6.393 -1.2800 -0.4354 -1.1304
  544TIP3   OH223122   6.523   1.012   5.918  0.4131 -0.5604 -0.1342
  544TIP3    H123123   6.522   0.918   5.933  2.2159 -0.5357  0.3126
  544TIP3    H223124   6.556   1.049   6.000 -0.4359  0.4850 -0.2428
  545TIP3   OH223125   2.515   2.827  11.728 -0.1708 -0.6408 -0.0675
  545TIP3    H123126   2.467   2.848  11.648 -1.0637 -0.2376  0.5584
  545TIP3    H223127   2.447   2.812  11.794  0.4714 -3.2725  0.0986
  546TIP3   OH223128   3.068   1.718  15.939  0.1759 -0.4589  0.2809
  546TIP3    H123129   3.072   1.771  15.859 -0.0895  1.4763  1.4894
  546TIP3    H223130   3.154   1.730  15.980 -0.2364 -0.1181  1.0724
  547TIP3   OH223131   5.143   1.015  12.073 -0.0977  0.3039 -0.1079
  547TIP3    H123132   5.229   1.024  12.115 -0.8261 -0.5808  1.6751
  547TIP3    H223133   5.162   0.978  11.987  1.2426 -0.9143  0.6694
  548TIP3   OH223134   4.476   3.422  11.672  0.6207  0.1585  0.7731
  548TIP3    H123135   4.564   3.399  11.703  0.9396 -0.4141 -0.4899
  548TIP3    H223136   4.421   3.349  11.698  0.7776 -0.0686  0.4734
  549TIP3   OH223137   0.719   5.324  13.709  0.1640  0.2524 -0.0811
  549TIP3    H123138   0.737   5.415  13.686 -0.9820  0.4669 -0.1769
  549TIP3    H223139   0.743   5.275  13.631 -0.2959  0.5926 -0.4375
  550TIP3   OH223140   2.536   1.616  15.656  0.0655 -0.3173  0.4010
  550TIP3    H123141   2.598   1.646  15.723 -0.1255 -0.0955  0.4814
  550TIP3    H223142   2.450   1.633  15.694 -0.0653  1.1375 -0.4524
  551TIP3   OH223143   1.940   6.322  12.339  0.0913  0.5630 -0.2066
  551TIP3    H123144   1.990   6.357  12.266  0.5372 -1.7047 -1.0785
  551TIP3    H223145   1.882   6.257  12.299 -1.8503  1.3792  1.1072
  552TIP3   OH223146   0.657   0.323   5.836  0.0348 -0.4695 -0.1792
  552TIP3    H123147   0.568   0.300   5.862  1.0534 -2.1821  2.1349
  552TIP3    H223148   0.708   0.317   5.917  1.9269  2.5168 -0.9797
  553TIP3   OH223149   3.107   5.478   0.654  0.2993  0.5156  0.3588
  553TIP3    H123150   3.108   5.544   0.585  2.1543 -0.3119 -0.4914
  553TIP3    H223151   3.176   5.506   0.714  0.2733  0.0060  0.6329
  554TIP3   OH223152   0.823   6.227  11.895 -0.1708 -0.4898  0.4720
  554TIP3    H123153   0.862   6.180  11.821  0.9112  1.7275 -0.4865
  554TIP3    H223154   0.897   6.248  11.952 -0.4851  0.6577  0.4816
  555TIP3   OH223155   5.151   3.022  17.256 -0.3253  0.0016  0.2382
  555TIP3    H123156   5.190   3.107  17.275 -1.1848  0.4469  0.0914
  555TIP3    H223157   5.199   2.960  17.311 -0.3396  0.7311  1.0927
  556TIP3   OH223158   5.123   5.250   1.213 -0.1621 -0.2773 -0.0844
  556TIP3    H123159   5.082   5.303   1.281 -0.1642 -0.9993  0.4865
  556TIP3    H223160   5.179   5.312   1.165 -1.8163  0.7047 -0.8387
  557TIP3   OH223161   6.301   6.681  15.222  0.6563 -0.2643  0.2160
  557TIP3    H123162   6.247   6.604  15.206  1.4732 -0.9744  0.7658
  557TIP3    H223163   6.298   6.730  15.140 -1.3275  0.0681  0.4330
  558TIP3   OH223164   0.296   1.951   3.424  0.2198  0.4000 -0.0759
  558TIP3    H123165   0.297   1.970   3.330  0.4076  2.0080  0.2332
  558TIP3    H223166   0.266   2.032   3.464 -2.5767 -1.0691  1.0914
  559TIP3   OH223167   1.736   2.540   5.795 -0.0888 -0.0228 -0.2581
  559TIP3    H123168   1.653   2.544   5.842 -0.1758 -0.2417 -0.3865
  559TIP3    H223169   1.770   2.629   5.796  0.8008 -0.3292  1.7910
  560TIP3   OH223170   1.968   5.241  14.532  0.2786 -0.2665  0.0549
  560TIP3    H123171   1.912   5.292  14.592  0.1997  0.2334 -0.4328
  560TIP3    H223172   1.974   5.296  14.454  3.9563  1.1833  1.1563
  561TIP3   OH223173   2.301   4.460  16.028  0.1116  0.3094  0.2867
  561TIP3    H123174   2.286   4.553  16.014 -0.5927  0.0843 -0.4919
  561TIP3    H223175   2.244   4.416  15.965  2.5594 -0.6112 -1.4910
  562TIP3   OH223176   6.417   1.197  17.235 -0.0348  0.0093 -0.1574
  562TIP3    H123177   6.443   1.232  17.320 -0.7674 -0.3439  0.2150
  562TIP3    H223178   6.400   1.275  17.181  1.4609  0.2583 -0.3346
  563TIP3   OH223179   1.408   3.663  14.666 -0.0930  0.4067 -0.0759
  563TIP3    H123180   1.425   3.751  14.632  0.6466  0.3391  0.1035
  563TIP3    H223181   1.421   3.605  14.591  0.2907  0.3741  0.0123
  564TIP3   OH223182   3.020   1.740  14.755  0.0670  0.3904 -0.4516
  564TIP3    H123183   3.019   1.785  14.671  2.3234 -0.4953 -1.0436
  564TIP3    H223184   3.111   1.749  14.785 -0.8181  1.2509  2.2443
  565TIP3   OH223185   1.022   1.094  14.229 -0.3772 -0.3721 -0.2020
  565TIP3    H123186   1.015   1.017  14.285  0.5777 -1.0328 -0.9512
  565TIP3    H223187   0.931   1.119  14.211 -0.7293 -1.9216 -0.7309
  566TIP3   OH223188   4.073   0.233   5.640  0.9054  0.4221  0.5155
  566TIP3    H123189   4.102   0.315   5.599 -0.6768  1.5501  1.5073
  566TIP3    H223190   3.983   0.222   5.609  0.3130  0.3100  2.1595
  567TIP3   OH223191   2.608   4.020   3.744  0.2480  0.2190 -0.0755
  567TIP3    H123192   2.628   3.944   3.799  0.1000 -0.7664 -1.3572
  567TIP3    H223193   2.674   4.085   3.769  0.4599 -0.3679  0.9390
  568TIP3   OH223194   2.025   2.958  14.019  0.3485  0.0557  0.2602
  568TIP3    H123195   1.957   2.891  14.028 -0.9981  1.5342  1.9090
  568TIP3    H223196   2.105   2.916  14.052 -0.0052 -1.3059 -0.5161
  569TIP3   OH223197   1.968   6.787  13.191 -0.1270  0.3593  0.0665
  569TIP3    H123198   2.037   6.748  13.244  0.8441  2.1565  0.1951
  569TIP3    H223199   1.931   6.856  13.245 -1.1613  0.2773 -0.5003
  570TIP3   OH223200   2.306   2.408  11.155  0.0591 -0.0120  0.0013
  570TIP3    H123201   2.362   2.472  11.111  0.4055  0.8651  1.6081
  570TIP3    H223202   2.241   2.384  11.090  1.7990 -0.4479 -1.6684
  571TIP3   OH223203   0.628   2.584   6.871 -0.5446 -0.0427 -0.2689
  571TIP3    H123204   0.664   2.554   6.954 -1.0419 -1.1177 -0.4172
  571TIP3    H223205   0.655   2.517   6.808 -2.1499 -0.5283 -0.5108
  572TIP3   OH223206   3.759   6.603  14.075 -0.0943  0.1111  0.5669
  572TIP3    H123207   3.705   6.533  14.038  0.7702  0.0216 -0.5693
  572TIP3    H223208   3.696   6.674  14.093 -1.0814 -1.1640  2.3829
  573TIP3   OH223209   4.555   6.683  14.044 -0.1533 -0.0084 -0.1722
  573TIP3    H123210   4.646   6.696  14.016 -0.2728 -0.9562 -1.0562
  573TIP3    H223211   4.503   6.710  13.968 -0.6766  1.6740  0.7450
  574TIP3   OH223212   1.747   2.449  14.411  0.5709 -0.0864  0.7981
  574TIP3    H123213   1.789   2.363  14.415  1.6633  0.3618 -0.3383
  574TIP3    H223214   1.656   2.430  14.389  0.9102 -0.9390  0.0334
  575TIP3   OH223215   0.909   2.573   1.026  0.0067 -0.5098 -0.1258
  575TIP3    H123216   0.985   2.542   0.978 -0.5500 -2.2697  0.0561
  575TIP3    H223217   0.945   2.619   1.102  0.8778 -0.8222 -0.3479
  576TIP3   OH223218   6.181   3.405  15.194 -0.5233 -0.3331 -0.3145
  576TIP3    H123219   6.194   3.375  15.284 -3.0467  2.0514  1.0272
  576TIP3    H223220   6.266   3.441  15.167 -0.2274  0.8910  2.0070
  577TIP3   OH223221   2.640   3.925  17.290  0.2288  0.3875 -0.7783
  577TIP3    H123222   2.701   3.851  17.284 -1.5267 -1.0670 -1.9855
  577TIP3    H223223   2.649   3.971  17.207 -0.9734 -0.4539 -1.4154
  578TIP3   OH223224   4.293   3.948   2.430  0.4037  0.1079 -0.0504
  578TIP3    H123225   4.335   3.874   2.474 -1.1171 -0.1050  1.1481
  578TIP3    H223226   4.280   4.013   2.500 -1.9881 -0.1908 -0.1223
  579TIP3   OH223227   1.685   4.237  13.363 -0.1687 -0.0718  0.2363
  579TIP3    H123228   1.670   4.164  13.303  0.4592  0.6555 -0.8351
  579TIP3    H223229   1.599   4.279  13.370 -1.2560 -2.4249  3.0281
  580TIP3   OH223230   4.224   3.809  15.073 -0.0185 -0.0585  0.0401
  580TIP3    H123231   4.279   3.887  15.081 -0.2514 -0.0016  1.3249
  580TIP3    H223232   4.231   3.784  14.981  1.4344  0.4685 -0.0220
  581TIP3   OH223233   0.783   1.072   5.193  0.1439  0.0081 -0.2842
  581TIP3    H123234   0.838   1.118   5.129 -1.3314  0.6706 -1.1467
  581TIP3    H223235   0.834   1.073   5.274  2.1814 -1.0516 -1.4715
  582TIP3   OH223236   0.489   2.394  16.377 -0.8661 -0.1394 -0.1355
  582TIP3    H123237   0.436   2.472  16.364  1.7352  1.8513  0.4123
  582TIP3    H223238   0.432   2.333  16.424 -2.4394  2.1195  1.0432
  583TIP3   OH223239   4.937   1.562   4.094 -0.0728  0.1776 -0.4886
  583TIP3    H123240   4.896   1.549   4.179  0.4955 -1.6758 -0.4653
  583TIP3    H223241   5.030   1.574   4.112  0.0564 -0.2548 -0.8273
  584TIP3   OH223242   5.808   5.056  11.210  0.1440  0.3148 -0.1103
  584TIP3    H123243   5.901   5.036  11.206 -0.2748 -1.7291 -1.0273
  584TIP3    H223244   5.785   5.084  11.122 -0.4810 -1.2889 -0.4970
  585TIP3   OH223245   2.859   2.369  10.818 -0.1037 -0.3089 -0.1384
  585TIP3    H123246   2.834   2.276  10.819 -2.8629  0.3252 -1.3175
  585TIP3    H223247   2.780   2.415  10.790  0.8045  2.5571  1.5690
  586TIP3   OH223248   3.789   2.334  11.735  0.5210 -0.5583 -0.2404
  586TIP3    H123249   3.709   2.378  11.705  0.8807  0.2657 -0.0256
  586TIP3    H223250   3.833   2.307  11.654  0.2591 -0.5800 -0.3770
  587TIP3   OH223251   1.502   5.312   2.425  0.3252 -0.1682  0.3405
  587TIP3    H123252   1.501   5.292   2.518 -1.8016 -0.0770  0.3996
  587TIP3    H223253   1.422   5.271   2.391 -0.1027  1.6655 -1.0177
  588TIP3   OH223254   1.608   2.331  12.128  0.0956  0.2326  0.0499
  588TIP3    H123255   1.607   2.276  12.050 -2.2257  0.2854 -0.0415
  588TIP3    H223256   1.611   2.421  12.095 -1.0729  0.2603 -0.0188
  589TIP3   OH223257   2.540   0.298   2.717  0.2844 -0.3029  0.2274
  589TIP3    H123258   2.499   0.273   2.801 -1.3707  0.2479 -0.3703
  589TIP3    H223259   2.633   0.302   2.736  0.1173 -1.8432  1.6322
  590TIP3   OH223260   5.095   6.567  11.791 -0.0197  0.0372 -0.0222
  590TIP3    H123261   5.121   6.620  11.866 -0.5618  0.6396 -0.2474
  590TIP3    H223262   5.011   6.528  11.817  1.5561 -2.8532  1.1785
  591TIP3   OH223263   6.641   1.612  15.871  0.0035  0.2494 -0.5337
  591TIP3    H123264   6.661   1.649  15.785  0.0851  0.1474 -0.5582
  591TIP3    H223265   6.719   1.630  15.924  0.1435 -0.1110 -0.6168
  592TIP3   OH223266   6.307   1.414   4.604  0.4756 -0.6408 -0.5187
  592TIP3    H123267   6.394   1.373   4.605  0.5585 -0.4649  0.9591
  592TIP3    H223268   6.324   1.507   4.619  0.1460 -0.3093 -2.0484
  593TIP3   OH223269   6.457   0.595   5.250 -0.2907  0.2585  0.4693
  593TIP3    H123270   6.530   0.544   5.286 -1.5373 -1.1336  1.1364
  593TIP3    H223271   6.499   0.667   5.203  1.5387 -0.9500  0.1417
  594TIP3   OH223272   6.653   2.060  11.035  0.6771 -0.2569 -0.2312
  594TIP3    H123273   6.748   2.063  11.031  0.6194  0.8101 -2.4285
  594TIP3    H223274   6.624   2.122  10.968 -1.5536 -1.6325 -0.6584
  595TIP3   OH223275   5.763   3.487  12.454  0.1568  0.0327  0.2364
  595TIP3    H123276   5.668   3.497  12.456  0.2890  1.5327  1.0417
  595TIP3    H223277   5.794   3.545  12.524  1.5894 -1.4865  0.9181
  596TIP3   OH223278   3.916   4.389  15.905  0.4685 -0.6132 -0.0730
  596TIP3    H123279   3.875   4.402  15.990  2.0224  0.6919  0.5201
  596TIP3    H223280   3.954   4.301  15.910 -0.3679 -0.9773  0.1473
  597TIP3   OH223281   0.836   6.373  16.223 -0.6784 -0.0025 -0.7434
  597TIP3    H123282   0.793   6.294  16.190  0.6212 -0.7202 -0.7739
  597TIP3    H223283   0.764   6.435  16.236 -2.0227 -1.8220  1.1790
  598TIP3   OH223284   1.069   2.034   3.575  0.1632  0.5209  0.1527
  598TIP3    H123285   0.975   2.019   3.581  0.1736  0.9088  1.5149
  598TIP3    H223286   1.078   2.109   3.517 -0.6075  2.5548  2.5176
  599TIP3   OH223287   0.701   4.103   2.287 -0.3293 -0.3513  0.2345
  599TIP3    H123288   0.759   4.178   2.300  0.5863 -0.9179 -0.4685
  599TIP3    H223289   0.729   4.039   2.353  2.3430 -2.0517 -2.2874
  600TIP3   OH223290   4.779   6.256  13.915  0.4892 -0.2895  0.4185
  600TIP3    H123291   4.745   6.259  14.005  0.7303 -0.9234  0.5410
  600TIP3    H223292   4.837   6.180  13.915  0.7166 -0.1162 -0.1996
  601TIP3   OH223293   3.137   1.293   3.612  0.0774  0.1259  0.5451
  601TIP3    H123294   3.195   1.342   3.553 -1.6546  0.1169 -1.2700
  601TIP3    H223295   3.144   1.202   3.582 -0.6051  0.0764  0.5318
  602TIP3   OH223296   0.918   0.119  14.661  0.0351 -0.6601 -0.4102
  602TIP3    H123297   0.844   0.120  14.600  1.5906 -1.2877 -2.4255
  602TIP3    H223298   0.988   0.167  14.615  1.6771 -2.2580  0.2962
  603TIP3   OH223299   1.485   1.297  12.926 -0.9711  0.3721  0.2180
  603TIP3    H123300   1.497   1.377  12.875  1.1445 -0.2046 -0.3004
  603TIP3    H223301   1.533   1.230  12.876 -0.2284 -0.5719  2.0923
  604TIP3   OH223302   5.139   5.844  14.164  0.4618 -0.6877  0.2073
  604TIP3    H123303   5.177   5.756  14.164  2.4976  0.1463  0.5611
  604TIP3    H223304   5.131   5.867  14.071 -0.3528 -1.3275  0.1037
  605TIP3   OH223305   1.652   3.131   3.201  0.3766  0.3172  0.2482
  605TIP3    H123306   1.612   3.145   3.287 -1.3959 -0.5933 -0.3782
  605TIP3    H223307   1.626   3.042   3.177  2.6283 -0.2450 -0.3479
  606TIP3   OH223308   4.777   6.432  11.616  0.3105  0.0539 -0.5009
  606TIP3    H123309   4.697   6.383  11.637  1.3265 -0.6284  2.0751
  606TIP3    H223310   4.776   6.438  11.520 -2.1307 -1.0821 -0.6318
  607TIP3   OH223311   2.308   5.710  12.520 -0.0338 -0.1218 -0.4086
  607TIP3    H123312   2.270   5.680  12.603  1.3034 -0.4535  0.1188
  607TIP3    H223313   2.233   5.736  12.467 -1.0589 -1.5851  0.2349
  608TIP3   OH223314   1.569   4.382  16.591 -0.1640  0.3859 -0.1510
  608TIP3    H123315   1.554   4.348  16.503 -1.7324  0.4765  0.0420
  608TIP3    H223316   1.632   4.322  16.631  2.2724  1.5432 -2.0069
  609TIP3   OH223317   2.257   3.111  14.267  0.2153  0.1073  1.1373
  609TIP3    H123318   2.198   3.155  14.329 -0.1154 -0.8039  1.4878
  609TIP3    H223319   2.225   3.021  14.264 -0.1874  0.2869 -0.8803
  610TIP3   OH223320   6.392   0.232   0.495 -0.2103 -0.0248 -0.3336
  610TIP3    H123321   6.304   0.242   0.459  0.1003  2.1889 -0.6388
  610TIP3    H223322   6.419   0.321   0.518  1.9101 -0.6480 -0.1291
  611TIP3   OH223323   6.667   3.382  14.924  0.1124 -0.2924 -0.3250
  611TIP3    H123324   6.581   3.388  14.884 -0.0497 -1.5753 -0.2095
  611TIP3    H223325   6.717   3.325  14.865  1.0550  0.8402 -0.6619
  612TIP3   OH223326   0.030   0.613  14.482  0.1274 -0.9716  0.1326
  612TIP3    H123327   0.014   0.569  14.565  1.0000 -1.5114  0.0357
  612TIP3    H223328   0.123   0.637  14.485 -0.1733  0.2857 -0.0986
  613TIP3   OH223329   4.442   5.127  15.066  0.4273 -0.0925 -0.0442
  613TIP3    H123330   4.473   5.140  15.155 -0.1652 -0.5130  0.2345
  613TIP3    H223331   4.422   5.033  15.061 -0.6687  0.1319 -0.2277
  614TIP3   OH223332   0.131   0.303   0.608  0.1079 -0.3748 -0.2615
  614TIP3    H123333   0.124   0.215   0.571  1.5559  0.1660 -1.9553
  614TIP3    H223334   0.210   0.300   0.662  1.6438  0.4533 -2.3031
  615TIP3   OH223335   1.472   5.725   0.601  0.0775  0.1970  0.3716
  615TIP3    H123336   1.542   5.683   0.552  0.4593 -1.2528  2.0464
  615TIP3    H223337   1.477   5.817   0.575  1.3902 -0.1957 -0.9283
  616TIP3   OH223338   2.139   3.236  15.513  0.5551  0.3599 -0.5192
  616TIP3    H123339   2.045   3.253  15.515 -0.2818 -3.3625  0.7547
  616TIP3    H223340   2.153   3.192  15.429  0.7408 -0.6129 -0.0017
  617TIP3   OH223341   2.461   5.915   2.094  0.6035 -0.5365 -0.2874
  617TIP3    H123342   2.387   5.860   2.118  1.0789 -1.3043 -0.5609
  617TIP3    H223343   2.504   5.869   2.022 -1.6661  2.3691 -3.9047
  618TIP3   OH223344   4.518   2.464   2.146  0.2858  0.1035  0.0479
  618TIP3    H123345   4.427   2.445   2.169  1.1400 -0.6749  3.1579
  618TIP3    H223346   4.524   2.559   2.148  0.1164  0.1272  2.7565
  619TIP3   OH223347   6.593   0.606   3.568  0.3612  0.5018  0.0300
  619TIP3    H123348   6.662   0.631   3.629 -0.7118  1.8858  0.7455
  619TIP3    H223349   6.516   0.594   3.624 -0.2187 -0.0207 -0.8581
  620TIP3   OH223350   5.851   3.659   5.008 -0.4191  0.7580 -0.5385
  620TIP3    H123351   5.780   3.623   5.060  0.9607  0.1329  0.9945
  620TIP3    H223352   5.855   3.603   4.930 -0.0173 -0.7937  0.5523
  621TIP3   OH223353   1.906   2.353   2.631  0.7990 -0.0001  0.0604
  621TIP3    H123354   1.817   2.383   2.611  0.3970 -0.8234  0.5587
  621TIP3    H223355   1.912   2.359   2.727  1.4523  0.5102 -0.0084
  622TIP3   OH223356   5.195   1.557  12.322  0.0722  0.1816  0.7060
  622TIP3    H123357   5.277   1.507  12.310 -0.2963 -0.1508 -0.5365
  622TIP3    H223358   5.212   1.641  12.279 -1.2244 -0.9810 -2.3485
  623TIP3   OH223359   1.060   3.324   3.032 -0.1265 -0.2564  0.1139
  623TIP3    H123360   1.089   3.396   3.088 -1.8890 -0.3785  1.2597
  623TIP3    H223361   1.065   3.359   2.943  0.0420  0.9181  0.5733
  624TIP3   OH223362   0.542   4.001   0.464  0.6491  0.6382  0.3927
  624TIP3    H123363   0.461   4.051   0.454  0.5130  0.1131 -1.5544
  624TIP3    H223364   0.572   3.986   0.375  0.4875 -3.0626  0.8168
  625TIP3   OH223365   6.377   5.186  13.530  0.4084 -0.3882  0.4831
  625TIP3    H123366   6.344   5.144  13.609  1.3467 -2.5826 -0.2014
  625TIP3    H223367   6.318   5.156  13.461 -0.6453  1.8331  0.3467
  626TIP3   OH223368   4.822   6.638  15.917  0.4598  0.3691 -0.3014
  626TIP3    H123369   4.887   6.670  15.979 -0.7821  0.4178  1.0269
  626TIP3    H223370   4.758   6.591  15.971 -0.6231  0.3329 -1.5547
  627TIP3   OH223371   1.040   6.284   1.527  0.4119 -0.2329 -0.2308
  627TIP3    H123372   1.046   6.245   1.614 -0.6566  0.7130  0.2984
  627TIP3    H223373   0.952   6.321   1.524  0.8303  0.7238 -1.3042
  628TIP3   OH223374   4.980   0.725  11.614  0.3430  0.2150 -0.0585
  628TIP3    H123375   5.049   0.685  11.561  0.4523 -0.4314  0.5527
  628TIP3    H223376   4.914   0.753  11.551  0.8900  0.3085 -0.6032
  629TIP3   OH223377   4.774   5.022   5.094  0.2087 -0.3969  0.2885
  629TIP3    H123378   4.781   5.100   5.040  0.2498  0.3632  1.3640
  629TIP3    H223379   4.713   4.965   5.047  0.7044 -0.0164 -0.8435
  630TIP3   OH223380   5.068   3.536  14.283  0.3115  0.1608 -0.0569
  630TIP3    H123381   5.087   3.601  14.351  1.4467 -1.3125  1.1131
  630TIP3    H223382   5.132   3.467  14.299 -0.3948 -0.9203 -1.7142
  631TIP3   OH223383   4.018   6.214  13.359 -0.0521  0.3811  0.4771
  631TIP3    H123384   4.035   6.147  13.425 -0.3196 -0.8314 -0.6413
  631TIP3    H223385   3.934   6.253  13.386  0.9807  1.5874  2.1460
  632TIP3   OH223386   6.064   4.090  11.374  0.3014  0.1538 -0.0428
  632TIP3    H123387   6.093   4.140  11.298  2.7155 -1.0726  0.0043
  632TIP3    H223388   6.015   4.016  11.337 -0.9699  1.0399 -0.2172
  633TIP3   OH223389   3.176   4.501   0.421  0.2727 -0.3261  0.7948
  633TIP3    H123390   3.178   4.422   0.476 -0.5587  0.9564  2.7979
  633TIP3    H223391   3.100   4.489   0.365  0.3450 -1.0760  0.8421
  634TIP3   OH223392   2.988   4.879   3.577  0.1403  0.3210 -0.6594
  634TIP3    H123393   3.003   4.956   3.523 -2.1682  0.5189 -1.1174
  634TIP3    H223394   2.904   4.895   3.620  0.0652 -1.5270 -0.0126
  635TIP3   OH223395   2.721   4.578  12.464  0.0126  0.1689  0.7181
  635TIP3    H123396   2.748   4.487  12.451  0.7294  0.5761 -1.0818
  635TIP3    H223397   2.626   4.574  12.470 -0.3594 -0.4440 -3.1100
  636TIP3   OH223398   1.020   0.048  16.719  0.2659 -0.3765  0.0694
  636TIP3    H123399   1.110   0.080  16.720  0.0190  0.3503 -0.6843
  636TIP3    H223400   1.028  -0.046  16.702  0.7825  0.1276 -2.8734
  637TIP3   OH223401   2.834   2.769  14.022  0.1226  0.3942 -0.3184
  637TIP3    H123402   2.922   2.731  14.030  0.3582  0.3456 -2.5328
  637TIP3    H223403   2.834   2.843  14.082  1.6670  0.3746 -0.2579
  638TIP3   OH223404   3.415   6.048  15.030 -0.2038  0.0941  0.2632
  638TIP3    H123405   3.466   5.971  15.005  0.3641  0.5240  0.0820
  638TIP3    H223406   3.433   6.113  14.962 -0.5207  0.4557  0.5157
  639TIP3   OH223407   5.191   1.601   6.106 -0.1810  0.1869 -0.1022
  639TIP3    H123408   5.111   1.642   6.074  1.1804  2.9829 -0.1979
  639TIP3    H223409   5.215   1.653   6.183  0.8047 -1.5268  0.8252
  640TIP3   OH223410   1.195   6.757   0.606 -0.0501 -0.4950 -0.0020
  640TIP3    H123411   1.119   6.811   0.626 -0.4445 -0.8730 -0.4427
  640TIP3    H223412   1.165   6.699   0.535  0.0590 -1.9539  1.1009
  641TIP3   OH223413   6.629   1.247  14.893  0.6602 -0.1060 -0.1517
  641TIP3    H123414   6.623   1.172  14.835  1.0163 -0.4653  0.2716
  641TIP3    H223415   6.549   1.297  14.875  0.7192 -0.2590 -0.8729
  642TIP3   OH223416   2.618   1.634  15.355 -0.4072  0.0943 -0.6815
  642TIP3    H123417   2.549   1.580  15.315 -0.1688 -0.5091 -0.3017
  642TIP3    H223418   2.583   1.658  15.440 -0.3486  0.2067 -0.6892
  643TIP3   OH223419   5.011   6.675   1.494  0.0607 -0.0744  0.1995
  643TIP3    H123420   5.101   6.686   1.525 -0.2302 -2.3224  2.1913
  643TIP3    H223421   4.957   6.716   1.562 -0.4715  0.2728 -0.4153
  644TIP3   OH223422   4.388   5.549   2.272  0.2028  0.9294 -0.0662
  644TIP3    H123423   4.328   5.613   2.310 -0.5594 -0.7309  1.7060
  644TIP3    H223424   4.332   5.491   2.219  0.4524  0.2212  0.4285
  645TIP3   OH223425   1.633   2.226   1.873 -0.7392  0.0591 -0.3053
  645TIP3    H123426   1.601   2.172   1.801 -0.2037 -0.3026 -0.2756
  645TIP3    H223427   1.721   2.252   1.846  0.1703 -1.4964  0.9419
  646TIP3   OH223428   0.097   1.510   2.239  0.1191 -0.0793  0.2902
  646TIP3    H123429   0.106   1.519   2.144  1.4581 -0.3374  0.3660
  646TIP3    H223430   0.162   1.571   2.275  0.4980 -0.8834  1.0094
  647TIP3   OH223431   2.343   4.911  12.136 -0.1525 -0.2880  0.1516
  647TIP3    H123432   2.396   4.851  12.084 -2.5051 -0.7054 -1.9788
  647TIP3    H223433   2.373   4.998  12.110 -0.1299 -0.5232 -0.6587
  648TIP3   OH223434   6.024   4.026   5.501 -0.3346 -0.2716 -0.1509
  648TIP3    H123435   6.113   4.009   5.471 -0.5607 -0.2967 -0.8356
  648TIP3    H223436   6.031   4.103   5.557 -0.1929  1.1439 -2.0272
  649TIP3   OH223437   0.333   2.040   4.588  0.3248 -0.7465 -0.0274
  649TIP3    H123438   0.301   2.033   4.498  0.7776 -0.0996 -0.2495
  649TIP3    H223439   0.421   2.002   4.585 -0.2841 -2.2879  0.5222
  650TIP3   OH223440   2.992   4.833  12.931  0.1330  0.3121 -0.0237
  650TIP3    H123441   2.970   4.860  13.020 -0.8231  0.1957 -0.2083
  650TIP3    H223442   2.907   4.817  12.890  0.6213 -1.4234 -0.4150
  651TIP3   OH223443   0.165   3.602  16.799 -0.3444  0.2453 -0.5443
  651TIP3    H123444   0.142   3.662  16.870 -0.9996  0.3859 -0.8668
  651TIP3    H223445   0.248   3.635  16.765  0.4106 -0.3118  0.6897
  652TIP3   OH223446   4.198   0.604   5.800  0.5316 -0.2351  0.5810
  652TIP3    H123447   4.173   0.541   5.733 -1.1966 -0.8397  1.7207
  652TIP3    H223448   4.220   0.551   5.877  1.9602  0.4593  0.6879
  653TIP3   OH223449   3.272   4.155  14.830 -0.3408  0.5211  0.0662
  653TIP3    H123450   3.278   4.087  14.763 -1.3511  0.3048  0.1759
  653TIP3    H223451   3.356   4.151  14.876 -0.1662 -0.2536 -0.3011
  654TIP3   OH223452   3.380   5.519   5.701  0.4331  0.8453 -0.0727
  654TIP3    H123453   3.374   5.484   5.612  1.1729  1.1336 -0.2436
  654TIP3    H223454   3.292   5.549   5.721 -0.1794 -0.8480 -0.0312
  655TIP3   OH223455   3.837   3.687  17.213  0.3680 -0.2101  0.7097
  655TIP3    H123456   3.856   3.700  17.307 -0.2751 -2.3150  1.1788
  655TIP3    H223457   3.891   3.612  17.188  1.5985  1.1640 -1.0181
  656TIP3   OH223458   5.566   2.273  12.833  0.3942  0.4211 -0.0592
  656TIP3    H123459   5.537   2.182  12.825  0.0769  0.6550 -2.2904
  656TIP3    H223460   5.661   2.267  12.844  0.2834 -0.1953  0.6039
  657TIP3   OH223461   3.220   6.146  13.263  0.3868  0.0057  0.2611
  657TIP3    H123462   3.293   6.085  13.248 -0.1859 -0.3038 -1.5508
  657TIP3    H223463   3.163   6.134  13.187 -2.6859 -1.3207  2.5451
  658TIP3   OH223464   5.175   0.507  13.887 -0.5653 -0.2108  0.1347
  658TIP3    H123465   5.235   0.576  13.915 -0.0201 -0.7502  0.3121
  658TIP3    H223466   5.222   0.461  13.817 -0.6935 -0.7457  0.3921
  659TIP3   OH223467   3.112   2.566  11.604  0.3291 -0.0487 -0.4162
  659TIP3    H123468   3.109   2.591  11.697  1.9619 -0.8222 -0.1207
  659TIP3    H223469   3.071   2.479  11.601 -3.1744  1.4543 -1.0760
  660TIP3   OH223470   2.923   3.544   4.563  0.3204  0.4897  0.1350
  660TIP3    H123471   2.855   3.533   4.496  1.1490  0.4970 -0.7339
  660TIP3    H223472   2.974   3.463   4.558 -0.0303  0.1967  1.2533
  661TIP3   OH223473   5.658   1.264   1.504 -0.0774  0.2698  0.4899
  661TIP3    H123474   5.595   1.216   1.451 -0.7227  0.3925  1.1424
  661TIP3    H223475   5.617   1.349   1.521  1.0594  1.1094 -0.6763
  662TIP3   OH223476   4.926   2.632   1.299 -0.2780 -0.2263  0.4528
  662TIP3    H123477   4.954   2.563   1.239 -0.5593  0.3422 -0.3561
  662TIP3    H223478   4.861   2.681   1.249  1.1232  1.6510  0.3638
  663TIP3   OH223479   5.256   3.504  16.546 -0.2601  0.3322  0.4385
  663TIP3    H123480   5.333   3.538  16.501 -0.1333 -1.6542 -0.9789
  663TIP3    H223481   5.209   3.582  16.576  1.5069  1.6178  0.0137
  664TIP3   OH223482   2.145   6.470   1.056 -0.6772  0.1701 -0.3121
  664TIP3    H123483   2.164   6.377   1.070 -1.7579  0.0270  0.3922
  664TIP3    H223484   2.097   6.496   1.135 -2.7179  0.6230 -1.6317
  665TIP3   OH223485   3.288   0.386  14.728 -0.3361 -0.3300  0.3601
  665TIP3    H123486   3.210   0.338  14.699  0.7432 -1.5688 -0.6332
  665TIP3    H223487   3.266   0.478  14.714 -1.9553 -0.5765  1.0073
  666TIP3   OH223488   6.543   3.296  14.547 -0.4565  0.6279  0.3449
  666TIP3    H123489   6.554   3.313  14.454  0.0094  0.1994  0.3179
  666TIP3    H223490   6.474   3.229  14.551  0.3722 -0.2655  0.2226
  667TIP3   OH223491   6.551   2.920   0.366  0.6032 -0.3439 -0.0030
  667TIP3    H123492   6.544   2.844   0.423 -0.8349  0.8372  1.5198
  667TIP3    H223493   6.644   2.942   0.366  0.7477 -0.8831  1.2413
  668TIP3   OH223494   3.171   0.796  14.890  0.2749  0.0541 -0.1773
  668TIP3    H123495   3.112   0.824  14.960 -0.3604  0.6658 -0.9288
  668TIP3    H223496   3.246   0.757  14.935  0.2229  1.0892  0.8523
  669TIP3   OH223497   3.794   4.316   3.202  0.4921 -0.4217  0.7313
  669TIP3    H123498   3.726   4.315   3.136  3.0525  0.2034 -2.1565
  669TIP3    H223499   3.754   4.358   3.278 -2.5879 -1.1433 -0.3758
  670TIP3   OH223500   3.803   4.324  16.375 -0.2779  0.2155 -0.2472
  670TIP3    H123501   3.842   4.360  16.296  0.8175  0.3351  0.3155
  670TIP3    H223502   3.711   4.312  16.354 -0.0753  0.5890 -1.4105
  671TIP3   OH223503   1.800   3.312   2.067 -0.1762 -0.3416  0.2453
  671TIP3    H123504   1.797   3.329   1.973 -1.3974 -1.2983  0.0986
  671TIP3    H223505   1.709   3.312   2.095  0.1961  0.5515  1.5621
  672TIP3   OH223506   2.546   3.656   2.302  0.4878 -0.8363 -0.0646
  672TIP3    H123507   2.526   3.597   2.229  1.2428 -1.1099 -0.0665
  672TIP3    H223508   2.640   3.642   2.319  1.1215  1.5177 -1.1272
  673TIP3   OH223509   1.486   1.861   0.331  0.1027 -0.1889  0.2172
  673TIP3    H123510   1.456   1.772   0.312  1.0460 -0.2730 -1.0092
  673TIP3    H223511   1.513   1.859   0.422  0.1470 -1.1701  0.1936
  674TIP3   OH223512   2.110   1.509  15.689 -0.0315  0.0489 -0.0041
  674TIP3    H123513   2.123   1.517  15.594 -0.8206  0.6900 -0.0640
  674TIP3    H223514   2.084   1.418  15.702 -0.1485  0.0200 -0.4362
  675TIP3   OH223515   6.198   1.894   5.920 -0.4617 -0.0245 -0.6963
  675TIP3    H123516   6.222   1.847   5.999  0.3268 -0.2284 -1.0543
  675TIP3    H223517   6.103   1.905   5.927 -0.3295  0.4601  0.5456
  676TIP3   OH223518   2.623   5.994   1.426 -0.3717  0.2236 -0.2102
  676TIP3    H123519   2.624   6.042   1.342  3.2684 -0.2973 -0.6462
  676TIP3    H223520   2.656   6.057   1.490  0.8025 -0.5429 -0.0304
  677TIP3   OH223521   0.775   4.683  12.581 -0.6741  0.3447  0.2160
  677TIP3    H123522   0.763   4.679  12.676  0.3556  1.6624  0.4356
  677TIP3    H223523   0.867   4.705  12.569 -0.9099  0.7416 -1.0805
  678TIP3   OH223524   5.714   0.040   5.528 -0.1453 -0.2423  0.4150
  678TIP3    H123525   5.635   0.090   5.508 -1.3018 -2.3956 -0.7280
  678TIP3    H223526   5.693  -0.006   5.609  1.1101  1.4069  1.7541
  679TIP3   OH223527   6.226   3.822  12.185 -0.7338  0.0705  0.1736
  679TIP3    H123528   6.314   3.855  12.202 -1.6444  1.9848  1.4960
  679TIP3    H223529   6.213   3.837  12.091  0.7748 -1.4638 -0.3344
  680TIP3   OH223530   4.919   6.267  10.936 -0.0507  0.2017  0.3670
  680TIP3    H123531   4.983   6.218  10.988 -1.5710 -0.1769  1.9814
  680TIP3    H223532   4.894   6.340  10.993 -1.0690  0.3336 -0.2365
  681TIP3   OH223533   2.896   2.561  14.730 -0.1783 -0.4924 -0.0229
  681TIP3    H123534   2.940   2.635  14.772 -1.6106 -0.4849  1.5923
  681TIP3    H223535   2.856   2.599  14.651  1.6449 -0.2652 -0.8994
  682TIP3   OH223536   6.340   3.238   0.707 -0.1332 -0.2182  0.0558
  682TIP3    H123537   6.425   3.199   0.686  1.1002  1.8771  0.7880
  682TIP3    H223538   6.290   3.167   0.746  2.0313 -1.0745  1.4981
  683TIP3   OH223539   0.974   1.391   4.705  0.1457  0.0179 -0.7167
  683TIP3    H123540   0.974   1.462   4.641 -0.7315 -0.0803 -0.8407
  683TIP3    H223541   1.059   1.348   4.693  1.1420  1.6503  0.0787
  684TIP3   OH223542   6.529   5.667   3.658  0.4639  0.3419  0.2864
  684TIP3    H123543   6.618   5.660   3.694  1.2535  0.3792 -1.5427
  684TIP3    H223544   6.510   5.761   3.659  0.2550  0.3021  1.0521
  685TIP3   OH223545   0.368   0.437  15.615  0.2013 -0.0346 -0.2547
  685TIP3    H123546   0.361   0.494  15.538 -0.0090 -1.0194 -0.9752
  685TIP3    H223547   0.280   0.403  15.628  0.6489 -1.4659 -0.8270
  686TIP3   OH223548   3.691   4.938  14.285  0.5765 -0.0956  0.1397
  686TIP3    H123549   3.733   4.854  14.306  2.0938  0.1683 -1.5596
  686TIP3    H223550   3.673   4.978  14.371  3.2138 -0.5598  1.0082
  687TIP3   OH223551   5.772   3.045  13.632 -0.2726 -0.1088  0.4481
  687TIP3    H123552   5.779   3.140  13.644 -1.5353  0.1522 -0.6000
  687TIP3    H223553   5.801   3.008  13.715 -0.6833  1.2421  1.2194
  688TIP3   OH223554   5.276   4.967   3.305  0.0738 -0.4540 -0.7106
  688TIP3    H123555   5.327   4.930   3.377 -2.4558 -0.8254  1.0165
  688TIP3    H223556   5.257   4.891   3.249 -1.2022 -0.9926  0.3732
  689TIP3   OH223557   2.969   3.211   3.435  0.4143  0.1760  0.5584
  689TIP3    H123558   2.943   3.303   3.435  2.5351  0.9010 -1.6737
  689TIP3    H223559   3.063   3.213   3.449  0.6229 -1.5810 -0.3612
  690TIP3   OH223560   4.869   0.402   0.034 -0.7562  0.3562 -0.6429
  690TIP3    H123561   4.888   0.418  -0.059 -0.1189 -2.0455 -0.9963
  690TIP3    H223562   4.776   0.380   0.036 -0.5443 -0.6088 -0.8981
  691TIP3   OH223563   0.449   0.690   6.954  0.4941  0.2803 -0.3408
  691TIP3    H123564   0.521   0.656   7.008  0.0283  1.8747  1.3818
  691TIP3    H223565   0.410   0.612   6.914  2.4476 -0.7157 -0.3970
  692TIP3   OH223566   1.928   5.791   2.726 -0.4819 -0.4234  0.4970
  692TIP3    H123567   1.955   5.842   2.649 -2.2056 -0.2053 -0.0102
  692TIP3    H223568   2.004   5.736   2.746 -0.2820 -1.2071 -1.9756
  693TIP3   OH223569   1.269   3.506   1.947  0.1133  0.2516 -0.2811
  693TIP3    H123570   1.223   3.581   1.984 -1.0707 -1.1483  1.2743
  693TIP3    H223571   1.251   3.434   2.008  0.5515 -1.5038 -2.0961
  694TIP3   OH223572   4.824   2.949  13.207  0.1802  0.2143 -0.0691
  694TIP3    H123573   4.911   2.929  13.243 -0.5770 -0.2988  1.6129
  694TIP3    H223574   4.836   3.030  13.158  1.2998  1.0392  1.4782
  695TIP3   OH223575   1.504   1.797   4.175  0.3260 -0.0457 -0.0011
  695TIP3    H123576   1.435   1.799   4.241  0.4999  0.8032  0.1664
  695TIP3    H223577   1.514   1.704   4.153 -2.8254 -0.0290 -2.0922
  696TIP3   OH223578   1.565   6.486  17.314 -0.1174  0.2088  0.5749
  696TIP3    H123579   1.534   6.423  17.248  0.4966 -0.9935  1.3879
  696TIP3    H223580   1.489   6.539  17.334 -0.5339  0.0408 -0.4776
  697TIP3   OH223581   0.424   4.075  15.023  0.4453 -0.4039 -0.3448
  697TIP3    H123582   0.336   4.077  14.984  0.3446 -0.2758 -0.1121
  697TIP3    H223583   0.417   4.009  15.092 -0.0057  0.9787  0.9573
  698TIP3   OH223584   3.821   5.272   2.734 -0.2707  0.1589  0.0272
  698TIP3    H123585   3.891   5.300   2.792  0.1706  0.3097 -0.5759
  698TIP3    H223586   3.862   5.207   2.676 -1.0169 -0.9678  0.7182
  699TIP3   OH223587   3.419   2.664  13.579 -0.3812  0.4519 -0.0369
  699TIP3    H123588   3.512   2.654  13.557 -0.0415 -1.3117  1.9123
  699TIP3    H223589   3.410   2.755  13.606  0.9493  0.4826  0.3699
  700TIP3   OH223590   6.127   0.016   0.719 -0.0305 -0.2008  0.7851
  700TIP3    H123591   6.100  -0.076   0.726 -0.8460 -0.3364 -2.3490
  700TIP3    H223592   6.213   0.012   0.675 -0.4530  0.5086 -0.1459
  701TIP3   OH223593   4.906   6.359  11.894  0.2787  0.4328 -0.2446
  701TIP3    H123594   4.953   6.287  11.938  0.7540  0.9307  0.0719
  701TIP3    H223595   4.885   6.324  11.808  1.7109  0.3851 -0.6013
  702TIP3   OH223596   4.588   6.243   3.285 -0.8831 -0.3714  0.3552
  702TIP3    H123597   4.677   6.220   3.258 -0.8713 -0.0492  0.1082
  702TIP3    H223598   4.549   6.161   3.314 -0.6684 -0.5975 -0.0003
  703TIP3   OH223599   2.520   5.051   4.430 -0.4343  0.3208  0.3120
  703TIP3    H123600   2.526   5.047   4.526  0.5343 -1.2136  0.2259
  703TIP3    H223601   2.567   5.130   4.406 -0.2984  0.4825  1.0825
  704TIP3   OH223602   2.126   4.658  12.695  0.0048 -0.2516  0.3154
  704TIP3    H123603   2.142   4.594  12.765 -0.0539 -1.3108 -0.6116
  704TIP3    H223604   2.055   4.620  12.644 -0.2819  0.7473 -0.0475
  705TIP3   OH223605   5.286   1.233   0.475  0.0278 -0.3914 -0.3080
  705TIP3    H123606   5.320   1.288   0.404  1.0206  0.1702  0.5710
  705TIP3    H223607   5.297   1.143   0.443  0.5398 -0.1505 -0.8379
  706TIP3   OH223608   5.519   5.902   1.000 -0.6570  0.7979  0.3124
  706TIP3    H123609   5.453   5.869   1.061 -0.5337  0.6151  0.3476
  706TIP3    H223610   5.504   5.852   0.920  0.2512 -0.1517  0.7142
  707TIP3   OH223611   5.127   6.356  12.315  0.5628 -0.0755 -0.1251
  707TIP3    H123612   5.154   6.275  12.357 -0.7091 -0.8800 -0.7925
  707TIP3    H223613   5.033   6.362  12.333 -0.0073 -0.3975 -2.7255
  708TIP3   OH223614   5.323   5.158  11.604  0.1821 -0.1942 -0.2431
  708TIP3    H123615   5.241   5.192  11.569 -0.0305 -1.0910 -0.6477
  708TIP3    H223616   5.381   5.154  11.528  0.7555  0.8527  0.1209
  709TIP3   OH223617   6.336   1.732   1.139 -0.1650  0.3435 -0.4256
  709TIP3    H123618   6.246   1.701   1.129  0.2182 -0.5534 -1.2624
  709TIP3    H223619   6.381   1.700   1.061  0.6676  1.5749 -0.4669
  710TIP3   OH223620   6.797   1.091   0.329 -0.2966 -0.4327 -0.4012
  710TIP3    H123621   6.819   1.030   0.399  1.6633  0.7786  0.1066
  710TIP3    H223622   6.806   1.178   0.368  2.2415  0.3422 -2.4028
  711TIP3   OH223623   3.004   2.968  13.211 -0.2362 -0.5869 -0.1039
  711TIP3    H123624   2.955   2.990  13.131 -0.7938  0.3928  0.4916
  711TIP3    H223625   2.978   2.877  13.230 -1.1075 -0.3924 -0.3200
  712TIP3   OH223626   1.182   5.242  16.662  0.1772  0.2577  0.3999
  712TIP3    H123627   1.276   5.235  16.675  0.3785 -0.9010 -1.3570
  712TIP3    H223628   1.166   5.335  16.648  0.8725  0.6066  1.7182
  713TIP3   OH223629   5.029   3.796  12.468 -0.4200  0.3034 -0.0223
  713TIP3    H123630   5.026   3.702  12.487 -0.6711 -0.0333 -1.5681
  713TIP3    H223631   4.938   3.823  12.468 -0.2695  0.9600  2.1399
  714TIP3   OH223632   6.399   6.780   6.652 -0.0903  0.1071  0.3631
  714TIP3    H123633   6.382   6.844   6.583 -0.6894 -0.1401  0.2761
  714TIP3    H223634   6.312   6.754   6.683  0.1562  1.4113  2.3571
  715TIP3   OH223635   0.321   2.091  12.322 -0.6220 -0.2431 -0.2676
  715TIP3    H123636   0.292   2.174  12.359 -1.4961  0.8654 -3.1374
  715TIP3    H223637   0.417   2.098  12.321 -0.6732  0.6681 -0.2695
  716TIP3   OH223638   1.024   3.367   4.542  0.1099  0.7897 -0.2718
  716TIP3    H123639   1.094   3.309   4.511  0.3592  1.3016 -0.6974
  716TIP3    H223640   0.970   3.383   4.465  0.0586  1.1346 -0.1678
  717TIP3   OH223641   0.331   2.524   6.639  0.5145  0.1208  0.3306
  717TIP3    H123642   0.254   2.500   6.588  0.6010  1.3270 -0.4322
  717TIP3    H223643   0.334   2.461   6.711 -1.2537  0.1430  0.4587
  718TIP3   OH223644   2.327   5.654   3.646  0.5401  0.0428 -0.3129
  718TIP3    H123645   2.388   5.728   3.655  1.4323 -0.4337 -1.9291
  718TIP3    H223646   2.382   5.577   3.656 -0.3937 -0.4635  1.4079
  719TIP3   OH223647   4.349   1.436   4.302  0.1550  0.1170  0.5705
  719TIP3    H123648   4.269   1.404   4.259  1.2109  1.7611 -3.0066
  719TIP3    H223649   4.321   1.514   4.348 -0.7507 -0.8270  1.6885
  720TIP3   OH223650   5.769   4.703   1.261 -0.6592  0.0879  0.3296
  720TIP3    H123651   5.718   4.623   1.253  3.2173 -2.4701 -2.6340
  720TIP3    H223652   5.746   4.754   1.183  1.2275 -1.2049 -1.1710
  721TIP3   OH223653   3.522   3.377   2.997 -0.4640 -0.0143 -0.2358
  721TIP3    H123654   3.464   3.453   3.006 -0.3350  0.0701 -0.1174
  721TIP3    H223655   3.610   3.414   2.994 -0.4954  0.0217 -2.3892
  722TIP3   OH223656   5.174   3.909   3.060 -0.7417  0.3377  1.0762
  722TIP3    H123657   5.188   3.962   3.138  2.0457  3.1514 -1.0566
  722TIP3    H223658   5.245   3.844   3.062 -0.1623  0.9369  0.5566
  723TIP3   OH223659   3.593   2.165   1.336  0.3476  0.2698  0.3673
  723TIP3    H123660   3.526   2.233   1.326 -0.5181 -0.7164 -0.9108
  723TIP3    H223661   3.644   2.169   1.255 -0.0885 -0.9590  0.0042
  724TIP3   OH223662   2.494   6.208  11.347  0.3325  0.5785 -0.0556
  724TIP3    H123663   2.471   6.233  11.437  1.8850  1.1372  0.2141
  724TIP3    H223664   2.464   6.118  11.339  1.7663 -0.1149  1.6505
  725TIP3   OH223665   1.980   0.289   6.643  0.1927 -0.4221 -0.3056
  725TIP3    H123666   2.026   0.343   6.707 -0.0191 -0.6743  0.0571
  725TIP3    H223667   2.039   0.287   6.567  0.5464 -0.3163 -0.0362
  726TIP3   OH223668   1.961   0.879  14.167  0.4790  0.4284  0.1527
  726TIP3    H123669   2.039   0.863  14.114  0.0022  0.4963 -0.5892
  726TIP3    H223670   1.890   0.887  14.103 -0.0809  0.7063  0.7956
  727TIP3   OH223671   1.264   1.454   5.633 -0.1783  0.0883 -0.2325
  727TIP3    H123672   1.305   1.492   5.711 -0.9714 -0.2756  0.3697
  727TIP3    H223673   1.294   1.363   5.633 -0.6550 -0.0733 -0.0069
  728TIP3   OH223674   5.053   1.804  11.788  0.0309  0.0850  0.4496
  728TIP3    H123675   5.049   1.800  11.692 -0.1682 -0.4896  0.4799
  728TIP3    H223676   5.110   1.731  11.812  1.8654  1.4973  0.6554
  729TIP3   OH223677   6.593   0.961   5.433  0.2324  0.2027 -0.1352
  729TIP3    H123678   6.676   0.962   5.385  0.5692  2.0150  0.4100
  729TIP3    H223679   6.618   0.958   5.525 -0.4030 -2.6261  0.0381
  730TIP3   OH223680   4.929   0.284   3.002  0.0557  0.6950 -0.5254
  730TIP3    H123681   4.958   0.242   3.083 -0.5354  0.6363 -0.3388
  730TIP3    H223682   4.912   0.211   2.942 -1.4285  0.6115 -0.0491
  731TIP3   OH223683   6.535   1.517  14.205 -0.0613  0.1274 -0.3372
  731TIP3    H123684   6.570   1.602  14.181  0.1052 -0.1704 -1.1817
  731TIP3    H223685   6.598   1.454  14.169 -0.2481 -0.3513  0.1657
  732TIP3   OH223686   5.117   2.708   5.889 -0.2174 -0.1945  0.1358
  732TIP3    H123687   5.065   2.628   5.900  0.1856 -0.3992  0.6457
  732TIP3    H223688   5.193   2.694   5.947  0.7819 -0.2303 -1.1401
  733TIP3   OH223689   5.292   0.728   2.154  0.3299 -0.0914 -0.5382
  733TIP3    H123690   5.240   0.803   2.183  0.4143  0.0527 -0.7552
  733TIP3    H223691   5.231   0.673   2.105  0.0415 -0.6321  0.3940
  734TIP3   OH223692   3.297   6.655   2.544  0.2778 -0.3284 -0.6099
  734TIP3    H123693   3.281   6.582   2.483  1.5954 -0.9440 -0.2664
  734TIP3    H223694   3.391   6.673   2.535  0.3603  0.0102  0.7520
  735TIP3   OH223695   6.700   2.377   4.404  0.9910 -0.3642  0.4634
  735TIP3    H123696   6.668   2.459   4.443 -0.8418 -1.4762  1.4406
  735TIP3    H223697   6.736   2.328   4.477  2.2845 -0.3844 -0.1544
  736TIP3   OH223698   1.084   4.755  15.414  0.6267 -0.1453  0.2126
  736TIP3    H123699   1.057   4.828  15.470  2.9464  0.6598  0.3748
  736TIP3    H223700   1.037   4.770  15.332 -2.3399 -0.9833  1.6011
  737TIP3   OH223701   6.500   0.390  17.185  0.0223 -0.3069 -0.0130
  737TIP3    H123702   6.548   0.373  17.104 -0.0352 -0.8954  0.0742
  737TIP3    H223703   6.549   0.460  17.228 -0.0576  0.1587 -0.6471
  738TIP3   OH223704   0.183   6.151   5.783 -0.0157 -0.1703  0.2550
  738TIP3    H123705   0.161   6.126   5.693  2.5048 -0.3804 -0.3950
  738TIP3    H223706   0.180   6.247   5.782  2.1963 -0.0420 -0.7812
  739TIP3   OH223707   3.076   3.523   0.173 -0.0994  0.4774  0.2484
  739TIP3    H123708   2.984   3.550   0.174 -0.1024  0.5893  2.5915
  739TIP3    H223709   3.075   3.429   0.187  0.1646  0.5703  0.9036
  740TIP3   OH223710   0.409   1.407   0.613  0.5949 -0.0561  0.1840
  740TIP3    H123711   0.393   1.343   0.544 -1.6481 -0.5940  1.1351
  740TIP3    H223712   0.404   1.492   0.569 -0.5159 -0.4027 -0.3760
  741TIP3   OH223713   5.528   0.597  14.282 -0.3967  0.7873 -0.1477
  741TIP3    H123714   5.598   0.532  14.284  0.9925  2.1669  3.1066
  741TIP3    H223715   5.452   0.551  14.317 -0.3341  0.1278 -0.8319
  742TIP3   OH223716   3.127   2.305   4.998 -0.4029 -0.5731 -0.0721
  742TIP3    H123717   3.164   2.289   4.911  0.7807 -0.9822  0.4881
  742TIP3    H223718   3.156   2.231   5.051 -0.1592  0.2190  0.9507
  743TIP3   OH223719   1.298   1.713   5.496  0.5210  0.3142 -0.5561
  743TIP3    H123720   1.359   1.644   5.522  0.2625  0.2495 -0.1165
  743TIP3    H223721   1.249   1.675   5.422 -0.5899 -0.5157  0.5706
  744TIP3   OH223722   1.872   4.675   0.398 -0.2025  0.0301  0.3043
  744TIP3    H123723   1.935   4.684   0.326  0.3941 -1.5969  0.5770
  744TIP3    H223724   1.790   4.708   0.362 -0.5992 -3.1408 -2.1148
  745TIP3   OH223725   5.034   6.380  13.980 -0.1469  0.7115  0.2428
  745TIP3    H123726   4.953   6.351  13.939  1.0843 -0.1715 -1.6960
  745TIP3    H223727   5.021   6.473  13.997 -1.7846  0.4420  0.6041
  746TIP3   OH223728   2.780   2.158   4.477 -0.3637  0.3147 -0.4249
  746TIP3    H123729   2.691   2.122   4.485  0.0047 -0.3211  1.2796
  746TIP3    H223730   2.767   2.248   4.446 -1.6349  0.3519  0.1519
  747TIP3   OH223731   5.434   2.837   2.862 -0.5573 -0.0047  0.4347
  747TIP3    H123732   5.425   2.781   2.785 -0.2988  0.3318  0.1583
  747TIP3    H223733   5.492   2.788   2.920 -0.7219 -0.2424  0.4008
  748TIP3   OH223734   2.069   0.473  14.179 -0.0237 -0.3186 -0.1247
  748TIP3    H123735   2.007   0.502  14.112  0.2556  0.2311 -0.1544
  748TIP3    H223736   2.147   0.525  14.163  0.2825 -0.6731  0.2051
  749TIP3   OH223737   5.846   6.393  14.603  0.8673 -0.0462  0.4742
  749TIP3    H123738   5.902   6.435  14.668  1.0474  0.9498 -0.3075
  749TIP3    H223739   5.758   6.423  14.624  1.0576  1.1928 -0.4088
  750TIP3   OH223740   0.835   0.337  17.277 -0.4318  0.3581 -0.4297
  750TIP3    H123741   0.766   0.352  17.213 -1.6078  0.8405  0.8991
  750TIP3    H223742   0.805   0.382  17.356  0.3572 -1.2643  0.8649
  751TIP3   OH223743   1.925   5.938  15.018  0.1273 -0.5301 -0.0828
  751TIP3    H123744   1.937   5.843  15.024  0.1054 -0.4441  2.3469
  751TIP3    H223745   1.882   5.962  15.101  0.6356  1.6663 -0.3975
  752TIP3   OH223746   5.739   1.612   2.727  0.2233 -0.3659  0.1545
  752TIP3    H123747   5.708   1.697   2.760 -1.5547 -0.8585 -0.1512
  752TIP3    H223748   5.827   1.631   2.693  0.0122  1.2715  0.4114
  753TIP3   OH223749   5.036   5.265   2.284  0.1281 -0.1217 -0.1316
  753TIP3    H123750   4.996   5.183   2.314 -0.2659  0.2654  0.4219
  753TIP3    H223751   4.986   5.334   2.328 -0.4552  0.4731 -1.6605
  754TIP3   OH223752   4.045   3.233   0.594  0.3241  0.2229 -0.1247
  754TIP3    H123753   4.006   3.207   0.511  1.4842  1.5106 -1.1024
  754TIP3    H223754   4.096   3.156   0.621  0.3087 -0.0330 -0.8168
  755TIP3   OH223755   0.853   2.577   5.754 -0.3413 -0.0581  0.1972
  755TIP3    H123756   0.767   2.538   5.737 -0.2246 -0.2461  0.0330
  755TIP3    H223757   0.912   2.531   5.694 -0.5369  1.7345 -1.4794
  756TIP3   OH223758   0.831   2.312   6.995 -0.5523 -0.2118  0.1868
  756TIP3    H123759   0.841   2.383   7.058 -0.3878  2.2430 -2.3805
  756TIP3    H223760   0.920   2.298   6.961 -1.1364  1.4677 -2.3248
  757TIP3   OH223761   5.089   6.259  15.120  0.2736  0.1527  0.2603
  757TIP3    H123762   5.081   6.204  15.042 -0.3099 -1.4081  1.3734
  757TIP3    H223763   4.998   6.279  15.144  0.4240  0.1637  0.8391
  758TIP3   OH223764   2.917   0.479   6.487  0.5721  0.2639  0.1735
  758TIP3    H123765   2.948   0.569   6.477 -0.4253  0.8349  1.7813
  758TIP3    H223766   2.982   0.437   6.543 -0.6971  1.0491  2.3510
  759TIP3   OH223767   5.840   3.654   0.999  0.2863 -0.2723  0.3770
  759TIP3    H123768   5.886   3.633   0.918 -0.6258  1.0712 -0.5498
  759TIP3    H223769   5.753   3.616   0.988 -0.5598  1.7190 -0.2645
  760TIP3   OH223770   0.135   1.720   2.445 -0.9862 -0.4984  0.4174
  760TIP3    H123771   0.121   1.628   2.468  0.9929 -0.7379  0.8879
  760TIP3    H223772   0.224   1.722   2.410 -1.4806  1.0374 -0.8367
  761TIP3   OH223773   5.487   5.152  17.218 -0.3030  0.0215  0.4104
  761TIP3    H123774   5.491   5.225  17.156 -0.5517  1.7376  2.3151
  761TIP3    H223775   5.518   5.076  17.168 -0.3804  1.3386 -1.7478
  762TIP3   OH223776   4.308   4.734  16.260  0.6168 -0.2707  0.4535
  762TIP3    H123777   4.260   4.708  16.339  0.2305 -1.4548 -0.1615
  762TIP3    H223778   4.360   4.810  16.288 -1.7262  1.2172  1.1074
  763TIP3   OH223779   0.725   0.884   1.772 -0.1502 -0.6470  0.6241
  763TIP3    H123780   0.815   0.888   1.802  0.4644  0.8866 -1.2151
  763TIP3    H223781   0.686   0.812   1.821  1.6017 -0.3236  2.6268
  764TIP3   OH223782   3.187   3.874  13.604  0.1043  0.0994  0.5476
  764TIP3    H123783   3.101   3.857  13.566 -0.1203  0.5879  0.8299
  764TIP3    H223784   3.189   3.969  13.616  1.8264  0.5470 -2.2546
  765TIP3   OH223785   5.026   3.238  16.895 -0.6146 -0.0056 -0.0645
  765TIP3    H123786   5.086   3.306  16.924 -1.1369  0.9698 -1.1734
  765TIP3    H223787   5.004   3.262  16.805 -2.2414 -0.6293  0.1228
  766TIP3   OH223788   4.769   3.325   6.773 -0.0932  0.4650  0.8621
  766TIP3    H123789   4.683   3.335   6.731  0.6799  1.4795 -0.5383
  766TIP3    H223790   4.779   3.405   6.826  0.0786  0.4289  0.8835
  767TIP3   OH223791   2.146   4.252  14.913 -0.1576  0.2265 -0.0055
  767TIP3    H123792   2.139   4.301  14.831  1.2560  0.4240 -0.0342
  767TIP3    H223793   2.152   4.320  14.981  1.3294  0.1316 -0.0043
  768TIP3   OH223794   6.660   1.277  10.916  0.0872  0.3620  0.0015
  768TIP3    H123795   6.695   1.229  10.841 -1.0937 -3.2623  1.5520
  768TIP3    H223796   6.566   1.259  10.915  0.1496 -0.6779  2.7800
  769TIP3   OH223797   5.427   5.177  15.703  0.2658  0.0367 -0.1353
  769TIP3    H123798   5.491   5.229  15.751 -0.8658  0.1558  1.3376
  769TIP3    H223799   5.422   5.218  15.617  0.8210  1.1528  0.3418
  770TIP3   OH223800   6.214   1.772  10.949  0.4926  0.1984 -0.2005
  770TIP3    H123801   6.192   1.792  11.040  1.3388 -0.0908  0.0773
  770TIP3    H223802   6.257   1.851  10.917 -0.5263  0.6068 -0.6148
  771TIP3   OH223803   6.558   5.677  13.042  0.5940  0.2934 -0.2913
  771TIP3    H123804   6.651   5.675  13.019  1.3165 -2.9293  2.2456
  771TIP3    H223805   6.545   5.601  13.098 -3.0724  1.9835  1.5090
  772TIP3   OH223806   1.741   3.214  12.488 -0.7009 -0.3828 -0.0766
  772TIP3    H123807   1.832   3.206  12.517 -0.5805  1.5470  0.2224
  772TIP3    H223808   1.746   3.202  12.393  0.2525  1.9243 -0.3724
  773TIP3   OH223809   2.364   3.621  17.274  0.2421 -0.0126  0.3656
  773TIP3    H123810   2.385   3.689  17.337 -0.2065  0.6065 -0.1443
  773TIP3    H223811   2.381   3.661  17.188  0.2210 -0.6244  0.0677
  774TIP3   OH223812   6.252   2.523   5.296 -0.3845  0.9357  0.9704
  774TIP3    H123813   6.331   2.505   5.245 -2.1687 -0.9684 -1.3892
  774TIP3    H223814   6.219   2.605   5.261 -1.7814 -0.5259 -1.4140
  775TIP3   OH223815   1.874   2.711  15.595  0.1991  0.0582 -0.2285
  775TIP3    H123816   1.954   2.761  15.613  1.0682 -1.7819  1.4574
  775TIP3    H223817   1.803   2.769  15.620  1.1310  0.7862  0.8379
  776TIP3   OH223818   5.536   1.210  16.635  0.3888 -0.5366  0.2019
  776TIP3    H123819   5.468   1.199  16.701  0.5205  0.6497  0.5602
  776TIP3    H223820   5.489   1.236  16.555  0.2453 -1.8081 -0.1433
  777TIP3   OH223821   3.039   5.149  14.755  0.7661 -0.1244 -0.1676
  777TIP3    H123822   3.027   5.141  14.660 -0.8863  1.3840 -0.1428
  777TIP3    H223823   3.083   5.233  14.767  2.5556 -1.0862  0.3556
  778TIP3   OH223824   0.611   4.707   1.986 -0.2762  0.6460 -0.0548
  778TIP3    H123825   0.696   4.742   1.958 -0.7137  1.3080 -0.5960
  778TIP3    H223826   0.622   4.612   1.980  0.5627  0.7099  0.3075
  779TIP3   OH223827   3.371   0.011  13.111  0.1028  0.1384  0.0436
  779TIP3    H123828   3.423   0.005  13.031  0.8684  1.3052  0.4394
  779TIP3    H223829   3.401  -0.063  13.164  0.5219  0.1149 -0.2193
  780TIP3   OH223830   3.759   1.195  16.428 -0.3642  0.4027 -0.3298
  780TIP3    H123831   3.730   1.110  16.461 -0.2827  0.4053 -0.2531
  780TIP3    H223832   3.849   1.203  16.458 -0.0241  0.0488 -1.2326
  781TIP3   OH223833   3.300   2.606  11.430 -0.5225 -0.3310  0.0107
  781TIP3    H123834   3.223   2.617  11.486  0.3451  1.6750  0.9061
  781TIP3    H223835   3.264   2.583  11.344 -2.0703 -0.2284  0.6032
  782TIP3   OH223836   5.819   0.680  13.256 -0.0583 -0.0516  0.0364
  782TIP3    H123837   5.908   0.715  13.250 -0.1854  0.1036 -1.2297
  782TIP3    H223838   5.820   0.600  13.204 -0.3032 -0.8648  1.2292
  783TIP3   OH223839   5.853   3.242  12.293 -0.2372  0.3525  0.4836
  783TIP3    H123840   5.904   3.292  12.357  0.5688 -2.9701  2.6953
  783TIP3    H223841   5.791   3.192  12.346  0.7460 -2.9166 -1.1699
  784TIP3   OH223842   4.979   4.491  12.985 -0.5388 -0.0468  0.0034
  784TIP3    H123843   4.989   4.569  12.931  0.2960 -1.1514 -1.5223
  784TIP3    H223844   5.050   4.433  12.956 -0.7935 -1.1381  1.4938
  785TIP3   OH223845   1.782   2.462   7.219 -0.1640 -0.7957  1.1180
  785TIP3    H123846   1.748   2.539   7.265 -0.0369  0.5745 -0.9686
  785TIP3    H223847   1.752   2.388   7.272  0.2173  0.6510  3.5401
  786TIP3   OH223848   0.869   5.283   4.107  0.3975 -0.0292  0.1501
  786TIP3    H123849   0.928   5.319   4.173  1.6407 -0.7054 -0.5455
  786TIP3    H223850   0.831   5.206   4.149  0.8279 -0.1913  0.2542
  787TIP3   OH223851   4.719   4.555  12.553 -0.0177  0.0586 -0.3735
  787TIP3    H123852   4.747   4.472  12.593  1.5856 -0.0101 -1.5314
  787TIP3    H223853   4.638   4.578  12.599  0.0614 -1.6131  0.6853
  788TIP3   OH223854   2.824   0.022  11.001  0.3899  0.0793 -0.2217
  788TIP3    H123855   2.831  -0.016  11.088 -0.6702 -0.5503 -0.3961
  788TIP3    H223856   2.910   0.010  10.962  1.2856  1.5563  1.1975
  789TIP3   OH223857   1.301   3.326  17.191 -0.0931  0.2087  0.3662
  789TIP3    H123858   1.234   3.377  17.146 -0.7936 -0.7176  0.3406
  789TIP3    H223859   1.362   3.392  17.225  0.4348  0.9570 -1.8487
  790TIP3   OH223860   4.164   1.142  14.314 -0.0620  0.2142 -0.2750
  790TIP3    H123861   4.169   1.216  14.374 -1.7049 -1.2147  1.7795
  790TIP3    H223862   4.247   1.096  14.326 -0.9821 -0.9479  2.2644
  791TIP3   OH223863   0.461   4.316  13.295  0.4466 -0.0155  0.0791
  791TIP3    H123864   0.433   4.355  13.212 -0.2576 -1.6285 -0.4812
  791TIP3    H223865   0.555   4.330  13.297  0.6679 -1.0345 -1.6119
  792TIP3   OH223866   4.107   0.857   3.216  0.1683 -0.4487  0.4518
  792TIP3    H123867   4.176   0.880   3.278 -1.0735 -1.7427  2.4388
  792TIP3    H223868   4.064   0.939   3.194  2.0595  0.3362 -0.5793
  793TIP3   OH223869   1.467   1.748  14.239  0.5054  0.1258  0.2233
  793TIP3    H123870   1.471   1.824  14.181  0.6108 -0.2367 -0.2508
  793TIP3    H223871   1.395   1.767  14.298 -1.2340 -0.5688 -1.5607
  794TIP3   OH223872   2.777   6.435  13.503  0.1210  0.7199 -0.3023
  794TIP3    H123873   2.846   6.370  13.489  0.6404  0.6565  2.1225
  794TIP3    H223874   2.795   6.503  13.439  0.2222 -0.9630 -2.1641
  795TIP3   OH223875   0.006   5.622  16.487  0.1921  0.9258 -0.0278
  795TIP3    H123876  -0.035   5.576  16.414 -1.4110  1.7240  0.3411
  795TIP3    H223877   0.098   5.630  16.461  0.2707 -1.3101 -0.6595
  796TIP3   OH223878   6.144   5.179  12.038 -0.0105 -1.0710  0.3147
  796TIP3    H123879   6.112   5.099  11.996  0.3346  0.3252 -2.8097
  796TIP3    H223880   6.235   5.158  12.060  0.1528 -1.4877 -0.6893
  797TIP3   OH223881   1.534   5.606  12.924 -0.4631 -0.2650 -0.1073
  797TIP3    H123882   1.536   5.626  12.830 -1.9214 -2.3493 -0.6767
  797TIP3    H223883   1.600   5.537  12.936 -1.6004 -1.3876 -0.0437
  798TIP3   OH223884   3.850   2.460  14.173 -0.7010  0.3268  0.0031
  798TIP3    H123885   3.813   2.520  14.109 -0.1350  1.0858  0.3745
  798TIP3    H223886   3.844   2.374  14.131 -1.4568  0.6381 -0.5596
  799TIP3   OH223887   3.595   0.512   0.423 -0.2814  0.5396 -0.2986
  799TIP3    H123888   3.643   0.521   0.341  0.2120 -0.3300 -0.1139
  799TIP3    H223889   3.508   0.545   0.403  0.6066  3.0705 -0.3927
  800TIP3   OH223890   1.673   6.341   1.697  0.3315 -0.6263 -0.1127
  800TIP3    H123891   1.691   6.247   1.691 -0.0338 -0.7798  0.9240
  800TIP3    H223892   1.583   6.351   1.666 -0.2874 -0.9041  1.4947
  801TIP3   OH223893   1.482   4.935  13.776 -0.2572  0.2411  0.1618
  801TIP3    H123894   1.537   4.976  13.709 -1.5643 -1.0818 -1.7990
  801TIP3    H223895   1.541   4.922  13.850  1.8989 -0.3744 -1.5570
  802TIP3   OH223896   5.667   0.463  11.197  0.3097  0.6697  0.6635
  802TIP3    H123897   5.673   0.533  11.262  1.0581  1.5224 -0.2963
  802TIP3    H223898   5.678   0.507  11.113  0.6167 -0.5804  0.0243
  803TIP3   OH223899   4.204   0.514   4.246 -0.1425 -0.0759 -0.1768
  803TIP3    H123900   4.222   0.488   4.336  0.7914 -0.8732 -0.5794
  803TIP3    H223901   4.111   0.538   4.246  0.1265  1.1355  1.2669
  804TIP3   OH223902   5.803   3.182  11.561 -0.1969  0.0368 -0.0029
  804TIP3    H123903   5.758   3.197  11.478 -0.8991 -0.4297  0.2757
  804TIP3    H223904   5.798   3.265  11.607 -0.0828  0.2077 -0.2946
  805TIP3   OH223905   2.875   0.142  11.255  0.1283  0.0883 -0.1826
  805TIP3    H123906   2.781   0.124  11.246 -0.3214  2.2027 -0.2774
  805TIP3    H223907   2.906   0.076  11.316 -1.7086  0.1084  0.8517
  806TIP3   OH223908   1.875   6.284   6.162 -0.6022  0.2353 -0.0133
  806TIP3    H123909   1.941   6.262   6.228 -1.8288  1.3162  1.6581
  806TIP3    H223910   1.924   6.328   6.093  0.5613  0.2355  0.7792
  807TIP3   OH223911   6.235   4.636   6.935  0.1659 -0.0133 -0.6163
  807TIP3    H123912   6.178   4.712   6.948 -0.2018 -0.5828  1.4112
  807TIP3    H223913   6.177   4.561   6.942  0.9098 -0.5536 -0.0617
  808TIP3   OH223914   5.970   0.100   4.462 -0.2826 -0.0133  0.3606
  808TIP3    H123915   6.021   0.110   4.542  0.1181 -0.0194  0.1103
  808TIP3    H223916   5.998   0.016   4.426  0.1025  0.3310 -0.1744
  809TIP3   OH223917   5.250   1.469  16.533 -0.5199 -0.2103  0.1595
  809TIP3    H123918   5.213   1.536  16.476  1.0255  0.4047 -0.1906
  809TIP3    H223919   5.274   1.517  16.613  0.3615 -0.3703  0.0025
  810TIP3   OH223920   4.088   2.119   2.976 -0.2280 -0.4571  0.1014
  810TIP3    H123921   4.147   2.193   2.990  0.4798 -0.6236 -1.6685
  810TIP3    H223922   4.004   2.149   3.010  0.4076  0.5482  0.8537
  811TIP3   OH223923   4.159   1.161  15.145  0.1162 -0.1653 -0.5628
  811TIP3    H123924   4.192   1.246  15.172  0.3691 -0.3725 -0.1983
  811TIP3    H223925   4.162   1.108  15.225  2.4916 -1.3102 -1.3171
  812TIP3   OH223926   0.388   4.434  12.417 -0.1278 -0.6022 -0.0358
  812TIP3    H123927   0.450   4.368  12.387  0.5597  0.2036 -0.4158
  812TIP3    H223928   0.433   4.518  12.404 -1.6930  0.0895 -1.4013
  813TIP3   OH223929   3.908   4.016  12.580 -0.4165 -0.1076  0.0198
  813TIP3    H123930   4.000   3.997  12.599 -0.8563 -0.5317  1.9125
  813TIP3    H223931   3.902   4.012  12.485  1.4735 -0.3106 -0.1247
  814TIP3   OH223932   3.287   2.587  10.955 -0.8325 -0.0045  0.5154
  814TIP3    H123933   3.320   2.498  10.961 -0.1769  0.2800  1.3320
  814TIP3    H223934   3.208   2.580  10.902 -1.1604 -1.1766  1.1299
  815TIP3   OH223935   6.397   5.889  10.962 -0.1024  0.3880  0.0084
  815TIP3    H123936   6.336   5.816  10.949 -0.2133  0.2459  1.2404
  815TIP3    H223937   6.355   5.963  10.918 -0.2188 -0.1584 -0.8417
  816TIP3   OH223938   4.211   5.276   0.810  0.2788 -0.1721 -0.6728
  816TIP3    H123939   4.232   5.190   0.774 -0.3855 -0.9794  0.7682
  816TIP3    H223940   4.124   5.265   0.848 -0.0912  1.3381 -1.0344
  817TIP3   OH223941   4.071   0.725  15.645  0.2809  0.5991 -0.3620
  817TIP3    H123942   4.149   0.691  15.690  0.5975 -0.3289 -1.5583
  817TIP3    H223943   4.088   0.819  15.638  2.1437  0.1992 -2.1027
  818TIP3   OH223944   6.700   3.411   1.833 -0.1159 -0.2934 -0.1006
  818TIP3    H123945   6.673   3.465   1.759 -1.1982 -0.0634  0.4461
  818TIP3    H223946   6.677   3.463   1.910 -0.7823 -1.3391  0.4324
  819TIP3   OH223947   5.024   1.744  11.512 -0.1637  0.5058  0.1538
  819TIP3    H123948   5.020   1.668  11.454 -2.4214 -0.5210  1.5058
  819TIP3    H223949   4.961   1.806  11.474  1.4903  1.6718 -0.8061
  820TIP3   OH223950   1.507   6.755  16.072 -0.0204 -0.1558  0.0146
  820TIP3    H123951   1.509   6.787  16.162 -2.3310  0.7063 -0.1878
  820TIP3    H223952   1.414   6.742  16.053  0.3299  0.6639 -2.5921
  821TIP3   OH223953   0.983   2.069  15.750 -0.0674  0.0973 -0.0843
  821TIP3    H123954   1.064   2.090  15.704  1.3121  0.4998  2.3336
  821TIP3    H223955   0.967   2.144  15.806 -1.4345 -0.5215  0.4037
  822TIP3   OH223956   1.361   4.344   5.244 -0.1237  0.1452  0.0736
  822TIP3    H123957   1.335   4.348   5.152  1.2227  1.4406 -0.2821
  822TIP3    H223958   1.456   4.335   5.242 -0.2749 -2.9092  1.3431
  823TIP3   OH223959   2.964   4.030   0.761 -0.0998 -0.1778  0.1280
  823TIP3    H123960   2.918   3.975   0.698  1.4231 -1.5364  0.1356
  823TIP3    H223961   2.965   4.117   0.722 -1.1485 -0.4853 -0.6370
  824TIP3   OH223962   5.947   2.429   5.007 -0.0751  0.0347  0.1882
  824TIP3    H123963   6.013   2.365   5.034 -1.3187 -0.4058  2.4702
  824TIP3    H223964   5.911   2.394   4.926  1.7371 -0.2345 -0.5561
  825TIP3   OH223965   6.566   0.391   0.150  0.2399 -0.1988 -0.3563
  825TIP3    H123966   6.568   0.456   0.080 -0.0720 -0.1448 -0.3141
  825TIP3    H223967   6.553   0.442   0.230  1.8328 -0.1368 -0.1073
  826TIP3   OH223968   5.086   4.727  13.145  0.8003  0.8658 -0.3667
  826TIP3    H123969   4.993   4.731  13.168  0.7806  2.2941 -0.6155
  826TIP3    H223970   5.110   4.635  13.159 -0.6099  0.5004 -0.1800
  827TIP3   OH223971   5.057   6.311   4.128 -0.0615 -0.5642  0.1284
  827TIP3    H123972   5.112   6.382   4.094 -0.6323 -0.5715 -0.8448
  827TIP3    H223973   4.967   6.340   4.112 -0.3125 -2.1428 -1.7251
  828TIP3   OH223974   3.737   1.610  11.645 -0.8058 -0.2082 -0.2742
  828TIP3    H123975   3.768   1.689  11.600  1.8626  0.2642  2.1270
  828TIP3    H223976   3.681   1.567  11.581  0.1076  2.0453 -2.7974
  829TIP3   OH223977   5.208   4.372   3.901 -0.7973 -0.3877  0.2764
  829TIP3    H123978   5.199   4.290   3.853 -0.6671  0.2519 -0.8537
  829TIP3    H223979   5.209   4.440   3.834  4.2631  0.2798  0.6835
  830TIP3   OH223980   6.388   0.902   0.430 -0.0439  0.2898  0.0562
  830TIP3    H123981   6.388   0.887   0.336 -0.8649  0.4042  0.0323
  830TIP3    H223982   6.410   0.817   0.468 -0.1040  0.1486 -0.2218
  831TIP3   OH223983   5.693   0.797   5.791  0.4063 -0.3533 -0.0475
  831TIP3    H123984   5.735   0.805   5.706 -0.0209 -0.7169 -0.2962
  831TIP3    H223985   5.752   0.844   5.851 -0.1363  1.3919 -0.8117
  832TIP3   OH223986   3.224   3.649   4.902  0.5706 -0.3901  0.2764
  832TIP3    H123987   3.249   3.664   4.993  0.3404 -1.6117  0.5581
  832TIP3    H223988   3.282   3.706   4.851  0.3826  0.6535  1.2006
  833TIP3   OH223989   3.560   3.307   5.660  0.7188  0.1562 -0.6940
  833TIP3    H123990   3.516   3.252   5.725  0.1814 -0.8177 -1.8529
  833TIP3    H223991   3.513   3.391   5.664  2.2220  0.9832  1.8386
  834TIP3   OH223992   4.756   3.363   3.322  0.1180  0.5193 -0.7397
  834TIP3    H123993   4.762   3.283   3.270 -0.0742  0.0345 -0.0365
  834TIP3    H223994   4.677   3.406   3.290 -0.1900  0.0551 -0.6188
  835TIP3   OH223995   1.337   4.384  16.719  0.8608 -0.5973  0.5266
  835TIP3    H123996   1.282   4.321  16.671  1.9361  0.8455 -2.9409
  835TIP3    H223997   1.425   4.373  16.681  1.4829  1.6968  1.1258
  836TIP3   OH223998   4.899   4.214   3.987 -0.3858 -0.6104 -0.8177
  836TIP3    H123999   4.900   4.129   4.032 -0.5958 -0.3353 -0.2867
  836TIP3    H224000   4.912   4.192   3.895 -1.4816 -1.3113 -0.8256
  837TIP3   OH224001   0.173   2.652  14.619 -0.7435  0.1955  0.2572
  837TIP3    H124002   0.164   2.692  14.706  0.8377 -2.4674  1.7650
  837TIP3    H224003   0.267   2.640  14.608 -0.8068  1.2934 -2.3219
  838TIP3   OH224004   3.930   5.717   4.044  1.1702 -1.0289  0.1938
  838TIP3    H124005   3.944   5.649   3.978 -0.5340  0.7356 -2.1656
  838TIP3    H224006   4.010   5.717   4.096  2.0470 -3.4284 -1.0051
  839TIP3   OH224007   4.121   1.751  14.832  0.3431 -0.1710 -0.1636
  839TIP3    H124008   4.156   1.663  14.846 -0.1378 -0.5681 -1.3350
  839TIP3    H224009   4.149   1.774  14.744  0.2407  0.7578  0.0389
  840TIP3   OH224010   6.248   0.242  16.495  0.2003  1.0255 -0.3236
  840TIP3    H124011   6.262   0.214  16.586  1.3143  1.3338 -0.3771
  840TIP3    H224012   6.336   0.244  16.457 -0.0278  2.8109 -0.8469
  841TIP3   OH224013   4.522   0.465  11.377  0.1893 -0.5624 -0.0750
  841TIP3    H124014   4.455   0.531  11.357  1.1298 -0.2112 -2.3586
  841TIP3    H224015   4.589   0.512  11.426 -0.5052 -0.5557  0.8892
  842TIP3   OH224016   3.721   0.715  12.203  0.6162  0.0835  0.1105
  842TIP3    H124017   3.681   0.776  12.265 -1.4164 -2.4107  1.4270
  842TIP3    H224018   3.778   0.660  12.256 -0.0042 -1.1456 -0.4431
  843TIP3   OH224019   1.549   4.423   0.563 -0.4631  0.4772 -0.3364
  843TIP3    H124020   1.546   4.494   0.499  1.3930  2.3296  1.4694
  843TIP3    H224021   1.458   4.395   0.571 -1.0458  1.6220 -2.2170
  844TIP3   OH224022   5.659   4.042  14.364  0.3370  0.3929  0.4842
  844TIP3    H124023   5.683   3.950  14.355 -0.1199  0.4116 -1.1058
  844TIP3    H224024   5.743   4.087  14.377  0.8967  0.0678 -1.6917
  845TIP3   OH224025   1.873   3.695   0.963  0.4872  0.0280 -0.6876
  845TIP3    H124026   1.784   3.675   0.933  0.4498  0.8181 -1.1449
  845TIP3    H224027   1.873   3.672   1.056 -0.2962  0.2975 -0.6100
  846TIP3   OH224028   3.787   1.789   1.425  0.8133  1.1290 -0.5395
  846TIP3    H124029   3.785   1.744   1.509 -0.2546  0.2603 -1.0047
  846TIP3    H224030   3.808   1.879   1.446  2.6393  0.5244  0.4661
  847TIP3   OH224031   0.740   6.075  11.588 -0.0994  0.1207  0.3186
  847TIP3    H124032   0.687   6.078  11.508  1.8082 -0.5876 -1.0479
  847TIP3    H224033   0.725   5.988  11.624 -1.1475  0.5248  0.9005
  848TIP3   OH224034   3.127   3.885   0.916 -0.1674  0.1749  0.3019
  848TIP3    H124035   3.054   3.930   0.873 -0.5669 -1.3056 -0.6258
  848TIP3    H224036   3.194   3.879   0.848  0.3473  0.4056  0.7815
  849TIP3   OH224037   0.126   0.085   5.136 -0.0560  0.3122 -0.3104
  849TIP3    H124038   0.215   0.053   5.121  0.4200  0.4041  2.0117
  849TIP3    H224039   0.138   0.177   5.161 -0.5433 -0.2160  2.1094
  850TIP3   OH224040   0.414   1.979  12.945 -0.1196  0.1242  0.2686
  850TIP3    H124041   0.424   2.067  12.908  0.5705 -0.0864 -0.0596
  850TIP3    H224042   0.342   1.941  12.896 -0.1255  0.3466  0.1006
  851TIP3   OH224043   2.072   5.579  14.539 -0.0707 -0.8242  0.1859
  851TIP3    H124044   2.151   5.633  14.544 -0.9881  0.4827  2.9971
  851TIP3    H224045   2.100   5.492  14.568  0.5116 -0.6152  0.2676
  852TIP3   OH224046   1.438   0.559   5.913  0.4290 -0.2838 -0.1421
  852TIP3    H124047   1.475   0.635   5.958 -0.4562  0.1092 -0.0515
  852TIP3    H224048   1.345   0.560   5.938  0.2567 -0.9632 -0.7381
  853TIP3   OH224049   3.995   5.900  16.756 -0.0547 -0.3000  0.6456
  853TIP3    H124050   4.023   5.863  16.839  1.3121 -1.0223 -0.0958
  853TIP3    H224051   4.035   5.987  16.755 -2.3271  0.8399  1.8883
  854TIP3   OH224052   4.850   4.883   0.843  0.6332 -0.2365 -0.1346
  854TIP3    H124053   4.777   4.938   0.873 -0.5507 -1.3285 -0.8966
  854TIP3    H224054   4.817   4.793   0.853  3.1208 -1.0021  2.6951
  855TIP3   OH224055   1.004   2.165  16.328  0.0759 -0.4138  0.2603
  855TIP3    H124056   1.081   2.194  16.377  1.1921  0.0252 -1.6812
  855TIP3    H224057   0.980   2.082  16.369 -1.4689  1.6416  4.1175
  856TIP3   OH224058   4.093   0.802  14.231  0.4373  0.7272  0.7230
  856TIP3    H124059   4.132   0.791  14.318  0.4083 -0.5547  0.5910
  856TIP3    H224060   4.162   0.776  14.170 -0.6183 -1.8377  0.4927
  857TIP3   OH224061   3.443   1.251   2.088 -0.3321 -0.0931 -0.0350
  857TIP3    H124062   3.468   1.161   2.108  1.0379 -0.4660 -2.8911
  857TIP3    H224063   3.368   1.243   2.029 -0.7955  0.6723  0.4410
  858TIP3   OH224064   1.210   0.299  10.895  0.1982  0.0222  0.2955
  858TIP3    H124065   1.181   0.385  10.865  0.9449 -0.0682 -0.7305
  858TIP3    H224066   1.215   0.245  10.816  1.3452 -0.4828  0.6784
  859TIP3   OH224067   5.098   2.960   3.336 -0.0810  0.9259 -0.3785
  859TIP3    H124068   5.145   2.887   3.376  0.8077  1.2732 -0.7508
  859TIP3    H224069   5.072   2.928   3.250 -0.5628  0.7251 -0.1627
  860TIP3   OH224070   2.572   1.035  10.990 -0.5790 -0.7747  0.3188
  860TIP3    H124071   2.640   1.006  11.051  0.0211 -1.5271 -0.6586
  860TIP3    H224072   2.586   0.981  10.912 -0.5744  0.9353 -0.9265
  861TIP3   OH224073   6.145   5.784   4.936  0.0932 -0.1165  0.0232
  861TIP3    H124074   6.091   5.720   4.983  0.5205 -0.3275  0.2283
  861TIP3    H224075   6.235   5.753   4.948  0.4950  1.4960  1.7074
  862TIP3   OH224076   0.838   6.713   0.775  0.5180 -0.1648 -0.0463
  862TIP3    H124077   0.886   6.767   0.712 -0.9282  1.6716  0.3243
  862TIP3    H224078   0.784   6.655   0.721 -0.9336  1.5885 -0.6120
  863TIP3   OH224079   6.044   4.006  12.310  0.0143  0.3534  0.1364
  863TIP3    H124080   5.958   3.973  12.285 -0.7908  1.8154  0.8888
  863TIP3    H224081   6.105   3.938  12.281 -1.5461 -1.8129  1.5998
  864TIP3   OH224082   6.541   4.873  11.325 -0.3644 -0.3639  0.4338
  864TIP3    H124083   6.523   4.928  11.249 -2.4241  0.8979  1.7386
  864TIP3    H224084   6.588   4.929  11.386  0.0320 -0.9393  0.6716
  865TIP3   OH224085   1.974   6.688   4.922  0.1175 -0.1471 -0.8588
  865TIP3    H124086   1.967   6.761   4.983  0.2979 -1.1235  0.3773
  865TIP3    H224087   2.002   6.728   4.839 -1.0035  1.3199 -0.5764
  866TIP3   OH224088   5.601   1.676   1.601 -0.2296  0.8311  0.0489
  866TIP3    H124089   5.687   1.683   1.559  0.0263  0.3068  0.4732
  866TIP3    H224090   5.620   1.662   1.694 -0.7700  0.5253  0.1190
  867TIP3   OH224091   2.618   2.907  13.031  0.2522 -1.1944  0.6949
  867TIP3    H124092   2.599   2.935  13.121 -0.7345 -0.4490  0.2775
  867TIP3    H224093   2.666   2.980  12.993 -0.9873 -0.6717  0.0631
  868TIP3   OH224094   2.316   2.615   1.563  0.1350 -0.8247  0.6245
  868TIP3    H124095   2.279   2.579   1.643  0.2386 -0.2983  0.9166
  868TIP3    H224096   2.376   2.683   1.593 -0.0219 -0.4432  0.0930
  869TIP3   OH224097   3.478   3.806   6.140  0.6315  0.3001 -0.0935
  869TIP3    H124098   3.418   3.831   6.210  1.8423  0.2681  1.0103
  869TIP3    H224099   3.445   3.721   6.110 -0.7408  0.9893 -0.5791
  870TIP3   OH224100   4.379   6.450   2.671  0.0344 -0.3360 -0.4479
  870TIP3    H124101   4.471   6.429   2.683  0.0327 -0.0340  0.1371
  870TIP3    H224102   4.334   6.404   2.741  0.0011  1.3045  0.6662
  871TIP3   OH224103   2.884   5.237  16.368 -0.5113 -0.1696  0.0565
  871TIP3    H124104   2.889   5.267  16.277 -0.5809  0.7285  0.3375
  871TIP3    H224105   2.916   5.146  16.365  2.4697  0.7906 -0.4009
  872TIP3   OH224106   6.322   4.807   2.238  0.0217 -0.4004 -0.1033
  872TIP3    H124107   6.417   4.805   2.247  0.0191 -1.6497 -0.1054
  872TIP3    H224108   6.307   4.778   2.148 -0.3529  0.2968 -0.2711
  873TIP3   OH224109   4.706   5.851   4.238  0.5936  0.3639 -0.3820
  873TIP3    H124110   4.732   5.911   4.168 -0.1977  3.1442  1.5575
  873TIP3    H224111   4.706   5.905   4.317 -2.3631 -1.6218  1.1635
  874TIP3   OH224112   1.718   5.208   3.804  0.5219 -0.2932 -0.0295
  874TIP3    H124113   1.672   5.237   3.725  3.0228  2.2371 -0.7417
  874TIP3    H224114   1.736   5.115   3.788  0.2714 -0.0443 -2.0770
  875TIP3   OH224115   0.787   0.221  13.346 -0.2607 -0.1215 -0.0055
  875TIP3    H124116   0.706   0.267  13.369  0.2183  0.2125  1.0361
  875TIP3    H224117   0.826   0.197  13.430  1.4804  1.0394 -0.4451
  876TIP3   OH224118   3.584   0.055  15.130 -0.4023  0.0407 -0.4412
  876TIP3    H124119   3.554   0.141  15.101  0.2358  0.0162 -1.2093
  876TIP3    H224120   3.530  -0.008  15.080 -1.4901 -0.0260  0.7746
  877TIP3   OH224121   3.660   1.266  12.095  0.1309  0.0668 -0.0226
  877TIP3    H124122   3.677   1.348  12.141 -1.7829  0.1733  0.5787
  877TIP3    H224123   3.629   1.293  12.009 -0.1313 -0.0188  0.0422
  878TIP3   OH224124   1.930   3.385  12.790 -0.1726 -0.2467  0.7178
  878TIP3    H124125   1.836   3.379  12.774 -0.1672 -0.9912  0.9377
  878TIP3    H224126   1.967   3.307  12.749  0.7166  1.3735 -1.7985
  879TIP3   OH224127   2.116   6.186   6.356 -0.6909  0.5246  0.1987
  879TIP3    H124128   2.180   6.230   6.412 -0.8947  0.2656  0.6344
  879TIP3    H224129   2.034   6.189   6.405 -0.6730 -0.4838  0.3191
  880TIP3   OH224130   6.496   5.858   0.507  0.5575  0.1022  0.2620
  880TIP3    H124131   6.557   5.798   0.464  0.0010 -0.3696  0.1167
  880TIP3    H224132   6.417   5.806   0.522 -0.1954  0.9738 -0.5005
  881TIP3   OH224133   2.769   0.370   2.255 -0.0444 -0.1660 -0.1190
  881TIP3    H124134   2.719   0.452   2.254 -1.8632 -1.2388 -0.9775
  881TIP3    H224135   2.726   0.316   2.320  2.5184  0.2661  2.1254
  882TIP3   OH224136   3.085   1.256   6.817  0.2817  0.4459 -0.3172
  882TIP3    H124137   3.016   1.196   6.845  0.4606  0.0419 -0.7352
  882TIP3    H224138   3.052   1.343   6.840  0.1315  0.1816  0.5230
  883TIP3   OH224139   5.173   6.009   1.135 -0.3736 -0.4959  0.0393
  883TIP3    H124140   5.244   6.072   1.118 -0.6566 -0.0754  0.3885
  883TIP3    H224141   5.126   6.046   1.210 -1.5766 -0.2329 -0.8096
  884TIP3   OH224142   6.234   3.847   5.694 -0.5955  0.1908  0.0316
  884TIP3    H124143   6.237   3.774   5.755  2.2088  0.3851  0.2544
  884TIP3    H224144   6.224   3.806   5.608 -1.1417 -0.2968  0.3239
  885TIP3   OH224145   3.349   3.459  11.746 -0.3938 -0.0170 -0.3121
  885TIP3    H124146   3.259   3.489  11.764 -0.5573 -1.2983  1.3000
  885TIP3    H224147   3.393   3.535  11.711 -1.5606  1.2650  0.8773
  886TIP3   OH224148   4.387   3.632  13.695  0.0256 -0.2766 -0.5761
  886TIP3    H124149   4.307   3.613  13.647 -0.0488  1.0775 -1.0417
  886TIP3    H224150   4.452   3.573  13.657 -0.5515 -0.8006 -0.7687
  887TIP3   OH224151   6.004   4.294  15.024 -0.1550 -0.3714  0.0790
  887TIP3    H124152   6.078   4.354  15.016 -0.3514  0.0847  1.4549
  887TIP3    H224153   6.040   4.219  15.072 -0.6040 -0.0628  0.9265
  888TIP3   OH224154   2.490   4.358   5.962  0.2812 -0.4219  0.3170
  888TIP3    H124155   2.447   4.352   5.877 -0.8082 -2.2922  0.9277
  888TIP3    H224156   2.563   4.418   5.949  0.1707 -0.7127 -1.9458
  889TIP3   OH224157   2.726   5.440  12.825 -0.4143 -0.8626  0.8035
  889TIP3    H124158   2.712   5.391  12.905  0.9415  0.1459  1.7008
  889TIP3    H224159   2.720   5.375  12.755  1.1093 -2.2707  1.9259
  890TIP3   OH224160   1.436   1.181  15.572 -0.4444 -0.3391  0.0798
  890TIP3    H124161   1.446   1.169  15.478 -0.0102  2.4897 -0.3279
  890TIP3    H224162   1.366   1.246  15.581  1.3422  1.5491  1.4901
  891TIP3   OH224163   6.213   3.974   6.861  0.3466  0.0999  0.6910
  891TIP3    H124164   6.122   3.965   6.833  0.7459  0.4742 -0.7928
  891TIP3    H224165   6.247   3.884   6.859  0.2221  0.0560  0.4803
  892TIP3   OH224166   4.290   1.884   0.362  0.5457  0.5406  0.4034
  892TIP3    H124167   4.296   1.913   0.453 -0.7530  1.8766  0.1048
  892TIP3    H224168   4.381   1.868   0.336  0.8512 -1.3260  2.3392
  893TIP3   OH224169   4.353   3.222  15.719  0.0542  0.8043 -0.2553
  893TIP3    H124170   4.314   3.232  15.806 -1.1640  1.0223 -0.7987
  893TIP3    H224171   4.445   3.243  15.731  0.2121 -0.5332  1.2643
  894TIP3   OH224172   4.274   6.206   3.520  0.3233  0.6141  0.1791
  894TIP3    H124173   4.285   6.159   3.437 -1.2449 -0.8811  0.7712
  894TIP3    H224174   4.279   6.299   3.495 -0.0905  0.1998 -1.5929
  895TIP3   OH224175   6.784   3.764   1.160  0.1871 -0.7541  0.0458
  895TIP3    H124176   6.765   3.852   1.191 -0.0230 -1.5632  2.3975
  895TIP3    H224177   6.741   3.759   1.075  1.0462  1.6934 -0.6381
  896TIP3   OH224178   0.836   5.392  16.702 -0.1769 -0.4691 -0.6777
  896TIP3    H124179   0.799   5.304  16.715 -1.5613  0.0326 -1.1316
  896TIP3    H224180   0.761   5.448  16.685  0.4970  1.1686  1.2975
  897TIP3   OH224181   5.753   3.863  15.682  0.3035  0.5292  0.9114
  897TIP3    H124182   5.726   3.926  15.614  1.1966 -0.7519 -0.7179
  897TIP3    H224183   5.829   3.820  15.644  0.1827 -0.9884  2.3223
  898TIP3   OH224184   6.003   0.991   1.050 -0.0066  0.1045  0.4406
  898TIP3    H124185   5.944   1.040   0.992  0.8751 -0.6193 -1.1491
  898TIP3    H224186   5.988   0.899   1.027  1.5893 -0.1074  0.0935
  899TIP3   OH224187   3.494   6.674   1.000 -0.2938  0.1314 -0.1069
  899TIP3    H124188   3.445   6.653   1.079 -0.8783  1.4976 -0.0864
  899TIP3    H224189   3.585   6.678   1.029 -0.5460  1.0384  0.5930
  900TIP3   OH224190   0.686   6.705  12.163 -0.0192  0.2098 -0.0734
  900TIP3    H124191   0.694   6.622  12.117  1.1165  0.8037 -0.9918
  900TIP3    H224192   0.604   6.742  12.132 -1.2574 -1.1579  1.3906
  901TIP3   OH224193   6.186   3.438   4.393  0.0128 -0.3915 -0.3566
  901TIP3    H124194   6.225   3.521   4.365  1.2811 -0.5210  0.8794
  901TIP3    H224195   6.202   3.378   4.320 -0.3738  0.2866 -1.0083
  902TIP3   OH224196   0.599   5.545  12.688 -0.1672  0.3750  0.0698
  902TIP3    H124197   0.513   5.575  12.657 -0.1924  1.7753  1.4090
  902TIP3    H224198   0.650   5.625  12.700  1.7088 -0.4686 -1.6210
  903TIP3   OH224199   1.770   3.289  11.266 -0.2018  0.0662 -0.3345
  903TIP3    H124200   1.776   3.243  11.182 -0.0823 -1.8405  0.6713
  903TIP3    H224201   1.848   3.345  11.268  0.2802 -0.5558 -1.0935
  904TIP3   OH224202   0.019   4.717   3.686 -0.0318 -0.0502 -0.1950
  904TIP3    H124203   0.092   4.704   3.747 -0.0755 -1.5023 -0.4302
  904TIP3    H224204  -0.058   4.718   3.742 -0.0241 -0.8199 -0.1679
  905TIP3   OH224205   5.133   6.227  17.041  0.1348 -0.0043 -0.3636
  905TIP3    H124206   5.135   6.270  17.127  1.1849  0.2845 -0.5191
  905TIP3    H224207   5.225   6.214  17.018  0.0113  2.0908 -2.4980
  906TIP3   OH224208   4.223   2.401  16.923  0.2635 -0.0057 -0.0279
  906TIP3    H124209   4.254   2.478  16.875  0.7302  0.8642  1.5934
  906TIP3    H224210   4.169   2.437  16.993 -0.0728 -1.2127  0.3594
  907TIP3   OH224211   3.790   1.552   2.269  0.1604  0.1554 -0.2512
  907TIP3    H124212   3.805   1.474   2.322 -1.2606 -1.0986 -1.5783
  907TIP3    H224213   3.699   1.543   2.239  0.6263  1.2392 -2.1536
  908TIP3   OH224214   6.073   4.489  13.839 -0.5778 -0.5616 -0.4627
  908TIP3    H124215   6.039   4.571  13.873 -0.5811 -0.8502  0.2302
  908TIP3    H224216   6.029   4.420  13.889 -1.1314 -1.0232 -1.5370
  909TIP3   OH224217   3.735   6.484   2.345  0.3541 -0.5257 -0.4281
  909TIP3    H124218   3.805   6.498   2.281  0.0286 -0.0626 -0.6946
  909TIP3    H224219   3.655   6.510   2.298  0.0421 -0.7659 -0.0299
  910TIP3   OH224220   4.404   1.387  16.579  1.1628  0.8304  0.1451
  910TIP3    H124221   4.375   1.383  16.488  0.7651 -0.4416  0.2999
  910TIP3    H224222   4.333   1.433  16.624  0.3553 -0.3407  0.1413
  911TIP3   OH224223   2.011   3.876  12.050 -0.5192  0.8264  0.0792
  911TIP3    H124224   1.954   3.830  12.112  0.1855 -2.4169 -1.4739
  911TIP3    H224225   1.952   3.935  12.003 -1.6420  1.0482  1.6694
  912TIP3   OH224226   5.610   6.784   5.805  0.2266  0.5411  0.2278
  912TIP3    H124227   5.531   6.809   5.852  0.4007  1.1099  0.2234
  912TIP3    H224228   5.682   6.804   5.866  0.3975  0.4855  0.0471
  913TIP3   OH224229   5.414   4.162   0.285  0.0211 -0.4936 -0.1080
  913TIP3    H124230   5.441   4.071   0.270 -1.0381 -0.5411 -1.9748
  913TIP3    H224231   5.471   4.213   0.227 -0.4472 -0.1139 -0.2336
  914TIP3   OH224232   0.420   3.719  16.715  0.1316  0.0079  0.6032
  914TIP3    H124233   0.474   3.658  16.664 -0.5583 -0.3674  0.3106
  914TIP3    H224234   0.464   3.722  16.800  1.1283  0.4197  0.0937
  915TIP3   OH224235   0.098   5.857   0.772  0.5019 -0.0440  0.2542
  915TIP3    H124236   0.085   5.868   0.866  0.6093 -0.4494  0.3159
  915TIP3    H224237   0.131   5.942   0.742  0.0582  0.2232  0.5096
  916TIP3   OH224238   5.176   3.364   6.007  0.0729  0.6985 -0.5127
  916TIP3    H124239   5.081   3.380   6.004 -0.3361 -1.4172 -0.7469
  916TIP3    H224240   5.194   3.346   6.099  0.1161  0.4920 -0.5604
  917TIP3   OH224241   3.661   4.771  16.072  0.2870 -0.5786 -0.2725
  917TIP3    H124242   3.707   4.784  15.989  1.7699  2.1895  0.8606
  917TIP3    H224243   3.660   4.857  16.113 -0.8057 -1.7501  2.4176
  918TIP3   OH224244   2.223   5.854  14.557  0.0073 -0.2390 -0.3955
  918TIP3    H124245   2.244   5.906  14.636 -1.6140  1.5627 -1.0846
  918TIP3    H224246   2.302   5.801  14.543  0.1873 -1.0034  2.6875
  919TIP3   OH224247   3.582   4.213  14.679 -0.4783  0.2675 -0.8384
  919TIP3    H124248   3.582   4.171  14.765 -2.3511  0.1420 -0.8608
  919TIP3    H224249   3.532   4.294  14.692 -1.9784 -0.4227 -2.0888
  920TIP3   OH224250   4.655   0.719   0.393 -0.4441  0.3192  0.0151
  920TIP3    H124251   4.730   0.732   0.450  0.0336  0.4375 -0.6302
  920TIP3    H224252   4.683   0.752   0.308 -0.5256 -1.4389 -0.7366
  921TIP3   OH224253   5.527   3.290  16.230  0.0898  0.0317 -0.5632
  921TIP3    H124254   5.441   3.296  16.187 -0.4511 -2.3957  0.0155
  921TIP3    H224255   5.566   3.210  16.194  0.7629 -0.5832  1.4203
  922TIP3   OH224256   6.489   2.982   5.961 -0.2765 -0.0508  0.6302
  922TIP3    H124257   6.422   2.914   5.969 -0.1679 -0.1439  0.7578
  922TIP3    H224258   6.558   2.941   5.909 -0.3703  0.0847  0.4001
  923TIP3   OH224259   4.593   6.619   2.500 -0.2351 -0.7332  0.1887
  923TIP3    H124260   4.629   6.539   2.539 -0.9122 -0.8530  0.6017
  923TIP3    H224261   4.498   6.608   2.509 -0.3343  0.1757  0.3645
  924TIP3   OH224262   4.006   5.053  16.033  0.2124 -0.7278  0.0089
  924TIP3    H124263   4.008   5.023  15.943  1.0057  3.1761 -1.5046
  924TIP3    H224264   4.093   5.032  16.068  0.3708 -1.1003 -0.6033
  925TIP3   OH224265   6.267   5.002   5.950  0.6198  0.0437 -1.0148
  925TIP3    H124266   6.272   5.069   6.017  1.1557  0.8934 -1.8829
  925TIP3    H224267   6.285   4.920   5.996  0.3334  0.5337 -0.0153
  926TIP3   OH224268   5.731   1.503  11.804  0.0876 -1.0857  0.6531
  926TIP3    H124269   5.676   1.576  11.834 -2.3701 -3.0111  1.1827
  926TIP3    H224270   5.708   1.493  11.711 -0.4276 -1.8677  0.8611
  927TIP3   OH224271   4.738   2.408   5.229  0.2228  0.4342 -0.2228
  927TIP3    H124272   4.679   2.385   5.157 -1.5365 -0.5244  1.4476
  927TIP3    H224273   4.826   2.405   5.190 -0.5979 -0.9500 -2.0989
  928TIP3   OH224274   3.796   4.445  12.944  0.4945  0.3772  0.2568
  928TIP3    H124275   3.765   4.388  12.873 -0.2060  3.3286 -2.0222
  928TIP3    H224276   3.717   4.474  12.989  0.4967  1.9371 -0.6605
  929TIP3   OH224277   4.021   2.474  13.133 -0.5902 -0.3594  0.3371
  929TIP3    H124278   3.946   2.506  13.082 -0.1505 -0.0222 -0.1161
  929TIP3    H224279   3.985   2.407  13.190 -0.9852 -1.2485 -0.9066
  930TIP3   OH224280   2.839   1.134   5.083 -0.1334  0.3746  0.5229
  930TIP3    H124281   2.827   1.057   5.028 -1.7308  2.2937 -2.0056
  930TIP3    H224282   2.761   1.136   5.139 -0.7174  0.8242 -0.2993
  931TIP3   OH224283   0.734   6.265  14.318  0.5512 -0.0301  0.3692
  931TIP3    H124284   0.820   6.232  14.291  0.3197 -0.9454  0.7183
  931TIP3    H224285   0.706   6.205  14.387 -0.0083  0.7536  0.8372
  932TIP3   OH224286   5.808   5.753   1.624 -0.1584 -0.6604  0.0121
  932TIP3    H124287   5.784   5.717   1.709 -2.0046  0.4871  0.0184
  932TIP3    H224288   5.735   5.810   1.600  1.3642  0.8475 -1.2942
  933TIP3   OH224289   5.388   1.865   3.670  0.2033  0.1042  0.0588
  933TIP3    H124290   5.319   1.883   3.733 -0.4744  1.4974 -1.0134
  933TIP3    H224291   5.343   1.864   3.585  1.5107  1.2707 -0.6872
  934TIP3   OH224292   4.210   1.664  13.015 -0.1042 -0.3175  0.2815
  934TIP3    H124293   4.210   1.747  13.063 -0.3799 -0.5634  0.7107
  934TIP3    H224294   4.256   1.684  12.934 -0.3804  0.3165  0.2748
  935TIP3   OH224295   6.622   5.323  16.563 -0.1408  0.1237  0.2942
  935TIP3    H124296   6.578   5.239  16.582  0.7110 -0.5409 -0.5745
  935TIP3    H224297   6.559   5.371  16.510 -0.3945 -0.2260  0.2727
  936TIP3   OH224298   2.646   1.236  11.265 -0.0465 -1.1817 -0.6347
  936TIP3    H124299   2.600   1.242  11.349 -1.2285 -0.1196 -1.3206
  936TIP3    H224300   2.733   1.271  11.283 -0.6368  0.0746 -0.0541
  937TIP3   OH224301   2.469   3.331  12.215 -0.7510 -0.0351 -0.0651
  937TIP3    H124302   2.405   3.343  12.144 -0.2605 -0.3936 -0.5731
  937TIP3    H224303   2.498   3.420  12.237 -0.5229  0.0380 -0.6622
  938TIP3   OH224304   5.072   0.854   4.079  0.2504 -0.2558  0.0616
  938TIP3    H124305   5.012   0.923   4.049 -1.0440 -1.2908  0.1316
  938TIP3    H224306   5.136   0.846   4.008  0.6435  1.2387  0.2182
  939TIP3   OH224307   2.547   4.434   3.832 -0.0149  0.1037 -0.7275
  939TIP3    H124308   2.608   4.463   3.765  1.5595 -2.6249 -0.6152
  939TIP3    H224309   2.537   4.510   3.890  0.4837  1.7341 -2.6591
  940TIP3   OH224310   2.620   4.155   2.062  0.1572  0.2407 -0.2038
  940TIP3    H124311   2.684   4.177   1.993  0.2749 -0.6663 -0.3976
  940TIP3    H224312   2.580   4.239   2.085 -1.8456  0.2957 -3.3030
  941TIP3   OH224313   3.069   0.287   2.872 -0.1338  0.8812  0.5373
  941TIP3    H124314   3.079   0.210   2.928  0.8840  2.3297  2.4585
  941TIP3    H224315   3.039   0.357   2.931 -1.0214  1.9919 -1.1389
  942TIP3   OH224316   1.528   1.584  13.213 -0.4937 -0.4398 -0.0131
  942TIP3    H124317   1.495   1.570  13.302 -2.3974 -0.8975 -0.7508
  942TIP3    H224318   1.568   1.501  13.188 -1.5728 -0.9094 -0.2212
  943TIP3   OH224319   3.325   6.560  13.991 -0.7331  0.3581 -0.1263
  943TIP3    H124320   3.240   6.517  13.993  0.0298 -1.2092  1.7605
  943TIP3    H224321   3.383   6.497  13.947 -0.6224  1.7116 -2.0734
  944TIP3   OH224322   4.870   2.657   2.101 -0.1620  0.0588  0.7602
  944TIP3    H124323   4.877   2.588   2.167  1.0426 -2.1479 -1.5102
  944TIP3    H224324   4.782   2.647   2.065 -0.3150  0.3505  1.0405
  945TIP3   OH224325   5.122   1.175   3.041 -0.6487  0.0885 -0.2336
  945TIP3    H124326   5.104   1.251   2.985  0.7617 -0.7621 -1.9136
  945TIP3    H224327   5.213   1.153   3.024 -1.1257 -2.2232 -0.0941
  946TIP3   OH224328   2.800   2.467   5.847 -0.0464  0.2192 -0.3547
  946TIP3    H124329   2.730   2.461   5.781 -0.4758 -0.7578  0.1684
  946TIP3    H224330   2.782   2.394   5.907  2.0118 -0.6890 -0.7751
  947TIP3   OH224331   5.201   2.992   2.436 -0.0917 -0.1254 -0.2618
  947TIP3    H124332   5.290   2.964   2.454  0.5374  0.1832 -2.5935
  947TIP3    H224333   5.170   2.934   2.367 -0.1868  2.2341 -2.3633
  948TIP3   OH224334   6.474   4.353   5.780 -0.2387 -0.2079  0.0417
  948TIP3    H124335   6.509   4.372   5.867  1.6728 -0.8709 -0.5228
  948TIP3    H224336   6.379   4.356   5.790 -0.0638  2.0035  1.6292
  949TIP3   OH224337   5.016   0.555   1.611 -0.1659  0.4860  0.4133
  949TIP3    H124338   4.939   0.511   1.648 -0.0184  0.4533  0.6851
  949TIP3    H224339   5.083   0.486   1.609 -0.5660  0.1166 -1.1907
  950TIP3   OH224340   6.566   1.175   6.160 -0.9851 -0.3651 -0.0412
  950TIP3    H124341   6.584   1.234   6.087 -1.5144 -1.3025 -0.9559
  950TIP3    H224342   6.632   1.197   6.226  0.6289 -0.6776 -1.4860
  951TIP3   OH224343   2.411   3.841   0.020  0.1633 -0.2818  0.0647
  951TIP3    H124344   2.476   3.886  -0.033 -0.4061  1.0396  0.4461
  951TIP3    H224345   2.411   3.888   0.104 -0.9868 -0.4964  0.2108
  952TIP3   OH224346   6.386   4.411   0.406  0.1101 -0.0972 -0.2210
  952TIP3    H124347   6.385   4.316   0.415  0.4331 -0.0505  0.4037
  952TIP3    H224348   6.458   4.439   0.463  0.7011  0.4439 -1.1947
  953TIP3   OH224349   0.078   1.319  16.190  0.0243  0.2201 -0.5736
  953TIP3    H124350   0.008   1.256  16.209  1.2042 -1.2337 -0.9474
  953TIP3    H224351   0.079   1.377  16.267 -1.6769  0.3821 -0.6334
  954TIP3   OH224352   3.597   3.360  13.257  0.7828  0.5168  0.7248
  954TIP3    H124353   3.536   3.366  13.331  1.4880  0.2351  1.3370
  954TIP3    H224354   3.557   3.415  13.189 -0.8967 -0.8035  0.5658
  955TIP3   OH224355   1.891   4.823   3.145  0.0608 -0.3095 -0.5366
  955TIP3    H124356   1.885   4.745   3.090  0.4065  0.2422 -1.3720
  955TIP3    H224357   1.979   4.857   3.130 -0.1068  0.2769 -0.2350
  956TIP3   OH224358   5.221   2.665  14.241  0.2286  0.4821 -0.0042
  956TIP3    H124359   5.313   2.663  14.216  0.3405  0.3351  0.4025
  956TIP3    H224360   5.222   2.657  14.337 -0.2167  0.1682 -0.0181
  957TIP3   OH224361   4.639   5.453   3.452  0.0863  0.5353  0.1068
  957TIP3    H124362   4.698   5.432   3.525  0.2100 -1.6119 -0.5302
  957TIP3    H224363   4.638   5.548   3.448  1.5123  0.6627  1.7603
  958TIP3   OH224364   5.495   3.093  13.229 -0.1885  0.1092 -0.3935
  958TIP3    H124365   5.531   3.165  13.177  0.6089  2.1771  2.7361
  958TIP3    H224366   5.572   3.052  13.269 -0.8543 -0.1068  0.7047
  959TIP3   OH224367   3.489   6.084  16.984  0.4835  0.1797  0.5227
  959TIP3    H124368   3.414   6.101  16.928  0.2400 -0.9508  0.4856
  959TIP3    H224369   3.532   6.007  16.945  0.7675 -0.1268  1.4114
  960TIP3   OH224370   4.714   1.635   1.291 -0.5212 -0.0463  0.5066
  960TIP3    H124371   4.806   1.637   1.318 -0.4981  0.9535  0.4125
  960TIP3    H224372   4.665   1.651   1.372 -0.5632  0.3417  0.4097
  961TIP3   OH224373   2.979   0.225  11.564 -0.6446  0.1293 -0.1845
  961TIP3    H124374   3.040   0.287  11.604 -1.4247  0.5916  0.3216
  961TIP3    H224375   3.035   0.158  11.524  0.1866  0.1590  0.8663
  962TIP3   OH224376   3.080   2.425   4.643 -0.0811  0.8632 -0.3940
  962TIP3    H124377   3.085   2.432   4.548  0.6895  3.5596 -0.2310
  962TIP3    H224378   2.988   2.443   4.664 -1.1227 -3.1606 -0.7123
  963TIP3   OH224379   4.321   1.513   0.361 -0.4327  0.6150 -0.1602
  963TIP3    H124380   4.242   1.472   0.397  1.0109 -1.6369  0.6292
  963TIP3    H224381   4.334   1.591   0.414 -0.7501 -0.3546  1.4114
  964TIP3   OH224382   4.465   1.781  16.226 -0.2787  0.3499  0.5712
  964TIP3    H124383   4.463   1.866  16.270  0.4712  0.9341 -0.4797
  964TIP3    H224384   4.463   1.717  16.298  0.0089  1.2559  1.4182
  965TIP3   OH224385   5.503   3.207  16.641 -0.0368  0.0717  0.2786
  965TIP3    H124386   5.508   3.285  16.696  2.7656 -0.5477  1.0583
  965TIP3    H224387   5.415   3.210  16.604 -0.3113  3.1583  0.8879
  966TIP3   OH224388   3.644   0.954   0.226 -0.0419  0.2528 -0.0902
  966TIP3    H124389   3.582   1.026   0.220 -0.5021 -0.2584 -2.1757
  966TIP3    H224390   3.605   0.884   0.174  0.6144 -1.3578  1.5002
  967TIP3   OH224391   3.093   0.892  12.456 -0.3495 -0.5733  0.1655
  967TIP3    H124392   3.131   0.807  12.480  1.4695  0.0519 -0.3086
  967TIP3    H224393   3.055   0.878  12.370 -0.5034 -1.0347  0.3065
  968TIP3   OH224394   2.031   2.039   2.784  0.6744  0.1015 -0.0713
  968TIP3    H124395   2.061   2.092   2.857  0.4597 -1.0493  0.8863
  968TIP3    H224396   1.969   2.095   2.737 -0.0109  0.5000  1.2595
  969TIP3   OH224397   3.541   2.436  13.421  0.0341 -0.0534  0.4535
  969TIP3    H124398   3.564   2.468  13.334  0.9318 -1.7344  0.0165
  969TIP3    H224399   3.445   2.434  13.421 -0.0088  1.3118  0.0398
  970TIP3   OH224400   6.284   4.967  14.899  0.6232 -0.1824 -0.1153
  970TIP3    H124401   6.314   5.029  14.832 -0.1119  0.5336  0.1991
  970TIP3    H224402   6.276   4.883  14.852  0.3117  0.2652 -0.8814
  971TIP3   OH224403   3.084   6.156  10.639 -0.5551  0.8674 -0.2364
  971TIP3    H124404   2.992   6.159  10.665 -0.4741  0.7927  0.0575
  971TIP3    H224405   3.084   6.103  10.559 -0.4940 -1.0499  0.9745
  972TIP3   OH224406   1.036   3.530  15.406  0.3191 -0.4346 -0.5324
  972TIP3    H124407   1.062   3.610  15.360  0.3750  0.9839  1.8328
  972TIP3    H224408   1.118   3.491  15.436  0.2458 -1.0304 -1.0865
  973TIP3   OH224409   3.154   1.028   4.728 -0.2924 -0.1649  0.1197
  973TIP3    H124410   3.144   0.935   4.747  2.4197 -0.4079  0.7608
  973TIP3    H224411   3.246   1.037   4.703 -1.0765  1.9639 -2.4361
  974TIP3   OH224412   2.256   1.045   1.128  0.2609 -0.1337  0.0787
  974TIP3    H124413   2.211   0.961   1.122  1.3871 -0.6779 -1.1997
  974TIP3    H224414   2.186   1.110   1.135 -0.6195 -1.1668  1.0916
  975TIP3   OH224415   5.126   1.341  11.531  0.1173 -0.0368 -0.4331
  975TIP3    H124416   5.132   1.428  11.492 -1.4346  0.3936  0.2186
  975TIP3    H224417   5.083   1.287  11.465  1.8782 -0.5996 -1.2038
  976TIP3   OH224418   1.859   4.384   6.470 -0.1341  0.5187 -0.6446
  976TIP3    H124419   1.887   4.380   6.378  0.2937 -0.6962 -0.4739
  976TIP3    H224420   1.893   4.304   6.509  0.0644  1.2365  0.6959
  977TIP3   OH224421   6.374   5.734  16.424  0.0441 -0.1539  0.2993
  977TIP3    H124422   6.285   5.748  16.392 -0.1603 -1.0267  0.4442
  977TIP3    H224423   6.428   5.797  16.375 -0.3538 -0.9977 -1.3212
  978TIP3   OH224424   5.325   5.215   5.846 -0.5142 -0.2899 -0.0554
  978TIP3    H124425   5.340   5.150   5.777  1.6717  0.2558 -0.1515
  978TIP3    H224426   5.407   5.265   5.851 -0.9367  0.2961  2.2972
  979TIP3   OH224427   6.053   3.108   3.590 -0.2856 -0.3038 -0.4177
  979TIP3    H124428   6.052   3.203   3.596 -0.0346 -0.3052 -0.3642
  979TIP3    H224429   6.030   3.090   3.498 -0.2044 -0.1888 -0.4604
  980TIP3   OH224430   2.176   3.530  10.628 -0.7340 -0.0735 -0.8617
  980TIP3    H124431   2.086   3.535  10.661 -0.3727  5.0166  0.0780
  980TIP3    H224432   2.173   3.568  10.541  0.8020  4.6202  0.8022
  981TIP3   OH224433   1.730   2.816  14.585 -0.2258  0.1418 -0.1359
  981TIP3    H124434   1.719   2.874  14.509 -2.8146  2.4084  1.7570
  981TIP3    H224435   1.685   2.735  14.561  0.2472  0.2510 -1.4833
  982TIP3   OH224436   5.938   0.152  16.194  0.2280  0.1341  0.2274
  982TIP3    H124437   5.973   0.142  16.105  1.5511  0.3115  0.7203
  982TIP3    H224438   5.849   0.116  16.188  0.4895 -0.3531 -1.0402
  983TIP3   OH224439   3.179   0.025  11.470  0.6286  0.1861  0.0991
  983TIP3    H124440   3.097  -0.024  11.480  0.9068 -0.6747 -1.5074
  983TIP3    H224441   3.212  -0.001  11.384  3.7253 -1.2423  1.5557
  984TIP3   OH224442   4.247   2.315  13.387 -0.4763  0.0815 -0.0085
  984TIP3    H124443   4.176   2.272  13.340 -3.0395  2.7260  1.1197
  984TIP3    H224444   4.288   2.245  13.438 -1.8632 -1.6589 -1.1607
  985TIP3   OH224445   2.067   2.565   1.486 -0.0877 -0.2641  0.7879
  985TIP3    H124446   2.030   2.639   1.438 -0.9812 -1.7286 -0.8908
  985TIP3    H224447   2.162   2.579   1.481 -0.2457  1.0336  0.9901
  986TIP3   OH224448   4.583   5.524  14.708 -0.2117  0.1144 -0.0085
  986TIP3    H124449   4.497   5.481  14.708  0.0813 -0.4952  0.1335
  986TIP3    H224450   4.566   5.613  14.680 -1.4010  1.0185  3.2128
  987TIP3   OH224451   3.482   1.248  11.560 -0.3698 -0.3745 -0.3038
  987TIP3    H124452   3.493   1.298  11.642 -0.8571 -1.0977  0.2128
  987TIP3    H224453   3.440   1.310  11.500  2.7276  1.1659 -1.0489
  988TIP3   OH224454   4.190   4.447   1.923 -0.4296 -0.2862 -0.0725
  988TIP3    H124455   4.209   4.528   1.972 -1.7066 -1.1804  2.0426
  988TIP3    H224456   4.197   4.473   1.831  1.0280  1.7653  0.5360
  989TIP3   OH224457   5.485   1.600  12.660  0.6307 -0.2795  0.2609
  989TIP3    H124458   5.514   1.555  12.739 -0.6054 -1.1784  0.2331
  989TIP3    H224459   5.549   1.670  12.647  1.8294 -1.2011  1.0605
  990TIP3   OH224460   6.208   2.957   4.420  0.3034  0.0313  0.0522
  990TIP3    H124461   6.258   2.984   4.497 -0.2504  0.6408  0.2109
  990TIP3    H224462   6.274   2.948   4.351  0.9921 -1.7550  0.8726
  991TIP3   OH224463   1.965   5.376   0.513 -0.0200 -0.4677  0.2861
  991TIP3    H124464   1.914   5.296   0.501 -0.4140 -0.0648 -0.8844
  991TIP3    H224465   1.916   5.427   0.577 -1.4394  0.1748 -1.2676
  992TIP3   OH224466   3.667   5.977   3.805 -0.2016  0.3052 -0.2803
  992TIP3    H124467   3.703   5.943   3.887  2.9741 -1.9531 -2.3466
  992TIP3    H224468   3.622   5.902   3.766  1.4597  0.1719 -2.1151
  993TIP3   OH224469   5.651   5.616   5.018 -0.0596 -0.2664 -0.3815
  993TIP3    H124470   5.595   5.694   5.009  0.1131 -0.0391  0.4524
  993TIP3    H224471   5.641   5.570   4.934 -0.6511  0.3295 -0.6508
  994TIP3   OH224472   2.954   3.149  11.560 -0.5335 -0.0589  0.2474
  994TIP3    H124473   2.873   3.190  11.530  0.0918  0.6104 -0.5781
  994TIP3    H224474   2.931   3.057  11.574 -1.2958  0.0014 -0.5456
  995TIP3   OH224475   3.369   1.045  16.886  0.2971  0.1156 -0.3298
  995TIP3    H124476   3.341   1.112  16.948 -0.1466  1.2258 -1.6837
  995TIP3    H224477   3.375   1.091  16.802 -0.3464 -1.6134 -1.3661
  996TIP3   OH224478   4.133   1.305   3.351 -0.2087  0.6425 -0.4197
  996TIP3    H124479   4.136   1.395   3.319  1.5452  0.1983 -1.6806
  996TIP3    H224480   4.211   1.298   3.407 -2.0605  0.7789  2.3505
  997TIP3   OH224481   5.698   3.920  13.190 -0.2542  0.4532 -0.0367
  997TIP3    H124482   5.757   3.864  13.242 -1.3235  0.2208  0.9713
  997TIP3    H224483   5.632   3.949  13.253 -0.4904  1.7520 -0.8638
  998TIP3   OH224484   2.090   3.736   6.325  0.1410 -0.2777  0.4892
  998TIP3    H124485   2.106   3.708   6.235  0.4085 -0.0396  0.4625
  998TIP3    H224486   1.996   3.755   6.328 -0.4622 -2.8885  0.9749
  999TIP3   OH224487   5.507   1.731  14.608  0.7302 -0.0777 -0.1448
  999TIP3    H124488   5.543   1.774  14.686  0.4340  0.0764 -0.0907
  999TIP3    H224489   5.436   1.676  14.642  0.5969 -0.0061 -0.3045
 1000TIP3   OH224490   6.776   5.113   2.058  0.1823 -0.9809  0.0615
 1000TIP3    H124491   6.689   5.152   2.064  0.2534 -0.9342  0.9056
 1000TIP3    H224492   6.837   5.187   2.058  0.2892 -1.0527  1.1039
 1001TIP3   OH224493   2.990   1.778   2.863 -0.2738  0.6195 -0.1740
 1001TIP3    H124494   2.999   1.714   2.933  1.7223 -0.6433 -1.5129
 1001TIP3    H224495   2.902   1.762   2.827 -0.4378 -0.2209  0.5738
 1002TIP3   OH224496   1.265   1.714  11.662 -0.1832 -0.7873 -0.2094
 1002TIP3    H124497   1.352   1.672  11.666 -0.1903 -1.0261 -1.9266
 1002TIP3    H224498   1.234   1.713  11.753  1.6493 -0.6009  0.4609
 1003TIP3   OH224499   4.796   1.587   0.211 -0.5249 -0.1521 -0.1433
 1003TIP3    H124500   4.738   1.662   0.228 -0.8595  0.2966 -2.8426
 1003TIP3    H224501   4.879   1.626   0.187  0.1622 -0.7628  1.1350
 1004TIP3   OH224502   0.897   1.761  11.205 -0.4794  0.3499 -0.0518
 1004TIP3    H124503   0.953   1.694  11.245 -2.1817 -1.0287  0.1562
 1004TIP3    H224504   0.854   1.804  11.278 -2.0445 -0.7830 -0.2425
 1005TIP3   OH224505   3.595   6.059  11.702  0.4090 -0.2095 -0.0229
 1005TIP3    H124506   3.618   6.012  11.782 -1.4031 -0.7521  0.2241
 1005TIP3    H224507   3.647   6.139  11.706  0.6675 -0.4159  1.4791
 1006TIP3   OH224508   6.759   4.380   2.025 -0.3642 -0.4691  0.1284
 1006TIP3    H124509   6.753   4.352   1.933  0.8328 -0.3775  0.0004
 1006TIP3    H224510   6.789   4.302   2.072  0.0220 -0.2429  0.2660
 1007TIP3   OH224511   2.475   4.712   0.977 -0.3898  0.1789  0.7991
 1007TIP3    H124512   2.410   4.732   1.045 -0.0247  0.6809  1.0034
 1007TIP3    H224513   2.427   4.659   0.913 -1.0866  0.8058  0.7966
 1008TIP3   OH224514   2.240   4.033  16.797 -0.5464 -0.0620 -0.1408
 1008TIP3    H124515   2.254   4.042  16.703 -1.0951 -1.6785 -0.3976
 1008TIP3    H224516   2.166   4.091  16.816 -0.9337 -0.3156 -0.8531
 1009TIP3   OH224517   1.695   1.103  12.376 -0.3635  0.1503 -0.3931
 1009TIP3    H124518   1.626   1.167  12.391  1.0367  2.3612 -2.4740
 1009TIP3    H224519   1.730   1.126  12.290 -0.0504 -3.8010 -1.5261
 1010TIP3   OH224520   1.094   5.168   1.943 -0.6712  0.5400 -0.1138
 1010TIP3    H124521   1.131   5.126   1.865 -0.0309  2.1086 -0.7062
 1010TIP3    H224522   1.024   5.109   1.971  1.0131 -1.5609 -0.0942
 1011TIP3   OH224523   5.833   4.313  11.439  0.2753 -0.4153  0.3247
 1011TIP3    H124524   5.922   4.285  11.419 -0.3729 -2.1854 -0.2700
 1011TIP3    H224525   5.800   4.347  11.356  0.3794  0.2674  0.5523
 1012TIP3   OH224526   3.263   0.658  14.677 -0.3366  0.2204 -0.2388
 1012TIP3    H124527   3.230   0.709  14.751  0.5670 -0.7245  0.8560
 1012TIP3    H224528   3.188   0.647  14.619 -0.8141  1.8143  0.0524
 1013TIP3   OH224529   1.107   5.437   2.026  0.1613  0.0220 -0.2147
 1013TIP3    H124530   1.126   5.356   1.979  1.2363  0.3371 -0.3572
 1013TIP3    H224531   1.132   5.419   2.117 -0.2351 -0.0179 -0.1121
 1014TIP3   OH224532   3.259   0.752  13.437  0.0234  0.4621  0.4481
 1014TIP3    H124533   3.204   0.691  13.487 -0.6326  1.7236  1.3404
 1014TIP3    H224534   3.250   0.724  13.346 -0.7633 -0.3782  0.7730
 1015TIP3   OH224535   3.191   1.224  16.719  0.0197 -0.4052  0.8364
 1015TIP3    H124536   3.275   1.243  16.677 -1.5920  0.4559 -2.3268
 1015TIP3    H224537   3.147   1.162  16.660 -1.8641 -0.2681  1.9898
 1016TIP3   OH224538   0.799   4.474  14.237 -0.0393 -0.4638 -0.5833
 1016TIP3    H124539   0.729   4.418  14.269  0.0726  0.2803  1.0467
 1016TIP3    H224540   0.867   4.469  14.304 -0.1806  1.8745 -0.1855
 1017TIP3   OH224541   1.465   0.956   4.585  0.5895 -0.7806 -0.2189
 1017TIP3    H124542   1.536   0.897   4.559  0.4001 -1.2205  0.2428
 1017TIP3    H224543   1.509   1.028   4.631  0.7938 -0.7228 -0.5051
 1018TIP3   OH224544   3.055   0.932   2.273  0.1054 -0.1639 -0.1353
 1018TIP3    H124545   3.054   0.877   2.195 -0.9140  0.1132 -0.3289
 1018TIP3    H224546   3.103   0.881   2.338 -2.0789 -1.9963  0.1824
 1019TIP3   OH224547   6.192   4.730  15.869 -0.3469  0.3875 -0.1137
 1019TIP3    H124548   6.279   4.766  15.856 -1.0055  1.2269 -2.9024
 1019TIP3    H224549   6.199   4.680  15.951  2.9412 -0.2257 -0.6039
 1020TIP3   OH224550   0.563   4.637  12.405  0.1394  0.0616 -0.0596
 1020TIP3    H124551   0.566   4.710  12.344 -1.5796  0.8629  0.7427
 1020TIP3    H224552   0.652   4.630  12.439  0.8165  0.4221 -1.6501
 1021TIP3   OH224553   4.085   6.332  13.072 -0.5090  0.2200  0.3197
 1021TIP3    H124554   4.179   6.313  13.069 -0.5058 -0.0206  1.3980
 1021TIP3    H224555   4.058   6.301  13.158 -1.4247  1.0321  0.3366
 1022TIP3   OH224556   4.109   4.717   4.399 -0.8620 -0.1887  0.4232
 1022TIP3    H124557   4.137   4.761   4.479 -0.0589 -2.1537  1.2838
 1022TIP3    H224558   4.057   4.783   4.353  0.2192  1.6265  1.6368
 1023TIP3   OH224559   3.144   2.153  16.373  0.3648 -0.0866 -0.4373
 1023TIP3    H124560   3.133   2.244  16.345  0.7711  0.2216  0.4001
 1023TIP3    H224561   3.204   2.157  16.447 -1.4353 -0.8008  1.1159
 1024TIP3   OH224562   4.083   5.541  14.152 -0.3312  0.4107 -0.0826
 1024TIP3    H124563   4.169   5.568  14.121 -0.1993  1.1024  0.8435
 1024TIP3    H224564   4.095   5.450  14.180  0.3566  0.8084  0.9518
 1025TIP3   OH224565   0.981   1.765   3.853  0.2756  0.1672  0.5687
 1025TIP3    H124566   0.903   1.814   3.877  0.2264  0.3400  0.0786
 1025TIP3    H224567   0.952   1.675   3.845  0.3451  0.0693  1.3801
 1026TIP3   OH224568   1.343   1.720  14.502  0.5535 -0.4437  0.1119
 1026TIP3    H124569   1.249   1.715  14.485  0.8065 -1.0387 -1.2162
 1026TIP3    H224570   1.349   1.727  14.598 -0.7952 -1.8399  0.3449
 1027TIP3   OH224571   5.546   0.826  17.327  0.2720  0.2934  0.4355
 1027TIP3    H124572   5.562   0.871  17.244  0.7119  0.4223  0.5874
 1027TIP3    H224573   5.451   0.830  17.338  0.2691  0.8659  0.2652
 1028TIP3   OH224574   0.346   4.417  14.550  0.1900 -0.2399 -0.1341
 1028TIP3    H124575   0.369   4.324  14.549  2.6433  0.2977  0.1558
 1028TIP3    H224576   0.254   4.419  14.578 -0.3819 -2.6252 -1.5432
 1029TIP3   OH224577   6.774   3.187   5.541 -0.1129  0.1145  0.4621
 1029TIP3    H124578   6.755   3.141   5.623 -1.5176  0.9416  0.6355
 1029TIP3    H224579   6.750   3.124   5.472  1.5798 -0.7859  0.6279
 1030TIP3   OH224580   6.434   0.647  12.609  0.1051 -0.8720  0.2268
 1030TIP3    H124581   6.469   0.562  12.635  1.2139 -0.4213  0.2297
 1030TIP3    H224582   6.496   0.711  12.644  0.3112 -0.1382 -1.3949
 1031TIP3   OH224583   6.238   5.640   1.880 -0.2405  0.3001  0.0869
 1031TIP3    H124584   6.224   5.553   1.844 -0.7826  0.5367 -0.2839
 1031TIP3    H224585   6.182   5.643   1.958 -1.6544  0.9524 -0.9275
 1032TIP3   OH224586   3.898   2.383  10.776  0.0269 -0.4992  0.7507
 1032TIP3    H124587   3.803   2.385  10.764  0.0213  0.5488  0.9273
 1032TIP3    H224588   3.916   2.295  10.810 -0.8517 -0.7747  0.5207
 1033TIP3   OH224589   2.294   0.165   5.583  0.0486  0.4132  0.0618
 1033TIP3    H124590   2.225   0.224   5.613 -0.7516  0.7471 -2.1952
 1033TIP3    H224591   2.280   0.084   5.631 -0.2624  1.3131  1.5394
 1034TIP3   OH224592   0.692   2.230  15.017  0.3986 -0.6174  0.1506
 1034TIP3    H124593   0.741   2.175  15.079  1.5026 -0.5933 -0.6767
 1034TIP3    H224594   0.757   2.255  14.951 -0.1189  1.5167  0.3758
 1035TIP3   OH224595   4.685   5.578   5.351 -0.5195 -0.4260  0.4974
 1035TIP3    H124596   4.610   5.630   5.380 -1.3986 -2.0368  1.2927
 1035TIP3    H224597   4.745   5.579   5.425  0.6211  1.4427 -0.3956
 1036TIP3   OH224598   2.133   1.919  14.125  0.4799 -0.5069 -0.0275
 1036TIP3    H124599   2.168   1.834  14.153 -1.4351 -1.1164  0.6590
 1036TIP3    H224600   2.092   1.901  14.040 -0.6169 -0.4602  0.4843
 1037TIP3   OH224601   3.835   0.962   1.110 -0.0090 -0.0095  0.0629
 1037TIP3    H124602   3.905   0.981   1.173  0.7464 -1.3078 -0.3491
 1037TIP3    H224603   3.853   1.021   1.036 -0.2490  0.7242  0.5749
 1038TIP3   OH224604   1.820   3.614   5.119 -0.2654 -0.3698 -0.2188
 1038TIP3    H124605   1.767   3.572   5.186  0.3870 -1.9515 -0.6521
 1038TIP3    H224606   1.885   3.548   5.095  1.9850  1.5326  0.3538
 1039TIP3   OH224607   5.993   2.076  16.789  0.0158  0.2060  0.1801
 1039TIP3    H124608   5.967   1.999  16.737 -0.9624  0.7079 -0.0990
 1039TIP3    H224609   5.971   2.053  16.879  1.8881 -0.7422  0.4409
 1040TIP3   OH224610   0.767   3.785  12.194 -0.7091 -0.1357 -0.2098
 1040TIP3    H124611   0.734   3.838  12.121  1.0945  1.7936  0.2720
 1040TIP3    H224612   0.783   3.699  12.156 -2.4363  0.0187 -1.3837
 1041TIP3   OH224613   0.804   3.988   3.890 -0.3377 -0.4577  0.2835
 1041TIP3    H124614   0.737   3.935   3.933 -0.0003 -2.4253 -1.5072
 1041TIP3    H224615   0.886   3.941   3.904  0.0726 -0.1175 -0.8196
 1042TIP3   OH224616   0.047   3.683   4.140 -0.1245  0.2507  0.1381
 1042TIP3    H124617   0.108   3.645   4.203  0.5859  1.4264  0.1948
 1042TIP3    H224618   0.101   3.739   4.085 -1.2514  2.1346  0.8321
 1043TIP3   OH224619   3.034   6.737  16.598  0.5627  0.6186 -0.1431
 1043TIP3    H124620   2.980   6.676  16.549  1.4411 -1.0915  0.9173
 1043TIP3    H224621   3.015   6.823  16.560  0.7402 -0.5251 -3.0046
 1044TIP3   OH224622   5.874   5.368  11.851  0.4885 -0.2713 -0.0137
 1044TIP3    H124623   5.931   5.401  11.921  1.3412  1.5685 -1.4842
 1044TIP3    H224624   5.853   5.278  11.877  1.5137  0.0533  2.1271
 1045TIP3   OH224625   0.606   4.561   0.190 -0.2404 -0.0682  0.0648
 1045TIP3    H124626   0.646   4.605   0.115 -0.2326  1.9965  1.2103
 1045TIP3    H224627   0.512   4.558   0.168 -0.1239 -0.3710 -0.4275
 1046TIP3   OH224628   1.898   5.514  12.088  0.1527 -0.0421 -0.0412
 1046TIP3    H124629   1.841   5.535  12.162  0.9445 -1.4051  1.0228
 1046TIP3    H224630   1.984   5.547  12.114  0.3787 -0.2633 -0.4830
 1047TIP3   OH224631   2.549   1.076   3.873  0.5523  0.9442  0.0399
 1047TIP3    H124632   2.575   1.079   3.965  0.7196 -0.9713  0.1017
 1047TIP3    H224633   2.503   0.992   3.864  0.5209  1.1091 -1.6120
 1048TIP3   OH224634   4.295   6.245   6.090 -0.4909 -0.1113  0.3689
 1048TIP3    H124635   4.388   6.225   6.085 -0.5635 -0.7220  1.3232
 1048TIP3    H224636   4.288   6.335   6.058  0.4789  0.1027  0.7433
 1049TIP3   OH224637   5.732   2.887  11.410  0.0643  0.2244  0.7832
 1049TIP3    H124638   5.679   2.809  11.394 -0.1045  0.3565  0.7045
 1049TIP3    H224639   5.782   2.899  11.330  2.8101 -1.9096  2.0055
 1050TIP3   OH224640   3.783   3.865  15.764 -0.3396 -0.4828  0.0923
 1050TIP3    H124641   3.770   3.790  15.706 -1.8508  0.3553 -0.7073
 1050TIP3    H224642   3.707   3.921  15.749 -0.0018  0.5122  1.7655
 1051TIP3   OH224643   1.623   3.844  11.525 -0.0654  0.6105  0.7581
 1051TIP3    H124644   1.667   3.779  11.580 -0.9992  2.2443  3.6595
 1051TIP3    H224645   1.529   3.825  11.536 -0.3250  2.0008  1.1322
 1052TIP3   OH224646   0.295   4.236  13.502  0.3784  0.1641 -0.1409
 1052TIP3    H124647   0.281   4.150  13.463  1.1663 -0.4119  0.8163
 1052TIP3    H224648   0.349   4.282  13.438 -1.6021  0.6694 -1.5588
 1053TIP3   OH224649   2.746   4.789   0.267  0.1303 -0.3482 -0.1498
 1053TIP3    H124650   2.756   4.864   0.324 -0.9369  0.5365 -1.0800
 1053TIP3    H224651   2.801   4.808   0.191 -1.9098  0.6504 -1.4652
 1054TIP3   OH224652   5.580   1.349   4.419 -0.3101 -0.0636  0.0915
 1054TIP3    H124653   5.524   1.420   4.389  0.6561  0.5571 -0.2824
 1054TIP3    H224654   5.551   1.331   4.508 -2.3233 -1.0122 -0.6922
 1055TIP3   OH224655   0.946   6.565   3.840 -0.2008 -0.5147  0.3359
 1055TIP3    H124656   0.932   6.609   3.924  1.7205 -2.2529  1.6800
 1055TIP3    H224657   0.992   6.485   3.863 -1.6667 -2.2161 -2.1980
 1056TIP3   OH224658   1.987   2.531  13.653 -0.2497 -0.8807  0.1476
 1056TIP3    H124659   1.948   2.486  13.728 -0.2184  1.6699  1.8225
 1056TIP3    H224660   2.081   2.529  13.669 -0.3210  1.4243  1.4132
 1057TIP3   OH224661   3.501   3.259   2.525 -0.1776 -0.8282  0.4256
 1057TIP3    H124662   3.586   3.244   2.483  0.3642 -0.6328  1.4121
 1057TIP3    H224663   3.522   3.316   2.600 -1.4689  0.9378 -0.4759
 1058TIP3   OH224664   1.899   1.847  15.815  0.0355  0.3603 -0.0840
 1058TIP3    H124665   1.825   1.811  15.767  1.4384 -1.6501 -0.8889
 1058TIP3    H224666   1.860   1.890  15.891 -1.9164 -1.4344  0.0087
 1059TIP3   OH224667   4.340   4.191  10.820 -0.0222 -0.0111 -0.8453
 1059TIP3    H124668   4.378   4.128  10.760  1.3101 -0.8469  0.7901
 1059TIP3    H224669   4.263   4.146  10.857 -0.9981  0.6012 -2.0494
 1060TIP3   OH224670   0.424   4.354  14.843  0.1312  0.0180 -0.1411
 1060TIP3    H124671   0.365   4.284  14.815 -0.1726 -0.0141  0.5535
 1060TIP3    H224672   0.413   4.423  14.778 -1.3561  0.3768  0.4589
 1061TIP3   OH224673   3.590   0.262  17.353 -0.2897  0.0808  0.2400
 1061TIP3    H124674   3.611   0.290  17.264 -0.3510  1.3157  0.5879
 1061TIP3    H224675   3.661   0.203  17.377 -0.1779 -0.1225 -0.5656
 1062TIP3   OH224676   6.705   0.277   2.156 -0.2410  0.0581  0.3618
 1062TIP3    H124677   6.745   0.340   2.096  0.5099  0.0743  0.8560
 1062TIP3    H224678   6.616   0.265   2.124  1.0522 -2.4896 -2.8717
 1063TIP3   OH224679   3.387   2.518   0.049 -0.1452  0.0534  0.0996
 1063TIP3    H124680   3.371   2.573  -0.027 -1.8706  0.4689  0.7363
 1063TIP3    H224681   3.389   2.578   0.124  0.6358 -0.4519  0.5104
 1064TIP3   OH224682   2.627   1.036  14.909 -0.8999  0.7222 -0.1609
 1064TIP3    H124683   2.708   0.995  14.939 -0.6613  1.9354  0.9591
 1064TIP3    H224684   2.645   1.062  14.819 -0.1396  0.7327 -0.0105
 1065TIP3   OH224685   2.843   6.372  15.464 -0.3092 -0.0887 -0.4246
 1065TIP3    H124686   2.922   6.374  15.518 -0.1809 -0.0305 -0.6129
 1065TIP3    H224687   2.771   6.385  15.526 -0.1547  0.1025 -0.2834
 1066TIP3   OH224688   5.898   6.668   3.261  0.4592 -0.1283  0.0586
 1066TIP3    H124689   5.982   6.693   3.223  0.3933  0.2421  0.1563
 1066TIP3    H224690   5.845   6.640   3.186  0.3754  0.4689 -0.1079
 1067TIP3   OH224691   4.299   0.191   2.132  0.6084 -1.0049  0.7323
 1067TIP3    H124692   4.360   0.178   2.205 -0.0409  0.3822  1.5721
 1067TIP3    H224693   4.264   0.279   2.146  0.7015 -0.5641 -1.4598
 1068TIP3   OH224694   3.719   0.989   3.742  0.6399  0.3457  0.1540
 1068TIP3    H124695   3.729   1.042   3.821 -2.4452  3.9470 -1.5479
 1068TIP3    H224696   3.654   0.923   3.766  2.2075 -0.8112  1.4395
 1069TIP3   OH224697   3.360   0.405  16.294  0.7301 -0.2553 -0.3248
 1069TIP3    H124698   3.435   0.397  16.353  1.0647 -2.1457 -0.9481
 1069TIP3    H224699   3.395   0.382  16.208  0.0607  1.6260 -1.1614
 1070TIP3   OH224700   4.114   0.396  13.296  0.1653 -0.5823 -0.2373
 1070TIP3    H124701   4.080   0.311  13.325 -0.5851 -0.0153  0.6016
 1070TIP3    H224702   4.080   0.406  13.207  0.5073 -1.2933 -0.4505
 1071TIP3   OH224703   6.186   3.457   2.294  0.2825  0.0629 -0.4479
 1071TIP3    H124704   6.141   3.504   2.364  0.1822 -0.5347 -0.1021
 1071TIP3    H224705   6.239   3.523   2.250  0.5901  0.3898  0.3953
 1072TIP3   OH224706   2.481   2.159   1.918  0.3500  0.1945  0.1240
 1072TIP3    H124707   2.390   2.153   1.949  0.8633  1.0854  1.9520
 1072TIP3    H224708   2.497   2.074   1.875 -1.6474  0.4311 -1.2173
 1073TIP3   OH224709   0.708   3.999   0.687 -0.1893  0.0805 -0.4571
 1073TIP3    H124710   0.665   3.931   0.738  1.2628  0.6970  1.7093
 1073TIP3    H224711   0.654   4.008   0.608 -1.0475 -2.7563 -0.3071
 1074TIP3   OH224712   6.449   1.814  13.242  0.7145 -0.2043 -0.4712
 1074TIP3    H124713   6.440   1.785  13.333 -0.1571 -0.1776 -0.5426
 1074TIP3    H224714   6.399   1.750  13.191 -0.7888  1.0764 -0.6826
 1075TIP3   OH224715   3.071   2.088  14.092 -0.3020 -0.1270  0.2121
 1075TIP3    H124716   3.159   2.114  14.065 -0.9819 -0.0153 -2.0821
 1075TIP3    H224717   3.056   2.004  14.048 -1.1718 -0.3943  0.9875
 1076TIP3   OH224718   0.461   5.754  14.985  0.4889 -0.1910  0.2772
 1076TIP3    H124719   0.426   5.804  14.911 -3.1155 -1.3235  1.0371
 1076TIP3    H224720   0.521   5.815  15.029 -1.5317  2.4840 -0.4366
 1077TIP3   OH224721   3.103   1.757   2.582  0.2064  0.2227 -0.4843
 1077TIP3    H124722   3.027   1.815   2.576  0.2921  0.3836 -0.0239
 1077TIP3    H224723   3.103   1.727   2.673  0.8060  0.3707 -0.4361
 1078TIP3   OH224724   1.475   4.459  12.090  0.4474  0.5397  0.1189
 1078TIP3    H124725   1.482   4.364  12.079  1.6242  0.4942  1.0466
 1078TIP3    H224726   1.523   4.495  12.015 -0.8941  0.4498 -0.8224
 1079TIP3   OH224727   3.068   1.478   5.834  0.1131  0.4941  0.4343
 1079TIP3    H124728   2.988   1.427   5.818 -0.3508  1.2248  0.3814
 1079TIP3    H224729   3.041   1.546   5.897  0.3612  1.5433 -0.5557
 1080TIP3   OH224730   3.936   3.887  16.990  0.1541 -0.2184 -0.3448
 1080TIP3    H124731   3.846   3.882  16.958  0.7309 -0.7718 -1.9568
 1080TIP3    H224732   3.936   3.832  17.068 -0.1268 -3.3076 -2.3374
 1081TIP3   OH224733   4.937   2.619  16.127  0.0092  0.0450  0.2229
 1081TIP3    H124734   4.916   2.611  16.034  1.8990  0.3161 -0.2760
 1081TIP3    H224735   4.893   2.700  16.154 -2.0133 -0.9489  0.0445
 1082TIP3   OH224736   4.956   1.240  12.812  0.2388  0.3897 -0.4215
 1082TIP3    H124737   5.019   1.312  12.817 -1.2416  1.7360 -0.1863
 1082TIP3    H224738   4.944   1.212  12.903  1.8731 -1.1851 -0.6330
 1083TIP3   OH224739   6.447   1.287  12.662  0.0686  0.4729  0.1015
 1083TIP3    H124740   6.498   1.232  12.722 -0.9869 -0.2203  0.3837
 1083TIP3    H224741   6.449   1.374  12.702 -0.5520  0.0338  1.1278
 1084TIP3   OH224742   0.406   1.229  12.349 -0.9639 -0.2337 -0.4375
 1084TIP3    H124743   0.447   1.144  12.364  0.9827  0.7688  0.2110
 1084TIP3    H224744   0.426   1.280  12.428 -0.2891  1.4985 -1.6711
 1085TIP3   OH224745   5.292   3.253   5.434 -1.1812 -0.2506  0.0772
 1085TIP3    H124746   5.257   3.241   5.346 -0.6070 -0.4314 -0.1309
 1085TIP3    H224747   5.362   3.188   5.441  0.2629  1.2163 -0.1465
 1086TIP3   OH224748   3.929   3.700   3.949  0.3381  0.4694  0.7910
 1086TIP3    H124749   3.968   3.638   4.011 -0.4964 -0.2133  0.6520
 1086TIP3    H224750   3.835   3.688   3.959  0.1549  1.8380  0.8626
 1087TIP3   OH224751   1.062   3.037   2.411  0.3116  0.1605 -0.0810
 1087TIP3    H124752   1.097   3.073   2.493 -0.2306 -2.2377  1.3181
 1087TIP3    H224753   1.132   3.051   2.347  0.2285  3.2747  0.3697
 1088TIP3   OH224754   0.612   1.137   0.269  0.7627 -0.0440  0.0025
 1088TIP3    H124755   0.529   1.185   0.275  0.6518 -0.2696  0.3237
 1088TIP3    H224756   0.598   1.059   0.324  0.5384 -1.0212 -1.4065
 1089TIP3   OH224757   4.667   6.140  13.649  0.2484  0.0564 -0.2897
 1089TIP3    H124758   4.591   6.152  13.591 -1.6388 -1.9486  1.5786
 1089TIP3    H224759   4.685   6.227  13.683 -1.9123  0.4621 -0.0409
 1090TIP3   OH224760   6.091   0.186   1.160 -0.9274  0.6220  0.2970
 1090TIP3    H124761   6.111   0.106   1.112  0.0721  0.7233  0.5210
 1090TIP3    H224762   6.144   0.253   1.118  1.1267  0.4377  2.3872
 1091TIP3   OH224763   0.612   2.618   3.487  0.4627  0.2378 -0.1511
 1091TIP3    H124764   0.689   2.657   3.445 -0.8586  3.1855 -0.0647
 1091TIP3    H224765   0.556   2.592   3.414  0.5419  0.2296 -0.2098
 1092TIP3   OH224766   1.408   4.733  12.764 -0.3388  0.3439 -0.3529
 1092TIP3    H124767   1.463   4.792  12.712  0.3496 -0.6378 -0.7775
 1092TIP3    H224768   1.375   4.670  12.701 -1.8493  0.8130 -0.0613
 1093TIP3   OH224769   6.779   1.264   2.295 -0.2716 -0.7062  0.6694
 1093TIP3    H124770   6.833   1.201   2.344 -1.0540 -0.6488  1.6211
 1093TIP3    H224771   6.839   1.336   2.275  0.2506 -1.0754  0.8851
 1094TIP3   OH224772   2.735   5.069  13.652  0.0796  0.0783 -0.0832
 1094TIP3    H124773   2.804   5.081  13.717  0.0152  0.6677 -0.1231
 1094TIP3    H224774   2.777   5.020  13.581  0.8855  1.6963 -0.7797
 1095TIP3   OH224775   0.832   5.535  11.229  0.3509 -0.3193 -0.4296
 1095TIP3    H124776   0.924   5.551  11.212  0.3198 -1.4045 -1.7353
 1095TIP3    H224777   0.787   5.560  11.148 -0.1847 -2.3141 -0.8087
 1096TIP3   OH224778   2.220   2.079   1.995  0.7014 -0.4397 -0.0137
 1096TIP3    H124779   2.133   2.077   1.955  0.2513 -0.3310  0.9365
 1096TIP3    H224780   2.213   2.146   2.063  1.3633 -0.8157  0.4335
 1097TIP3   OH224781   5.308   1.983   5.359  0.4177 -0.3234 -0.7341
 1097TIP3    H124782   5.242   2.051   5.346  0.6308 -0.1763 -1.0631
 1097TIP3    H224783   5.338   1.995   5.449 -1.1954 -1.4603  0.0071
 1098TIP3   OH224784   4.572   1.623  12.612 -0.1988  0.4028  0.3256
 1098TIP3    H124785   4.525   1.582  12.539  1.8913  1.1490 -1.5681
 1098TIP3    H224786   4.531   1.709  12.621 -1.9033 -0.4688  1.5912
 1099TIP3   OH224787   1.444   6.727  14.834  0.7828 -0.6271  0.1632
 1099TIP3    H124788   1.387   6.652  14.817  1.4650 -0.9581 -0.7654
 1099TIP3    H224789   1.427   6.786  14.760  0.1557  0.2107  0.9529
 1100TIP3   OH224790   1.101   6.579   0.415  0.2710  0.7544 -0.0592
 1100TIP3    H124791   1.057   6.618   0.339  0.5552 -0.3306 -0.8015
 1100TIP3    H224792   1.030   6.537   0.464  0.4474 -1.2285 -1.3989
 1101TIP3   OH224793   1.081   4.495  11.424  0.0105 -0.1739  0.0259
 1101TIP3    H124794   1.065   4.409  11.384  0.2573 -0.7621  1.1605
 1101TIP3    H224795   1.148   4.478  11.490  0.5211  1.0242 -0.1689
 1102TIP3   OH224796   2.180   6.181   5.554  0.0979 -0.5009  0.1021
 1102TIP3    H124797   2.262   6.210   5.594  0.8566 -2.1294 -0.1940
 1102TIP3    H224798   2.116   6.247   5.580  1.1062 -0.1608  1.8538
 1103TIP3   OH224799   5.053   0.100   0.869  0.2170  0.1971 -0.7973
 1103TIP3    H124800   5.098   0.038   0.927 -1.8654 -1.3103 -0.6988
 1103TIP3    H224801   5.123   0.156   0.835  1.8096 -0.4030  1.2942
 1104TIP3   OH224802   1.455   6.722   3.781 -0.3247 -0.3938 -0.0439
 1104TIP3    H124803   1.451   6.662   3.855  0.1830 -0.4417 -0.0488
 1104TIP3    H224804   1.387   6.692   3.721  0.5552 -1.5795 -0.4946
 1105TIP3   OH224805   1.076   0.943  15.377  0.3345 -0.2088  0.7106
 1105TIP3    H124806   1.096   0.983  15.292 -0.6428 -1.2131 -0.0212
 1105TIP3    H224807   1.142   0.874  15.387  0.2141 -0.3451  0.5758
 1106TIP3   OH224808   1.806   1.815   5.407  0.3841 -0.6668 -0.2711
 1106TIP3    H124809   1.876   1.844   5.349  1.4756 -2.5503  0.0102
 1106TIP3    H224810   1.780   1.729   5.372 -2.2319  0.1909 -0.7115
 1107TIP3   OH224811   1.365   3.738  14.109 -0.5229 -0.5090 -0.0550
 1107TIP3    H124812   1.330   3.666  14.161 -0.2487 -2.2645 -2.1715
 1107TIP3    H224813   1.295   3.760  14.048 -0.3636  0.6461  0.1400
 1108TIP3   OH224814   2.377   0.978   1.448 -0.9041 -0.5023  0.0806
 1108TIP3    H124815   2.323   1.007   1.375 -0.9009 -1.1729 -0.2022
 1108TIP3    H224816   2.392   1.056   1.501 -0.5941  0.0687 -0.8402
 1109TIP3   OH224817   0.014   0.495   2.783 -0.3105  0.0824  0.2041
 1109TIP3    H124818  -0.038   0.544   2.719  1.4019 -0.4756 -1.7341
 1109TIP3    H224819  -0.050   0.460   2.845 -2.1784 -0.0560 -1.6955
 1110TIP3   OH224820   0.040   0.937  11.891 -0.5676  0.3919  0.1169
 1110TIP3    H124821   0.057   0.900  11.978  0.1714  1.7545  0.5945
 1110TIP3    H224822   0.010   0.863  11.838  1.2030 -0.9609  0.8999
 1111TIP3   OH224823   3.509   5.149  13.998 -0.1966  0.4663  0.3768
 1111TIP3    H124824   3.593   5.120  13.963  0.2647  2.3747 -0.1808
 1111TIP3    H224825   3.461   5.068  14.016  1.3895 -0.6305 -0.1834
 1112TIP3   OH224826   5.886   6.667  13.814 -0.3403  0.1354  0.0446
 1112TIP3    H124827   5.866   6.615  13.892 -1.8729  1.1117  0.3337
 1112TIP3    H224828   5.801   6.685  13.774  0.2584  1.3325 -0.7531
 1113TIP3   OH224829   5.617   1.168  13.617  0.3666  0.0506 -0.8782
 1113TIP3    H124830   5.601   1.227  13.544  0.7957  0.8661 -0.3237
 1113TIP3    H224831   5.552   1.192  13.683 -0.6151 -1.2822 -1.3145
 1114TIP3   OH224832   3.262   5.325  13.146  0.5543  0.1674 -0.3124
 1114TIP3    H124833   3.173   5.357  13.161  0.0849 -1.1115 -0.2628
 1114TIP3    H224834   3.282   5.347  13.055 -0.6163 -1.3289 -0.9735
 1115TIP3   OH224835   0.434   4.591   3.540 -0.3305  0.0603  0.3471
 1115TIP3    H124836   0.442   4.618   3.449  0.1040 -1.4985 -0.1129
 1115TIP3    H224837   0.471   4.502   3.542  0.2833  0.3205  2.1725
 1116TIP3   OH224838   2.414   3.959   6.333  0.4463 -0.3696  0.0763
 1116TIP3    H124839   2.406   4.015   6.256 -0.3826 -2.0940 -1.1568
 1116TIP3    H224840   2.504   3.928   6.332  1.1275  1.4338  1.1783
 1117TIP3   OH224841   6.240   3.671  17.253  0.3592 -0.4953 -0.8496
 1117TIP3    H124842   6.183   3.710  17.320  1.3622  0.2441 -0.4003
 1117TIP3    H224843   6.281   3.746  17.210  0.6033 -1.0013 -1.5194
 1118TIP3   OH224844   5.333   4.714  15.134  0.2096 -0.7582 -0.2345
 1118TIP3    H124845   5.241   4.733  15.115 -0.4119 -0.9709  2.2237
 1118TIP3    H224846   5.381   4.790  15.100 -0.9966 -0.0983 -0.5074
 1119TIP3   OH224847   5.369   1.297  15.345  0.0713  0.0625 -0.2847
 1119TIP3    H124848   5.402   1.207  15.337  1.6843  0.5797  0.2653
 1119TIP3    H224849   5.406   1.343  15.269  1.6316  0.9234  0.9389
 1120TIP3   OH224850   5.872   6.606  11.032 -1.0656  0.1601 -0.7449
 1120TIP3    H124851   5.905   6.696  11.038 -1.1423  0.1432  0.0125
 1120TIP3    H224852   5.912   6.571  10.952 -0.8759  0.7965 -0.9356
 1121TIP3   OH224853   2.621   5.623  17.341  0.4283  0.2936 -0.7556
 1121TIP3    H124854   2.591   5.707  17.308  0.4351  0.8358  0.5555
 1121TIP3    H224855   2.717   5.628  17.338  0.4359  0.4830 -0.3695
 1122TIP3   OH224856   2.461   2.057  12.754  0.2515  0.1405 -0.2942
 1122TIP3    H124857   2.461   1.970  12.794  2.0391  0.4594  0.4823
 1122TIP3    H224858   2.461   2.040  12.660 -0.3382 -0.6795 -0.1533
 1123TIP3   OH224859   6.370   4.943   3.063  0.4710 -0.2571 -0.6102
 1123TIP3    H124860   6.369   4.867   3.121  1.1053  0.5274  0.4576
 1123TIP3    H224861   6.278   4.966   3.052  0.3855  1.1198  2.2001
 1124TIP3   OH224862   1.579   4.720   5.464  0.0946 -0.0618  0.2842
 1124TIP3    H124863   1.561   4.675   5.547 -0.6710  0.2262  0.2799
 1124TIP3    H224864   1.665   4.760   5.476  0.1058 -0.2503  0.8415
 1125TIP3   OH224865   4.954   3.088   1.829  0.0788 -0.1283 -0.3593
 1125TIP3    H124866   4.968   3.180   1.808  1.0691  0.2334  1.6109
 1125TIP3    H224867   4.988   3.079   1.918 -0.0953 -2.3821 -0.4740
 1126TIP3   OH224868   3.605   0.510  15.189 -0.2147  0.1970  0.0517
 1126TIP3    H124869   3.637   0.437  15.136  0.8901  1.6647 -1.4588
 1126TIP3    H224870   3.515   0.525  15.159 -0.5145 -0.6601  0.5170
 1127TIP3   OH224871   3.207   6.511   3.829  0.1355 -0.6468  0.0289
 1127TIP3    H124872   3.161   6.585   3.867 -0.1999 -0.4654 -0.7305
 1127TIP3    H224873   3.299   6.536   3.831  0.1766 -0.8227  1.1243
 1128TIP3   OH224874   2.756   2.903  14.519  0.1693 -0.2007 -0.5870
 1128TIP3    H124875   2.772   2.912  14.425 -1.4960  0.2153 -0.8485
 1128TIP3    H224876   2.701   2.826  14.527 -1.9463  1.2597 -0.2634
 1129TIP3   OH224877   4.427   4.945  12.806  0.0559 -0.6759 -0.8426
 1129TIP3    H124878   4.393   4.857  12.821 -1.1753  0.0827  1.1604
 1129TIP3    H224879   4.495   4.957  12.873 -0.1246  0.0667 -0.7868
 1130TIP3   OH224880   5.475   4.580  12.601 -0.2947 -0.1959 -0.0204
 1130TIP3    H124881   5.476   4.486  12.579 -0.2316 -0.3776  0.7320
 1130TIP3    H224882   5.427   4.620  12.529 -0.7208 -0.8696 -0.1257
 1131TIP3   OH224883   3.498   2.673   1.744  0.2667  0.0885 -0.1462
 1131TIP3    H124884   3.467   2.701   1.830  0.4777  0.5785 -0.2250
 1131TIP3    H224885   3.458   2.588   1.730  0.5317 -0.1644  0.6010
 1132TIP3   OH224886   6.083   4.247   5.636 -0.4686  0.2601  0.4076
 1132TIP3    H124887   6.129   4.331   5.634  2.6656 -1.2828  1.5790
 1132TIP3    H224888   6.089   4.219   5.727 -0.4883 -1.7219 -0.1573
 1133TIP3   OH224889   1.554   0.503  10.541 -0.1189  0.1016 -0.5833
 1133TIP3    H124890   1.561   0.441  10.468 -2.5024  1.1528 -1.8206
 1133TIP3    H224891   1.619   0.474  10.604 -2.0920 -4.6882 -0.3407
 1134TIP3   OH224892   5.631   5.504  11.029  0.1710 -0.3221  0.3089
 1134TIP3    H124893   5.566   5.562  11.069  0.2039 -1.3270  1.9265
 1134TIP3    H224894   5.584   5.461  10.958 -0.8908 -0.8556  1.2936
 1135TIP3   OH224895   1.223   1.000  10.454  0.4694 -0.7948  0.1628
 1135TIP3    H124896   1.211   1.066  10.523 -0.1788  0.0747 -0.7553
 1135TIP3    H224897   1.169   0.926  10.483 -0.6786 -0.0170  0.0731
 1136TIP3   OH224898   5.962   4.436  12.692 -0.2380 -0.1627 -0.3674
 1136TIP3    H124899   5.931   4.427  12.602 -0.8116 -2.4692 -0.0102
 1136TIP3    H224900   5.989   4.347  12.717 -0.9368  0.2205  2.0062
 1137TIP3   OH224901   2.843   0.220  13.907 -0.3718 -0.1215  0.5396
 1137TIP3    H124902   2.825   0.131  13.938 -0.6279 -0.7757 -1.3454
 1137TIP3    H224903   2.921   0.247  13.955 -0.2183 -1.4108  1.0531
 1138TIP3   OH224904   5.816   6.510  13.425 -0.6417 -0.1016 -0.2128
 1138TIP3    H124905   5.838   6.423  13.391  1.8765  0.9008 -1.4213
 1138TIP3    H224906   5.887   6.530  13.486 -1.2219  1.0943  0.0983
 1139TIP3   OH224907   3.083   4.764   4.592 -0.2600  0.1526 -0.0673
 1139TIP3    H124908   3.116   4.736   4.678 -1.8801 -3.1813 -0.3528
 1139TIP3    H224909   3.160   4.765   4.536  0.4306 -0.2204  0.8402
 1140TIP3   OH224910   1.153   6.102   3.454  0.0384 -0.0191 -0.8370
 1140TIP3    H124911   1.103   6.046   3.513 -0.6296  1.3415 -0.0576
 1140TIP3    H224912   1.169   6.048   3.377 -0.4921 -1.2981 -0.0773
 1141TIP3   OH224913   5.983   5.711  11.966  0.3350 -0.2454 -0.5381
 1141TIP3    H124914   6.016   5.758  12.043  0.7784  1.6413 -1.8216
 1141TIP3    H224915   6.023   5.624  11.973  1.5263  0.3549  0.6153
 1142TIP3   OH224916   5.943   0.847   3.154 -0.1676 -0.3678 -0.4228
 1142TIP3    H124917   5.854   0.877   3.136 -0.3936 -0.2435  0.7944
 1142TIP3    H224918   5.986   0.846   3.069  0.3667  4.9621 -0.5547
 1143TIP3   OH224919   1.889   5.858   6.701 -0.2719 -0.0109  0.3191
 1143TIP3    H124920   1.846   5.929   6.655 -0.6119  0.1221  0.8346
 1143TIP3    H224921   1.823   5.789   6.707  0.5985 -1.1229 -1.7976
 1144TIP3   OH224922   4.397   4.527  15.137  0.0196 -0.0043 -0.1886
 1144TIP3    H124923   4.400   4.570  15.052 -2.6947  0.2169 -0.2660
 1144TIP3    H224924   4.392   4.434  15.118 -0.9562  0.0643 -0.3209
 1145TIP3   OH224925   3.709   4.634   2.263 -0.2370 -0.0551  0.1839
 1145TIP3    H124926   3.696   4.551   2.219 -1.1803  0.3154 -0.2828
 1145TIP3    H224927   3.664   4.624   2.347 -0.7408  0.1216 -0.0585
 1146TIP3   OH224928   4.339   4.176   5.134  0.6187 -0.0700 -0.0247
 1146TIP3    H124929   4.272   4.113   5.107  0.7009 -0.5708  0.9166
 1146TIP3    H224930   4.322   4.254   5.081  1.7247 -1.5103 -2.6996
 1147TIP3   OH224931   1.468   0.296  15.909  0.1148  0.3790 -0.0863
 1147TIP3    H124932   1.434   0.291  15.819 -0.3398  1.3430  0.0154
 1147TIP3    H224933   1.390   0.285  15.964  0.5029 -1.0078  0.2172
 1148TIP3   OH224934   5.907   2.104  14.456  0.2526 -0.7775 -0.0855
 1148TIP3    H124935   5.881   2.170  14.392  1.5600 -0.2955 -0.1668
 1148TIP3    H224936   5.843   2.034  14.447 -1.0158  0.3624 -0.1887
 1149TIP3   OH224937   5.295   4.539  11.546  0.2023 -0.6187  0.6914
 1149TIP3    H124938   5.379   4.566  11.508  0.8114  0.0767  2.4610
 1149TIP3    H224939   5.302   4.561  11.639 -2.4675  0.7123  0.6631
 1150TIP3   OH224940   2.453   5.133   5.072 -0.2309 -0.1908  0.5606
 1150TIP3    H124941   2.452   5.074   4.997 -1.1593  0.9832 -0.4042
 1150TIP3    H224942   2.423   5.080   5.146  0.5327 -1.3232  0.0786
 1151TIP3   OH224943   2.635   5.176   6.890  0.1666 -0.0453 -0.4392
 1151TIP3    H124944   2.561   5.226   6.854 -0.0055 -0.7726 -1.1342
 1151TIP3    H224945   2.611   5.085   6.874 -0.3764 -0.4875  2.4231
 1152TIP3   OH224946   4.319   2.907  11.587 -0.1783 -0.1220 -0.1356
 1152TIP3    H124947   4.345   2.829  11.539  0.4300 -0.1791  0.2724
 1152TIP3    H224948   4.225   2.898  11.599 -0.2233 -0.4328 -0.7306
 1153TIP3   OH224949   6.502   2.119   4.708 -0.2009 -0.0210  0.1949
 1153TIP3    H124950   6.585   2.159   4.682 -0.0354 -2.3064 -3.5550
 1153TIP3    H224951   6.439   2.191   4.705  0.9491  0.9928 -1.0136
 1154TIP3   OH224952   0.391   5.769  13.406 -0.0920 -0.0510  0.3854
 1154TIP3    H124953   0.455   5.834  13.437 -1.8903  1.4534  1.1611
 1154TIP3    H224954   0.441   5.712  13.348  1.4060  2.6098 -1.1465
 1155TIP3   OH224955   4.663   0.621  12.393  0.5730  0.2722  0.1078
 1155TIP3    H124956   4.684   0.710  12.422 -0.2959 -0.1826  2.2371
 1155TIP3    H224957   4.625   0.633  12.306  2.0920  1.8019 -0.4098
 1156TIP3   OH224958   5.277   6.302   3.230 -0.0912  0.6298  0.3006
 1156TIP3    H124959   5.262   6.236   3.298  0.0314  0.5893  0.2894
 1156TIP3    H224960   5.370   6.295   3.211 -0.3010 -0.0465 -0.5757
 1157TIP3   OH224961   6.276   0.974  15.474 -0.6327  0.2060  0.0865
 1157TIP3    H124962   6.209   1.040  15.454 -0.7788 -0.2085 -0.8824
 1157TIP3    H224963   6.226   0.893  15.487 -0.3379 -0.1176 -0.7062
 1158TIP3   OH224964   1.511   2.493   3.588 -0.3163 -0.5868  0.4011
 1158TIP3    H124965   1.490   2.533   3.504  0.9861  1.6757  1.0541
 1158TIP3    H224966   1.605   2.474   3.583 -0.4526 -1.5124  0.9602
 1159TIP3   OH224967   0.821   4.523   4.319 -0.3790 -0.6185  0.1681
 1159TIP3    H124968   0.861   4.524   4.406 -0.6323 -1.9996  0.3272
 1159TIP3    H224969   0.880   4.469   4.266 -0.5750 -0.3386 -0.3386
 1160TIP3   OH224970   6.636   0.053   5.045  0.0915  0.6889 -0.0309
 1160TIP3    H124971   6.611   0.035   4.955 -0.9650  0.3467  0.3110
 1160TIP3    H224972   6.732   0.050   5.045  0.0790 -0.5822 -0.8961
 1161TIP3   OH224973   4.657   6.012  12.616 -0.2803  0.3100 -0.4510
 1161TIP3    H124974   4.623   6.040  12.531 -1.4877 -0.4918 -0.2443
 1161TIP3    H224975   4.726   5.948  12.594  0.8386  1.5931 -0.8493
 1162TIP3   OH224976   1.929   2.241  13.385 -0.5438  0.1273  0.4120
 1162TIP3    H124977   1.844   2.280  13.403 -0.2491 -0.3464  3.3933
 1162TIP3    H224978   1.918   2.193  13.303 -3.7227 -1.4624  1.6255
 1163TIP3   OH224979   4.181   1.121   4.038  0.1745 -0.1763 -0.4997
 1163TIP3    H124980   4.157   1.036   4.073  1.4547 -0.3867 -0.0696
 1163TIP3    H224981   4.113   1.141   3.973 -1.7024 -0.2408  1.3412
 1164TIP3   OH224982   2.467   4.175   4.849 -0.2639  0.4863  0.8211
 1164TIP3    H124983   2.376   4.192   4.825  0.0383  1.3739  0.2366
 1164TIP3    H224984   2.481   4.083   4.827 -0.1661  1.0817 -2.0080
 1165TIP3   OH224985   5.759   0.783  16.497 -0.5267 -0.1188 -0.1274
 1165TIP3    H124986   5.720   0.860  16.455  0.5096  0.4474 -0.0868
 1165TIP3    H224987   5.716   0.777  16.582 -1.1053  0.0080 -0.4098
 1166TIP3   OH224988   2.642   3.757   0.443  0.3598  0.0999 -0.1348
 1166TIP3    H124989   2.570   3.739   0.382 -1.0766  1.9166  0.9078
 1166TIP3    H224990   2.652   3.675   0.492  0.0791 -0.6854 -1.3362
 1167TIP3   OH224991   0.784   5.053  12.047  0.2012  0.4290  0.1132
 1167TIP3    H124992   0.722   5.010  11.988  0.4815  0.1874 -0.0146
 1167TIP3    H224993   0.845   4.983  12.071  0.5466  0.7097  0.0624
 1168TIP3   OH224994   4.037   5.281  14.806  0.2739  0.0510 -0.0997
 1168TIP3    H124995   4.016   5.251  14.718 -0.4426  0.4615 -0.0790
 1168TIP3    H224996   4.058   5.373  14.796 -1.0839  0.4365  0.3172
 1169TIP3   OH224997   5.786   5.511   1.482  0.1014 -0.2327 -0.1344
 1169TIP3    H124998   5.748   5.598   1.491  2.3618  0.9842 -1.3514
 1169TIP3    H224999   5.728   5.454   1.532 -1.0222  2.0761  1.3769
 1170TIP3   OH225000   2.564   5.393   1.970  0.4917  0.3438 -0.4678
 1170TIP3    H125001   2.476   5.365   1.947 -0.5895  1.6331  1.8007
 1170TIP3    H225002   2.599   5.321   2.023 -0.0374  0.7125  0.4046
 1171TIP3   OH225003   0.029   1.526   1.456  0.2906 -0.3861 -0.2533
 1171TIP3    H125004   0.026   1.446   1.508  0.4889 -0.4026 -0.2632
 1171TIP3    H225005   0.020   1.596   1.520  0.4322 -0.4092 -0.2070
 1172TIP3   OH225006   3.406   6.331  11.813  0.0078 -0.1779 -0.2724
 1172TIP3    H125007   3.325   6.367  11.777  0.8355  0.8634 -1.1692
 1172TIP3    H225008   3.468   6.334  11.740  0.4745 -2.3336 -0.0283
 1173TIP3   OH225009   4.653   1.999   1.059  0.0238 -0.5441 -0.0741
 1173TIP3    H125010   4.720   2.065   1.076 -0.6952 -0.1339  1.3138
 1173TIP3    H225011   4.702   1.920   1.037  0.8975  0.3936 -1.6812
 1174TIP3   OH225012   2.691   6.615   5.904  0.1469  0.1448  0.5770
 1174TIP3    H125013   2.679   6.560   5.827  1.8335 -1.7078  1.5623
 1174TIP3    H225014   2.622   6.587   5.965 -0.5474  0.9116  0.1792
 1175TIP3   OH225015   2.906   0.166  15.817  0.2686 -0.0889  0.6822
 1175TIP3    H125016   2.883   0.160  15.725  1.1222 -0.0812  0.4638
 1175TIP3    H225017   2.887   0.257  15.841  3.1117  0.8914 -0.3618
 1176TIP3   OH225018   1.425   3.544   4.596 -0.1643 -0.1673 -0.3075
 1176TIP3    H125019   1.412   3.541   4.501 -0.3498 -2.7315 -0.2800
 1176TIP3    H225020   1.338   3.554   4.633 -0.1588  0.1877 -0.3883
 1177TIP3   OH225021   0.517   5.658   1.624  0.0053 -0.4056 -0.1321
 1177TIP3    H125022   0.493   5.620   1.708  2.1841 -0.5553  0.4862
 1177TIP3    H225023   0.509   5.753   1.636 -1.2017 -0.4695 -0.2921
 1178TIP3   OH225024   3.531   3.467  14.557 -0.1636 -0.1899  0.5325
 1178TIP3    H125025   3.461   3.403  14.565  0.0184 -0.3564  0.8346
 1178TIP3    H225026   3.580   3.439  14.479  0.0891 -0.5965  0.8318
 1179TIP3   OH225027   6.645   2.342  13.441 -0.0879  0.3111  0.3741
 1179TIP3    H125028   6.655   2.250  13.419  0.1691  0.1261  1.2552
 1179TIP3    H225029   6.734   2.376  13.446 -0.1886  0.7149 -0.3434
 1180TIP3   OH225030   6.646   3.291  14.295  0.3691  0.5189  0.3924
 1180TIP3    H125031   6.728   3.290  14.246 -0.3165  1.1572 -0.8284
 1180TIP3    H225032   6.590   3.351  14.245 -0.9024 -0.0577  1.0931
 1181TIP3   OH225033   4.825   6.618  15.164 -0.1783 -0.4566 -0.0280
 1181TIP3    H125034   4.907   6.617  15.213 -0.9569 -0.0243  1.3278
 1181TIP3    H225035   4.844   6.672  15.087  1.4073 -2.1396 -0.8957
 1182TIP3   OH225036   0.903   3.232   1.904 -0.2256  0.2089  0.2577
 1182TIP3    H125037   0.959   3.307   1.886  0.2860 -0.0385  0.7693
 1182TIP3    H225038   0.835   3.265   1.963  0.8755 -0.0347  1.7449
 1183TIP3   OH225039   2.504   2.389  11.718 -0.1715  0.5287 -0.0542
 1183TIP3    H125040   2.497   2.463  11.778 -1.4556  1.2730 -1.0683
 1183TIP3    H225041   2.473   2.423  11.634 -1.7047 -1.3797 -0.3379
 1184TIP3   OH225042   1.422   4.216   0.122  0.1676  0.0756  0.5548
 1184TIP3    H125043   1.344   4.219   0.178  1.1506 -2.0853  2.2170
 1184TIP3    H225044   1.409   4.138   0.068  0.5692  0.4708 -0.1210
 1185TIP3   OH225045   1.090   2.951   0.738  0.3019  0.0270 -0.4066
 1185TIP3    H125046   1.004   2.966   0.701 -1.0253 -0.8777  2.0858
 1185TIP3    H225047   1.127   3.039   0.748 -0.0525  0.3854 -2.0290
 1186TIP3   OH225048   3.235   1.270   2.799  0.2676 -0.3542 -0.1267
 1186TIP3    H125049   3.236   1.174   2.802  0.3740 -0.3342  0.5164
 1186TIP3    H225050   3.305   1.292   2.737 -1.6179 -0.7540 -2.5561
 1187TIP3   OH225051   2.615   1.469   2.417 -0.2733 -0.0830  0.4147
 1187TIP3    H125052   2.541   1.455   2.357  0.2279 -1.4187  0.0803
 1187TIP3    H225053   2.656   1.384   2.424  1.8139  0.8144 -0.1603
 1188TIP3   OH225054   2.754   0.006  12.415  0.3956  0.1564  0.3829
 1188TIP3    H125055   2.767  -0.064  12.352  0.6785  0.5599 -0.0099
 1188TIP3    H225056   2.693  -0.031  12.479 -1.0350  0.2324 -0.8841
 1189TIP3   OH225057   2.370   1.059   5.308  0.4254  0.0576  0.5806
 1189TIP3    H125058   2.373   1.023   5.219  0.9808  0.9764  0.2167
 1189TIP3    H225059   2.394   0.985   5.364 -3.0860 -1.4827  0.3109
 1190TIP3   OH225060   6.451   0.546  16.769 -0.0680 -0.4318  0.2840
 1190TIP3    H125061   6.421   0.539  16.678  1.9914 -0.4551 -0.4397
 1190TIP3    H225062   6.531   0.494  16.772  0.0381 -0.2309  2.0729
 1191TIP3   OH225063   6.416   3.080  13.908  0.6360  0.9946 -0.2552
 1191TIP3    H125064   6.419   3.111  13.817 -2.5639  1.1389 -0.4259
 1191TIP3    H225065   6.386   2.989  13.901  1.2252  0.7268  0.6262
 1192TIP3   OH225066   5.908   0.541   3.236  0.6864 -0.2269 -0.2536
 1192TIP3    H125067   5.984   0.510   3.284  0.7880  0.5761  0.1191
 1192TIP3    H225068   5.937   0.621   3.192  0.9786 -1.6266 -2.7624
 1193TIP3   OH225069   1.086   1.736  13.696  0.2926 -0.2995  0.0927
 1193TIP3    H125070   1.121   1.774  13.616 -0.3886 -1.9469 -1.0433
 1193TIP3    H225071   0.991   1.748  13.690  0.3831  3.0938  2.5980
 1194TIP3   OH225072   4.208   5.575   3.362 -0.5335 -0.4088 -0.3902
 1194TIP3    H125073   4.223   5.522   3.441  0.2567  2.6851  1.7072
 1194TIP3    H225074   4.292   5.573   3.316  0.4314  1.1625  1.1669
 1195TIP3   OH225075   2.639   2.680   4.518  0.0339 -0.3202 -0.2900
 1195TIP3    H125076   2.574   2.714   4.457 -0.3662 -1.2686 -0.4016
 1195TIP3    H225077   2.720   2.725   4.494 -0.0783 -0.8020 -1.6315
 1196TIP3   OH225078   2.725   0.277  16.271  0.2652  0.5850 -0.2021
 1196TIP3    H125079   2.676   0.348  16.229 -2.4963  0.0472  1.8315
 1196TIP3    H225080   2.699   0.198  16.223  0.1221  0.4576  0.0804
 1197TIP3   OH225081   2.698   0.341   1.081 -0.3929  0.4435  0.0432
 1197TIP3    H125082   2.703   0.276   1.011  0.3486 -0.9932  1.3611
 1197TIP3    H225083   2.790   0.361   1.101 -0.5277 -0.2004  1.4734
 1198TIP3   OH225084   2.703   2.894   2.564  0.7704 -0.0779 -0.4384
 1198TIP3    H125085   2.782   2.845   2.588  1.6839  1.2229 -0.6438
 1198TIP3    H225086   2.634   2.829   2.562  1.4693 -0.9500  1.5699
 1199TIP3   OH225087   3.267   2.149   0.676 -0.0084  0.1002  0.0991
 1199TIP3    H125088   3.362   2.148   0.666  0.0221  0.5841  0.3044
 1199TIP3    H225089   3.236   2.083   0.615  0.5112 -0.6498  0.6229
 1200TIP3   OH225090   2.783   4.018  12.627  0.4808  0.0842 -0.4437
 1200TIP3    H125091   2.778   4.100  12.578  0.6097 -0.3438 -1.1864
 1200TIP3    H225092   2.737   3.954  12.572  0.5264 -0.3839  0.0469
 1201TIP3   OH225093   3.246   6.707  12.099  0.1424  0.1590 -0.0682
 1201TIP3    H125094   3.258   6.757  12.018 -3.8357  0.7889 -0.4767
 1201TIP3    H225095   3.205   6.768  12.159  0.2213 -1.1614  1.3788
 1202TIP3   OH225096   1.464   1.806  12.564  0.1363  0.0900  0.4394
 1202TIP3    H125097   1.534   1.741  12.559 -0.4811 -0.5158 -0.7305
 1202TIP3    H225098   1.404   1.783  12.493 -0.4490  1.5418  0.4206
 1203TIP3   OH225099   1.509   3.733  10.966  0.0860 -0.0330 -0.0871
 1203TIP3    H125100   1.554   3.667  10.913  1.4585 -0.7890  1.8897
 1203TIP3    H225101   1.422   3.698  10.980 -0.5282  0.4823 -2.2862
 1204TIP3   OH225102   4.613   3.345  13.896  0.8502 -0.4447  0.0216
 1204TIP3    H125103   4.541   3.286  13.919 -0.0618  0.7940  0.4527
 1204TIP3    H225104   4.685   3.287  13.874 -0.5385 -1.7547 -1.3369
 1205TIP3   OH225105   0.524   1.211  15.723  0.1275  0.3628 -0.3429
 1205TIP3    H125106   0.437   1.170  15.717 -0.2159  0.9956  0.1394
 1205TIP3    H225107   0.523   1.278  15.655  0.5414 -0.1476 -0.8642
 1206TIP3   OH225108   6.387   2.520  16.164 -0.9193 -0.4249  0.1549
 1206TIP3    H125109   6.372   2.546  16.074  0.7670  0.0059 -0.0434
 1206TIP3    H225110   6.436   2.437  16.157  0.0321  0.0759  0.6258
 1207TIP3   OH225111   3.898   1.390   1.274 -0.0416 -0.0703  0.0392
 1207TIP3    H125112   3.991   1.409   1.277 -0.0461 -0.1563  1.4833
 1207TIP3    H225113   3.893   1.298   1.246  0.1001  0.8781 -3.6821
 1208TIP3   OH225114   4.643   2.876  14.100 -0.0674  0.2051 -0.3480
 1208TIP3    H125115   4.701   2.801  14.087  1.7776  1.8544 -2.8382
 1208TIP3    H225116   4.686   2.928  14.168  1.1228  1.0470 -1.6613
 1209TIP3   OH225117   0.167   5.073  11.015 -0.1780 -0.3951 -0.0766
 1209TIP3    H125118   0.236   5.014  11.045  1.4385 -0.1814 -2.9662
 1209TIP3    H225119   0.090   5.018  11.006  0.4362 -1.3350  0.3193
 1210TIP3   OH225120   1.909   2.597   1.737  0.6330  0.9467  0.2342
 1210TIP3    H125121   1.951   2.577   1.653  0.1211  1.4112 -0.1372
 1210TIP3    H225122   1.831   2.648   1.714  0.1378  0.5379  0.9447
 1211TIP3   OH225123   3.040   4.596   3.556  0.0276 -0.0619 -0.7855
 1211TIP3    H125124   3.008   4.673   3.603  0.0162 -0.3737 -0.2748
 1211TIP3    H225125   3.026   4.617   3.463 -0.6512  0.2529 -0.6165
 1212TIP3   OH225126   0.416   2.654  10.857 -0.1671 -0.6631 -0.2702
 1212TIP3    H125127   0.512   2.664  10.859  0.0030 -1.7536 -1.5314
 1212TIP3    H225128   0.403   2.565  10.823 -1.6407  0.0883 -1.7724
 1213TIP3   OH225129   5.858   4.854   0.266  0.3215 -0.5097 -0.0674
 1213TIP3    H125130   5.830   4.936   0.226  0.4859 -0.8302 -0.8575
 1213TIP3    H225131   5.776   4.811   0.290  0.1937 -0.5831 -0.6171
 1214TIP3   OH225132   3.375   3.228  13.748 -0.0996  0.2075 -0.2976
 1214TIP3    H125133   3.370   3.324  13.755  3.2501  0.5338 -0.6058
 1214TIP3    H225134   3.319   3.206  13.673  3.2196  2.7440 -3.9818
 1215TIP3   OH225135   6.438   2.143  12.387 -0.3985 -0.4731  0.2281
 1215TIP3    H125136   6.357   2.091  12.379  0.3908 -2.0417  1.7892
 1215TIP3    H225137   6.460   2.140  12.480  0.4537  1.5634  0.1395
 1216TIP3   OH225138   0.632   4.528  16.383  0.7229  0.4879  0.0815
 1216TIP3    H125139   0.563   4.573  16.334 -0.2088  0.8639  1.6644
 1216TIP3    H225140   0.591   4.448  16.415  1.8956 -0.7557 -1.3143
 1217TIP3   OH225141   6.727   4.149  13.690  0.1067 -0.0943  0.2190
 1217TIP3    H125142   6.671   4.074  13.672 -0.1603  0.5527 -1.9811
 1217TIP3    H225143   6.816   4.114  13.687  0.1265 -0.0482 -3.0606
 1218TIP3   OH225144   5.396   0.370  16.793 -0.1670 -0.4561 -0.1491
 1218TIP3    H125145   5.451   0.346  16.718 -0.1294  0.3820 -0.3997
 1218TIP3    H225146   5.317   0.407  16.753 -0.5642 -0.8997  0.2207
 1219TIP3   OH225147   6.754   0.801  16.298 -0.1045  0.1786 -0.4513
 1219TIP3    H125148   6.749   0.836  16.209  2.0733  0.4413 -0.5231
 1219TIP3    H225149   6.762   0.706  16.286  0.1471  0.2101 -0.5362
 1220TIP3   OH225150   0.286   5.232   2.298 -0.2304 -0.4906 -0.2364
 1220TIP3    H125151   0.208   5.280   2.269 -0.0395  1.0270  1.5896
 1220TIP3    H225152   0.261   5.140   2.291 -1.5527 -0.0839 -1.3520
 1221TIP3   OH225153   5.666   0.735   3.825  0.5283  0.4554  0.1194
 1221TIP3    H125154   5.710   0.655   3.796  1.1262  0.9350 -0.3483
 1221TIP3    H225155   5.585   0.706   3.866  1.8392 -0.5635  2.1497
 1222TIP3   OH225156   0.867   1.184   4.468 -0.2589  0.1995 -0.1104
 1222TIP3    H125157   0.803   1.163   4.401  0.3397  1.8522 -1.2713
 1222TIP3    H225158   0.910   1.100   4.487 -0.2790 -0.2941 -1.9933
 1223TIP3   OH225159   1.327   5.856  12.947 -0.6781 -0.8880  0.1261
 1223TIP3    H125160   1.412   5.860  12.991 -0.4488  0.2901 -0.3620
 1223TIP3    H225161   1.335   5.785  12.884  0.6474  0.3679 -1.2267
 1224TIP3   OH225162   6.798   3.229  12.600 -0.0527  0.3440  0.3075
 1224TIP3    H125163   6.818   3.319  12.627 -0.6684  1.1243 -1.6215
 1224TIP3    H225164   6.835   3.222  12.512  2.5705 -2.3128  1.4857
 1225TIP3   OH225165   3.561   4.445  12.083  0.7017 -0.3673 -0.1533
 1225TIP3    H125166   3.520   4.365  12.050 -1.1428  0.6300 -0.3919
 1225TIP3    H225167   3.488   4.498  12.115  1.9637  0.8886  0.7625
 1226TIP3   OH225168   5.475   0.954  13.452  0.3486  0.1232 -0.2634
 1226TIP3    H125169   5.527   0.874  13.448  2.8251  1.6754 -2.5666
 1226TIP3    H225170   5.519   1.008  13.517 -1.6172 -0.4786  1.6699
 1227TIP3   OH225171   6.013   4.129   0.957 -0.4224  0.5116 -0.1228
 1227TIP3    H125172   5.991   4.212   0.914  0.7024  1.5624  1.2260
 1227TIP3    H225173   6.099   4.145   0.996 -0.1199 -1.3612  0.0471
 1228TIP3   OH225174   1.327   4.810   3.760  0.2597  0.1571 -0.1474
 1228TIP3    H125175   1.320   4.874   3.689  0.0238  0.5657  0.2385
 1228TIP3    H225176   1.302   4.727   3.720 -1.8901  0.7113 -0.0613
 1229TIP3   OH225177   4.100   1.739   5.468  0.3378  0.1279  0.3307
 1229TIP3    H125178   4.178   1.771   5.422 -0.9828 -0.2856 -2.4497
 1229TIP3    H225179   4.030   1.748   5.403 -1.4233 -1.9163  1.8243
 1230TIP3   OH225180   0.757   3.665   5.034  0.5059  0.7379 -0.5567
 1230TIP3    H125181   0.757   3.637   4.943 -0.4119 -0.8586 -0.1126
 1230TIP3    H225182   0.670   3.640   5.067  0.9505  0.9332  0.8414
 1231TIP3   OH225183   6.577   5.001   0.480  0.0284 -0.3914 -0.2985
 1231TIP3    H125184   6.649   5.060   0.457 -0.0189 -0.4943 -0.7217
 1231TIP3    H225185   6.551   5.027   0.569 -0.5643  0.7968 -0.8035
 1232TIP3   OH225186   3.162   5.548   1.343 -0.2200  0.8502  0.0391
 1232TIP3    H125187   3.155   5.453   1.346  1.0887  0.7565  1.1643
 1232TIP3    H225188   3.101   5.575   1.274  0.9830 -0.9567 -1.8099
 1233TIP3   OH225189   3.354   2.915   1.863  0.1188  0.6555 -0.1872
 1233TIP3    H125190   3.275   2.862   1.854 -1.0341  2.4868 -1.3378
 1233TIP3    H225191   3.347   2.954   1.950 -0.0727  0.5763 -0.1680
 1234TIP3   OH225192   5.418   2.870  12.880  0.0680  0.2737  0.2555
 1234TIP3    H125193   5.468   2.790  12.867 -0.9879 -0.4623  0.5286
 1234TIP3    H225194   5.455   2.932  12.818 -0.0539 -0.8788 -1.0321
 1235TIP3   OH225195   2.273   5.941   5.917  0.5323 -0.1483  0.1291
 1235TIP3    H125196   2.335   5.878   5.954  0.9556  0.9220  1.3180
 1235TIP3    H225197   2.204   5.950   5.984  0.8827  1.2014  0.3462
 1236TIP3   OH225198   1.532   1.368   1.928  0.3389  0.5720 -0.5924
 1236TIP3    H125199   1.564   1.434   1.866  0.4920 -0.1902 -1.3333
 1236TIP3    H225200   1.554   1.284   1.888  1.2371  0.0493  0.8953
 1237TIP3   OH225201   1.374   3.546   0.158 -0.3207 -0.5439  0.1341
 1237TIP3    H125202   1.284   3.564   0.133  0.1290  0.7496 -0.6382
 1237TIP3    H225203   1.369   3.465   0.209 -1.9617 -0.2589  0.4757
 1238TIP3   OH225204   1.581   1.981   6.088 -0.1249  0.2439 -0.0565
 1238TIP3    H125205   1.503   1.925   6.097 -0.5812  1.0285  1.0849
 1238TIP3    H225206   1.569   2.050   6.153  0.5515  1.5405 -1.2366
 1239TIP3   OH225207   2.726   2.428  16.426  0.2478 -0.4334  0.0804
 1239TIP3    H125208   2.723   2.482  16.347  0.8953 -1.4439 -0.6826
 1239TIP3    H225209   2.765   2.345  16.395 -0.5249 -1.2448  1.2338
 1240TIP3   OH225210   0.994   0.148  11.597 -0.2389  0.4217  0.0653
 1240TIP3    H125211   0.949   0.194  11.668 -0.5603  0.8935 -0.4325
 1240TIP3    H225212   0.992   0.056  11.623  0.1076  0.6434  0.9144
 1241TIP3   OH225213   1.588   2.651   4.088 -0.1488 -0.4541  0.0879
 1241TIP3    H125214   1.680   2.636   4.066 -0.0922  0.7194 -0.5861
 1241TIP3    H225215   1.569   2.738   4.052 -1.7379 -1.0000 -0.4802
 1242TIP3   OH225216   6.165   0.322  11.920  0.2550 -0.4160 -0.5119
 1242TIP3    H125217   6.116   0.244  11.895  1.3208 -0.8487 -1.3523
 1242TIP3    H225218   6.247   0.288  11.955  0.8824  0.3172 -1.2234
 1243TIP3   OH225219   1.483   4.111   2.826 -0.3665  0.0777 -0.0476
 1243TIP3    H125220   1.474   4.091   2.919 -0.9110  2.6100  0.5180
 1243TIP3    H225221   1.577   4.101   2.809 -0.3984 -1.3830  0.4882
 1244TIP3   OH225222   3.763   6.296  13.788  0.5365  0.1988 -0.8212
 1244TIP3    H125223   3.737   6.204  13.782 -0.9833  0.4735  0.9160
 1244TIP3    H225224   3.825   6.298  13.861 -0.8060  0.7987  0.3356
 1245TIP3   OH225225   3.414   5.738  16.421 -0.0882  0.0403  0.1119
 1245TIP3    H125226   3.409   5.674  16.492 -0.0861  0.8316  0.8397
 1245TIP3    H225227   3.324   5.770  16.411 -0.1018 -0.1150 -0.2963
 1246TIP3   OH225228   4.328   4.400   4.961  0.0225 -0.2340 -0.6685
 1246TIP3    H125229   4.247   4.404   4.910 -0.0098  0.0063 -0.5983
 1246TIP3    H225230   4.394   4.372   4.898 -0.1368 -0.5426 -0.6994
 1247TIP3   OH225231   3.968   1.705  15.561 -0.0421 -0.0039  0.3974
 1247TIP3    H125232   4.050   1.736  15.520  1.0021 -2.2561  0.6438
 1247TIP3    H225233   3.990   1.620  15.597 -1.9802  0.2380  2.3511
 1248TIP3   OH225234   6.522   2.221  14.282 -0.3093 -0.3574 -0.2005
 1248TIP3    H125235   6.582   2.261  14.346 -0.4954  1.9406 -1.3742
 1248TIP3    H225236   6.445   2.199  14.334  0.7924 -1.6811  0.9823
 1249TIP3   OH225237   3.805   1.770   3.937 -0.3906 -0.5960 -0.1428
 1249TIP3    H125238   3.891   1.789   3.900 -0.8372  1.0949 -0.3878
 1249TIP3    H225239   3.744   1.818   3.881 -1.3431 -0.4335  1.0059
 1250TIP3   OH225240   0.542   2.059   2.458 -0.1210  0.1239  0.1263
 1250TIP3    H125241   0.581   1.971   2.458  2.3843  1.1287 -0.5462
 1250TIP3    H225242   0.497   2.065   2.374  0.4183 -0.2440 -0.1975
 1251TIP3   OH225243   5.736   1.724  15.676  0.2579  1.1779  0.1862
 1251TIP3    H125244   5.771   1.684  15.756 -0.0872  1.7173  0.6170
 1251TIP3    H225245   5.787   1.685  15.605 -0.2356 -0.1972  0.5640
 1252TIP3   OH225246   4.497   5.183   6.126  0.1498 -0.3480  0.5370
 1252TIP3    H125247   4.433   5.250   6.149 -0.4265 -0.6863 -0.0472
 1252TIP3    H225248   4.548   5.169   6.206 -0.1988  0.2581  0.8684
 1253TIP3   OH225249   6.608   1.228   1.633  0.0063  0.1967  0.3113
 1253TIP3    H125250   6.605   1.318   1.667 -1.8377 -0.0458  0.9262
 1253TIP3    H225251   6.561   1.176   1.699 -4.3269 -0.2205 -2.6292
 1254TIP3   OH225252   3.033   6.329  13.431  0.3002  0.1056  0.2036
 1254TIP3    H125253   3.064   6.239  13.421 -0.6684 -0.2149 -0.0487
 1254TIP3    H225254   3.025   6.362  13.342  0.4661  0.3805  0.2880
 1255TIP3   OH225255   1.473   1.669   5.240  0.0550 -0.4819 -0.1214
 1255TIP3    H125256   1.466   1.751   5.191 -0.1332 -1.2301 -1.3899
 1255TIP3    H225257   1.567   1.658   5.254  0.2218 -0.8710 -1.4280
 1256TIP3   OH225258   1.919   1.550  13.558  0.1040 -0.2088  0.1306
 1256TIP3    H125259   1.887   1.622  13.504  0.2842  0.9991  1.5835
 1256TIP3    H225260   1.842   1.520  13.606  0.0538 -0.9316 -0.3792
 1257TIP3   OH225261   3.952   3.625  14.730 -0.1877 -0.2100 -0.0754
 1257TIP3    H125262   3.933   3.534  14.751 -2.4270  0.7196  2.5550
 1257TIP3    H225263   3.927   3.674  14.809 -0.1003  2.7892 -1.7460
 1258TIP3   OH225264   6.106   4.326   3.318 -0.3013 -0.3929  0.3976
 1258TIP3    H125265   6.087   4.300   3.228 -1.9646 -0.7097  0.7980
 1258TIP3    H225266   6.115   4.243   3.365 -2.2781 -0.2986  1.0366
 1259TIP3   OH225267   0.379   1.008   3.171 -0.5568 -0.3284  0.0601
 1259TIP3    H125268   0.450   0.969   3.223 -1.6957 -0.0592  1.9025
 1259TIP3    H225269   0.312   1.030   3.235 -1.2914  1.7268 -1.3025
 1260TIP3   OH225270   0.412   3.617  15.837 -0.6673 -0.0260  0.4113
 1260TIP3    H125271   0.365   3.534  15.850  0.5909 -0.5891  1.6330
 1260TIP3    H225272   0.498   3.590  15.804 -0.0741  0.7496  1.3019
 1261TIP3   OH225273   6.613   4.810   5.592 -0.4150  0.1112 -0.0614
 1261TIP3    H125274   6.602   4.720   5.562 -1.1114  0.1833 -0.0335
 1261TIP3    H225275   6.687   4.806   5.653  0.9530 -0.0587 -1.6745
 1262TIP3   OH225276   0.207   6.122   0.927 -0.3224 -0.3442 -0.1907
 1262TIP3    H125277   0.275   6.180   0.962 -0.0448 -1.7859  1.8109
 1262TIP3    H225278   0.255   6.046   0.895 -0.9078 -1.0570  0.5748
 1263TIP3   OH225279   5.363   1.553  17.326  0.0003 -0.2290  0.2723
 1263TIP3    H125280   5.449   1.569  17.363  1.1666  1.7074 -2.8605
 1263TIP3    H225281   5.307   1.619  17.366  0.6404  0.2871  0.3295
 1264TIP3   OH225282   6.161   2.426  12.752 -0.4834  0.0261  0.1203
 1264TIP3    H125283   6.072   2.435  12.718 -0.4858 -1.1877 -0.2397
 1264TIP3    H225284   6.149   2.415  12.846 -0.5828  1.6423  0.3291
 1265TIP3   OH225285   0.120   1.963  10.982  0.2679  0.3577  0.3496
 1265TIP3    H125286   0.187   2.019  11.018  0.3399 -0.7743  2.0754
 1265TIP3    H225287   0.166   1.882  10.958 -0.0120  0.5967 -1.1367
 1266TIP3   OH225288   0.155   5.261   5.831 -0.2937 -0.4440 -0.2222
 1266TIP3    H125289   0.076   5.247   5.884 -0.5813  0.7347 -0.3181
 1266TIP3    H225290   0.226   5.226   5.884 -0.5299  1.0000  1.1293
 1267TIP3   OH225291   5.040   0.837  12.932 -0.2242 -0.5064 -0.1417
 1267TIP3    H125292   5.020   0.744  12.924  1.3179 -0.7382 -1.8593
 1267TIP3    H225293   5.043   0.869  12.841  0.0754  1.0464  0.3814
 1268TIP3   OH225294   1.700   6.633  14.653  0.4137 -0.2023  0.4759
 1268TIP3    H125295   1.693   6.600  14.564  0.4936 -0.0292  0.4038
 1268TIP3    H225296   1.613   6.669  14.673  0.8896  1.4502 -0.2186
 1269TIP3   OH225297   2.051   1.249   0.393  0.3988 -0.4139 -0.3898
 1269TIP3    H125298   2.032   1.341   0.377 -1.8881 -0.9886 -1.4119
 1269TIP3    H225299   2.103   1.221   0.318  1.9633  0.2456  0.4178
 1270TIP3   OH225300   5.419   2.056   5.640 -0.3706  0.0738  0.1067
 1270TIP3    H125301   5.486   1.993   5.613 -0.7113 -0.2400 -0.0156
 1270TIP3    H225302   5.468   2.124   5.686  0.2755  0.8507 -1.6597
 1271TIP3   OH225303   5.329   1.318  12.928 -0.1082 -0.0874  0.2579
 1271TIP3    H125304   5.364   1.239  12.887 -0.5800  0.4826 -1.3197
 1271TIP3    H225305   5.250   1.288  12.972 -1.5054 -0.2152 -2.1391
 1272TIP3   OH225306   2.898   2.792  11.604 -0.5452  0.2891 -0.3806
 1272TIP3    H125307   2.892   2.828  11.692  2.2223 -0.6434  0.3142
 1272TIP3    H225308   2.986   2.753  11.601 -1.9903 -3.2475 -2.2105
 1273TIP3   OH225309   1.927   0.710  11.094 -0.8910  0.0812 -0.1849
 1273TIP3    H125310   1.966   0.651  11.030  0.7247  0.3426  0.5229
 1273TIP3    H225311   1.901   0.654  11.167 -1.6996 -0.0652 -0.5714
 1274TIP3   OH225312   5.134   2.349   5.531  0.4258 -0.1631 -0.5104
 1274TIP3    H125313   5.151   2.317   5.443 -2.2890  1.0702 -1.5838
 1274TIP3    H225314   5.106   2.272   5.580 -0.9306 -0.3801 -1.5836
 1275TIP3   OH225315   4.993   1.135   5.390  0.5221  0.7888 -0.3878
 1275TIP3    H125316   5.076   1.113   5.432  1.2748  1.3820 -1.5130
 1275TIP3    H225317   4.955   1.202   5.446  0.4560  0.0013  0.5223
 1276TIP3   OH225318   4.416   0.551  16.345 -0.7779  0.6617  0.0580
 1276TIP3    H125319   4.383   0.479  16.399 -0.2873  0.4511  0.0845
 1276TIP3    H225320   4.502   0.572  16.383 -1.0220  1.4252  0.1964
 1277TIP3   OH225321   5.035   2.193   3.960  0.7229  0.0983 -0.2868
 1277TIP3    H125322   5.005   2.107   3.991  1.3894  0.0326  0.2005
 1277TIP3    H225323   5.130   2.184   3.952  0.6981  0.5177 -1.1348
 1278TIP3   OH225324   0.209   2.738  16.910 -0.6390 -0.0397 -0.3962
 1278TIP3    H125325   0.131   2.693  16.942 -0.6837  0.9893  1.0360
 1278TIP3    H225326   0.188   2.831  16.919  0.3281  0.2614 -1.0677
 1279TIP3   OH225327   2.341   5.951  16.227  0.5522 -0.0034 -0.1052
 1279TIP3    H125328   2.427   5.993  16.223 -0.0032  1.1263 -0.4472
 1279TIP3    H225329   2.316   5.957  16.319  0.2005  0.9837 -0.2644
 1280TIP3   OH225330   6.395   4.037  13.011  0.0793  0.0825 -0.2070
 1280TIP3    H125331   6.370   3.966  12.951  0.1225 -0.4986  0.4525
 1280TIP3    H225332   6.443   3.993  13.082 -0.0634  0.7424  0.3073
 1281TIP3   OH225333   5.762   6.597  15.831 -0.3404 -0.6079  0.3308
 1281TIP3    H125334   5.787   6.538  15.760  0.2371  0.0994 -0.0607
 1281TIP3    H225335   5.840   6.650  15.846 -0.3269 -1.0045  1.7657
 1282TIP3   OH225336   6.355   4.862  17.153 -0.5050 -0.1518  0.0669
 1282TIP3    H125337   6.330   4.945  17.194  1.8959 -0.1968  1.8446
 1282TIP3    H225338   6.342   4.796  17.221  1.0171 -0.6497 -0.0712
 1283TIP3   OH225339   3.426   1.273  16.605  0.1726 -0.1207 -0.1755
 1283TIP3    H125340   3.488   1.322  16.659 -0.4706  0.8556 -0.2899
 1283TIP3    H225341   3.464   1.275  16.517  2.0208 -3.0675  0.4454
 1284TIP3   OH225342   6.569   1.825  16.424  0.2867  0.0903  0.1746
 1284TIP3    H125343   6.599   1.754  16.367 -0.0822  0.2153 -0.1846
 1284TIP3    H225344   6.473   1.818  16.422  0.2462  0.6024  0.1283
 1285TIP3   OH225345   3.394   2.833   6.422  0.5520 -0.1197 -0.3332
 1285TIP3    H125346   3.348   2.821   6.339  1.4551  2.2605 -1.2656
 1285TIP3    H225347   3.461   2.764   6.422  0.9808  0.2626 -1.9295
 1286TIP3   OH225348   3.243   6.312  12.704  0.4142 -0.2980 -0.6195
 1286TIP3    H125349   3.187   6.390  12.703  0.0964 -0.5258 -1.5647
 1286TIP3    H225350   3.198   6.250  12.647  1.0820 -0.8842 -0.5175
 1287TIP3   OH225351   4.797   3.464   0.555  0.3058 -0.3550 -0.3343
 1287TIP3    H125352   4.731   3.484   0.489 -0.3547 -2.7590 -0.5219
 1287TIP3    H225353   4.795   3.538   0.615 -0.8608  0.7204 -1.6306
 1288TIP3   OH225354   0.962   6.102  14.264  0.3474 -1.2759  0.2592
 1288TIP3    H125355   1.041   6.140  14.225 -0.3496  1.4712  1.3085
 1288TIP3    H225356   0.994   6.053  14.339  1.1392 -1.1266  0.0355
 1289TIP3   OH225357   2.924   5.984   4.175  0.0208 -0.3780  0.0845
 1289TIP3    H125358   2.941   6.018   4.263  0.4573 -0.5164  0.0549
 1289TIP3    H225359   2.901   6.061   4.124 -0.9084 -0.3801  0.4745
 1290TIP3   OH225360   2.263   1.621   4.734  0.5823 -0.0312 -0.5819
 1290TIP3    H125361   2.177   1.657   4.756  0.4485 -0.5050 -0.3195
 1290TIP3    H225362   2.292   1.577   4.815  1.7328  1.3901 -0.1710
 1291TIP3   OH225363   2.987   4.167   3.339  0.5160 -0.7867  0.3368
 1291TIP3    H125364   2.932   4.101   3.382  2.2103 -1.8952  0.9175
 1291TIP3    H225365   2.996   4.236   3.404 -0.7842 -0.2158 -0.0517
 1292TIP3   OH225366   3.581   2.158  13.906 -0.1091 -0.2395 -0.0293
 1292TIP3    H125367   3.596   2.245  13.870  1.2054 -0.6799 -0.6311
 1292TIP3    H225368   3.592   2.168  14.000  0.8174  0.1142 -0.1642
 1293TIP3   OH225369   6.679   1.333   2.749  0.0416  0.4485  0.0761
 1293TIP3    H125370   6.630   1.269   2.802  1.2631 -0.2613  0.4093
 1293TIP3    H225371   6.631   1.338   2.667  0.3459 -1.5945 -0.3016
 1294TIP3   OH225372   5.144   2.316   2.711 -0.2774  0.5621 -0.9984
 1294TIP3    H125373   5.134   2.407   2.739 -0.7382  0.0469  0.6555
 1294TIP3    H225374   5.091   2.308   2.632 -1.5420  1.3483 -0.2475
 1295TIP3   OH225375   5.371   2.207   2.552  0.0469 -0.0517  0.2509
 1295TIP3    H125376   5.379   2.140   2.620 -1.0492  1.6870  2.2119
 1295TIP3    H225377   5.416   2.283   2.588  0.7927  0.5043 -1.6901
 1296TIP3   OH225378   1.643   3.993   1.329  0.0380 -0.1034 -0.1066
 1296TIP3    H125379   1.706   4.065   1.327 -1.5112  1.2695 -0.4454
 1296TIP3    H225380   1.582   4.015   1.399 -0.9230 -0.6894 -0.7418
 1297TIP3   OH225381   5.870   6.667  12.267 -0.0594 -0.2872  0.5224
 1297TIP3    H125382   5.887   6.585  12.313  0.1262 -0.5461 -0.0089
 1297TIP3    H225383   5.842   6.727  12.336  0.5987 -0.5580  1.0374
 1298TIP3   OH225384   4.296   0.557   0.702 -0.3814  0.2579  0.6305
 1298TIP3    H125385   4.364   0.491   0.687 -1.1679 -0.5015  0.2565
 1298TIP3    H225386   4.340   0.640   0.687  0.3570 -0.2366 -0.1009
 1299TIP3   OH225387   4.409   2.570  17.166 -0.1328  0.0164  0.6849
 1299TIP3    H125388   4.363   2.526  17.237 -0.1374  1.3368  1.5209
 1299TIP3    H225389   4.500   2.577  17.197  0.3134 -1.1575 -0.2845
 1300TIP3   OH225390   2.935   1.260  14.511  0.6645 -0.8268 -0.2948
 1300TIP3    H125391   2.985   1.202  14.569  1.1163  0.0707  0.2380
 1300TIP3    H225392   2.979   1.345  14.519 -2.3076  0.6583  2.0563
 1301TIP3   OH225393   3.865   3.397  15.848  0.3207 -0.5986  0.0153
 1301TIP3    H125394   3.785   3.381  15.797 -0.3490  1.0255  0.5011
 1301TIP3    H225395   3.901   3.310  15.864 -1.1604 -1.3401 -0.5278
 1302TIP3   OH225396   1.721   6.474   4.424 -0.4836 -0.3322 -0.1583
 1302TIP3    H125397   1.805   6.429   4.413 -1.0395 -1.0218 -1.9081
 1302TIP3    H225398   1.742   6.550   4.479  0.7803 -1.8550  1.5892
 1303TIP3   OH225399   3.465   2.470  14.656  0.0619  0.7995  0.0900
 1303TIP3    H125400   3.543   2.445  14.606  0.8764  1.7970  0.8434
 1303TIP3    H225401   3.393   2.453  14.595  0.8712  0.1033 -0.7149
 1304TIP3   OH225402   4.329   4.378   0.223  0.8506 -0.3802 -0.6211
 1304TIP3    H125403   4.403   4.437   0.240  0.1657  0.4396 -0.4665
 1304TIP3    H225404   4.338   4.354   0.131  1.6564 -0.7827 -0.4518
 1305TIP3   OH225405   4.709   1.088  17.027  0.0693 -0.4369  0.4657
 1305TIP3    H125406   4.685   1.181  17.025  0.1060 -0.4144  0.9049
 1305TIP3    H225407   4.791   1.083  16.977 -0.1489 -0.2980  0.0959
 1306TIP3   OH225408   2.029   5.320   1.700  0.3627  0.5501 -0.4828
 1306TIP3    H125409   1.939   5.295   1.681 -0.4161  1.5271  1.5409
 1306TIP3    H225410   2.065   5.347   1.616 -1.8943  2.0349 -1.0748
 1307TIP3   OH225411   2.048   5.934   3.491 -0.5079 -0.1571 -0.3441
 1307TIP3    H125412   2.139   5.958   3.508 -0.4796 -0.9369  0.7184
 1307TIP3    H225413   2.001   6.017   3.488  0.0142  0.1719  0.5131
 1308TIP3   OH225414   6.757   2.365   6.086  0.4337 -0.2846  0.1730
 1308TIP3    H125415   6.844   2.403   6.093  0.2792  0.2226 -0.4498
 1308TIP3    H225416   6.713   2.389   6.168  1.6095 -2.5861  1.5727
 1309TIP3   OH225417   1.136   1.606  15.346  0.4405 -0.1083  0.3761
 1309TIP3    H125418   1.188   1.541  15.392 -0.3223 -0.8394  0.2236
 1309TIP3    H225419   1.200   1.668  15.311  1.2327 -1.1585 -0.0853
 1310TIP3   OH225420   0.903   0.839   2.409 -0.6296  0.0645  0.4591
 1310TIP3    H125421   0.996   0.859   2.397 -1.0714  1.2400 -1.2447
 1310TIP3    H225422   0.899   0.743   2.411  0.5225 -0.0221 -0.4521
 1311TIP3   OH225423   2.208   4.274  15.836 -0.7321  0.2189 -0.1467
 1311TIP3    H125424   2.275   4.286  15.768  1.3219  0.0560  1.7311
 1311TIP3    H225425   2.125   4.283  15.790  0.4741 -2.4984 -3.1692
 1312TIP3   OH225426   5.503   1.498  15.468 -0.3961 -0.2269  0.0863
 1312TIP3    H125427   5.480   1.416  15.423  2.3322  0.5465 -3.1452
 1312TIP3    H225428   5.441   1.562  15.433 -0.0326 -0.1801 -0.4924
 1313TIP3   OH225429   3.204   6.596   3.222 -0.2441 -0.9532  0.2127
 1313TIP3    H125430   3.152   6.525   3.258 -2.2557 -0.4624 -1.4972
 1313TIP3    H225431   3.278   6.605   3.282 -1.0879 -2.9984  1.6718
 1314TIP3   OH225432   5.650   3.945   4.861  0.3575  0.0079  0.4135
 1314TIP3    H125433   5.613   3.949   4.949 -0.3503  1.1234  0.0870
 1314TIP3    H225434   5.604   3.872   4.819  0.4618 -0.3185  0.8567
 1315TIP3   OH225435   5.873   6.661  16.749 -0.0611 -0.2153 -0.3336
 1315TIP3    H125436   5.786   6.692  16.724  0.0845  0.9961  0.6174
 1315TIP3    H225437   5.878   6.572  16.713 -1.8209 -0.4387 -0.0895
 1316TIP3   OH225438   3.938   3.561  14.391  0.2324 -0.0755  0.2071
 1316TIP3    H125439   4.021   3.524  14.360  0.2292  0.5432 -0.5736
 1316TIP3    H225440   3.925   3.522  14.478  1.3208 -0.2073  0.3239
 1317TIP3   OH225441   0.141   2.127   0.264 -0.3847  0.1222  0.4516
 1317TIP3    H125442   0.108   2.058   0.207  0.4882  1.2553 -1.5193
 1317TIP3    H225443   0.236   2.111   0.268 -0.0401  1.6454 -0.7313
 1318TIP3   OH225444   3.900   2.345   4.745  0.0651 -0.1495  0.3805
 1318TIP3    H125445   3.901   2.304   4.658 -0.9794  1.7967 -0.6072
 1318TIP3    H225446   3.812   2.379   4.755 -0.1689 -1.2296  2.7093
 1319TIP3   OH225447   3.553   5.841   1.266 -0.0995  0.5504  0.2845
 1319TIP3    H125448   3.463   5.830   1.298  0.2380 -2.5552  0.3975
 1319TIP3    H225449   3.593   5.901   1.330 -2.0597  2.1614  0.1289
 1320TIP3   OH225450   6.393   0.744  17.329  0.1029 -0.1442 -0.5091
 1320TIP3    H125451   6.481   0.716  17.301  0.4746  0.0582  0.4341
 1320TIP3    H225452   6.341   0.664  17.327  0.9261 -0.7675  1.2546
 1321TIP3   OH225453   2.736   5.254   4.079  0.1012 -0.1778 -0.2902
 1321TIP3    H125454   2.650   5.237   4.040 -0.4161  2.5380 -0.5475
 1321TIP3    H225455   2.723   5.239   4.173 -0.5684 -0.0995 -0.3642
 1322TIP3   OH225456   1.366   0.282   1.126 -0.4253  0.0305 -0.2994
 1322TIP3    H125457   1.289   0.272   1.070  0.2324  1.0717 -1.4480
 1322TIP3    H225458   1.424   0.340   1.076  0.0256  1.3350  1.6336
 1323TIP3   OH225459   4.258   6.769  14.821  0.2091 -0.3052 -0.0870
 1323TIP3    H125460   4.171   6.746  14.787  0.2142 -1.1083  0.4240
 1323TIP3    H225461   4.242   6.846  14.876 -0.2019 -0.5267  0.1098
 1324TIP3   OH225462   1.561   2.586   1.300 -0.3867  0.1048 -0.1695
 1324TIP3    H125463   1.609   2.511   1.333 -0.0935 -0.0026 -0.8164
 1324TIP3    H225464   1.502   2.550   1.234 -0.9798  0.3064  0.2415
 1325TIP3   OH225465   1.713   4.884  17.333  0.1030 -0.1039  0.4552
 1325TIP3    H125466   1.799   4.917  17.356 -0.3152  1.1833  0.2291
 1325TIP3    H225467   1.730   4.802  17.286  1.1930  0.1966  0.3191
 1326TIP3   OH225468   3.360   0.666   2.027  0.5644 -0.1858  0.0038
 1326TIP3    H125469   3.395   0.708   1.949  0.2471  0.5519  0.2520
 1326TIP3    H225470   3.283   0.618   1.996 -0.2597  1.0539  0.0322
 1327TIP3   OH225471   4.979   0.849  17.318 -0.1646  0.0266  0.4250
 1327TIP3    H125472   5.046   0.817  17.379  0.7567 -2.2706 -1.6644
 1327TIP3    H225473   5.027   0.873  17.239 -1.6369 -0.0080 -0.5200
 1328TIP3   OH225474   4.200   3.912   5.309 -0.0815  0.1820 -0.4236
 1328TIP3    H125475   4.260   3.843   5.280 -1.8688 -1.6945  0.0821
 1328TIP3    H225476   4.171   3.954   5.229 -0.3899 -0.9246 -0.9159
 1329TIP3   OH225477   1.971   3.386   4.822 -0.4427  0.4453  0.0994
 1329TIP3    H125478   1.993   3.323   4.753 -1.5215 -0.5522  0.6419
 1329TIP3    H225479   1.876   3.382   4.829 -0.3736  0.6600  1.5111
 1330TIP3   OH225480   6.734   0.528  13.791  0.1152  0.8731 -0.2309
 1330TIP3    H125481   6.765   0.507  13.703 -0.3308  0.7611 -0.3670
 1330TIP3    H225482   6.760   0.453  13.844 -0.5805  0.4234 -0.5031
 1331TIP3   OH225483   0.068   6.579  12.716  0.0432 -0.5492 -0.4441
 1331TIP3    H125484   0.050   6.611  12.628 -0.4430 -2.2360 -0.9970
 1331TIP3    H225485  -0.018   6.560  12.754  0.1594  1.2487  0.8783
 1332TIP3   OH225486   1.036   3.296  12.386  0.2529  0.1698 -0.0285
 1332TIP3    H125487   1.077   3.212  12.368  0.4491  0.4283 -0.8109
 1332TIP3    H225488   1.055   3.350  12.309 -2.4033 -0.0339 -0.9439
 1333TIP3   OH225489   6.053   4.762   1.299 -0.4521  0.2427  0.1611
 1333TIP3    H125490   6.065   4.843   1.349 -0.9511 -0.6021  1.7016
 1333TIP3    H225491   5.961   4.764   1.273 -0.1642  0.7381 -0.8712
 1334TIP3   OH225492   6.067   1.305   4.710 -0.1778 -0.3686 -0.3844
 1334TIP3    H125493   6.144   1.344   4.669 -0.8004  1.8486  0.4145
 1334TIP3    H225494   6.097   1.276   4.796 -0.1415  0.1707 -0.2123
 1335TIP3   OH225495   6.490   1.424  14.706  0.2774  0.8794  0.4907
 1335TIP3    H125496   6.512   1.503  14.656 -2.9865  0.6651 -1.5707
 1335TIP3    H225497   6.487   1.354  14.642 -1.1041 -0.0203  1.4723
 1336TIP3   OH225498   0.199   5.141  12.078 -0.5931  0.5609 -0.6655
 1336TIP3    H125499   0.116   5.184  12.060 -0.5997  0.1173 -1.8224
 1336TIP3    H225500   0.237   5.125  11.991 -0.0637 -0.7033 -0.2283
 1337TIP3   OH225501   1.819   1.270  13.484  0.3773  0.5475  0.1327
 1337TIP3    H125502   1.737   1.313  13.458 -0.9154 -0.8388  1.6372
 1337TIP3    H225503   1.880   1.288  13.413 -1.8173  0.0004 -2.0101
 1338TIP3   OH225504   5.644   0.149  16.322  0.4092  0.4675  0.1092
 1338TIP3    H125505   5.626   0.079  16.259  1.6696 -0.1081  0.3587
 1338TIP3    H225506   5.616   0.229  16.277 -0.5480 -0.1221 -0.3904
 1339TIP3   OH225507   2.383   0.731  13.552 -0.2667 -0.0814  0.3090
 1339TIP3    H125508   2.317   0.796  13.528 -1.0418 -1.5638 -1.9901
 1339TIP3    H225509   2.457   0.750  13.493  1.6430  1.7654  3.0709
 1340TIP3   OH225510   6.744   5.602  14.734  0.3877 -0.2841 -0.5172
 1340TIP3    H125511   6.823   5.605  14.680  0.4662  0.0091 -0.3839
 1340TIP3    H225512   6.776   5.592  14.823  0.2431 -1.5133 -0.5840
 1341TIP3   OH225513   4.730   0.628   4.690 -0.4168 -0.1889  0.4104
 1341TIP3    H125514   4.731   0.670   4.604  1.0943 -2.2191 -0.6463
 1341TIP3    H225515   4.760   0.697   4.750  2.2411  0.2745 -1.2723
 1342TIP3   OH225516   5.880   5.772  15.919 -0.0020  0.6367 -0.0371
 1342TIP3    H125517   5.819   5.698  15.925 -0.5007  1.0720  0.2836
 1342TIP3    H225518   5.965   5.731  15.901 -0.0984 -0.0866  1.0392
 1343TIP3   OH225519   0.423   0.493   2.965 -0.3357  0.3665 -0.4983
 1343TIP3    H125520   0.353   0.519   2.905 -0.4618 -1.2243 -1.1103
 1343TIP3    H225521   0.394   0.523   3.051  0.2805  3.5466 -1.2834
 1344TIP3   OH225522   0.918   4.546   3.082 -0.2760 -0.5032 -0.3511
 1344TIP3    H125523   0.916   4.531   3.176 -0.3275  1.4268  0.0019
 1344TIP3    H225524   0.831   4.581   3.062  0.0801  0.0846 -0.9110
 1345TIP3   OH225525   1.882   3.220   3.089  0.1723 -0.0031  0.1199
 1345TIP3    H125526   1.869   3.223   2.995 -0.9249  0.9120  0.2818
 1345TIP3    H225527   1.799   3.188   3.124  0.6612 -0.6001  0.7685
 1346TIP3   OH225528   0.972   2.640   6.053 -0.3343 -0.4749  0.2564
 1346TIP3    H125529   1.050   2.601   6.014  0.3496  1.4409 -0.4509
 1346TIP3    H225530   0.963   2.725   6.008 -1.2597  0.5227  2.2095
 1347TIP3   OH225531   3.001   4.179  17.200  0.0839 -0.2603  0.5083
 1347TIP3    H125532   3.023   4.103  17.253  0.3013 -0.6959 -0.1992
 1347TIP3    H225533   2.954   4.237  17.260 -0.7991 -1.2924  0.8454
 1348TIP3   OH225534   6.230   2.097  15.996 -0.0595 -0.1917  0.1496
 1348TIP3    H125535   6.175   2.118  15.921  1.6528  4.3507 -0.1310
 1348TIP3    H225536   6.292   2.031  15.963 -0.7624  0.0291 -1.7038
 1349TIP3   OH225537   2.155   1.126  13.314 -0.3427  0.7840 -0.3350
 1349TIP3    H125538   2.193   1.196  13.367 -0.1256  0.1622  0.3417
 1349TIP3    H225539   2.219   1.055  13.319 -0.8746  0.2905 -0.4538
 1350TIP3   OH225540   6.031   1.419  15.557  0.0612 -0.2147  0.4868
 1350TIP3    H125541   6.031   1.325  15.578 -2.7404 -0.2299  0.7898
 1350TIP3    H225542   5.958   1.455  15.607 -1.6324  1.3397 -2.8238
 1351TIP3   OH225543   5.359   1.355   1.788  0.2331 -0.1066  0.2887
 1351TIP3    H125544   5.306   1.434   1.772  1.6867  0.6274 -1.1603
 1351TIP3    H225545   5.300   1.283   1.768 -0.6656  0.6477  0.1288
 1352TIP3   OH225546   6.070   5.959  14.674  0.8927 -0.0315 -0.3467
 1352TIP3    H125547   6.086   6.005  14.757  0.0683  0.6143 -0.5263
 1352TIP3    H225548   6.131   5.886  14.675 -0.1121 -0.9070  1.5234
 1353TIP3   OH225549   5.271   6.561   4.890  0.8476  0.1350  0.3409
 1353TIP3    H125550   5.295   6.486   4.944  0.9046  0.4504  0.7597
 1353TIP3    H225551   5.341   6.625   4.904  0.8740  0.2122 -0.1243
 1354TIP3   OH225552   6.791   5.899   1.846  0.0803  0.1140 -0.9845
 1354TIP3    H125553   6.806   5.854   1.929  0.0399 -1.8673 -1.9965
 1354TIP3    H225554   6.798   5.992   1.868  1.5895 -0.3784  0.9225
 1355TIP3   OH225555   2.117   6.229   4.102  0.0874  0.0986 -0.5240
 1355TIP3    H125556   2.186   6.276   4.148  0.4858 -0.4389 -0.5672
 1355TIP3    H225557   2.041   6.288   4.107  0.8840  1.2860 -1.6104
 1356TIP3   OH225558   5.304   0.387  13.692  0.1512  0.3509  0.3211
 1356TIP3    H125559   5.260   0.378  13.608  0.4330  1.5626  0.0307
 1356TIP3    H225560   5.397   0.397  13.670  0.3498 -0.2578  0.8312
 1357TIP3   OH225561   6.771   6.323  12.030 -0.0475 -0.2181 -0.5311
 1357TIP3    H125562   6.702   6.348  11.969  0.6462  2.6459 -0.2623
 1357TIP3    H225563   6.851   6.360  11.993  0.6453  0.2379  1.2932
 1358TIP3   OH225564   5.561   3.183  15.879 -0.6839 -0.1329  0.5823
 1358TIP3    H125565   5.595   3.115  15.819 -2.3685 -0.0602 -0.5026
 1358TIP3    H225566   5.506   3.135  15.941 -1.1680  0.1244  0.3563
 1359TIP3   OH225567   6.712   6.448  13.085  0.5386 -0.0285 -0.1365
 1359TIP3    H125568   6.630   6.438  13.133  0.5286  4.1793  1.1115
 1359TIP3    H225569   6.698   6.524  13.029  3.1472 -0.0224 -0.9189
 1360TIP3   OH225570   3.033   3.298   0.952 -0.2980  0.9774 -0.3258
 1360TIP3    H125571   3.064   3.368   1.008 -1.5440  1.6559 -0.4470
 1360TIP3    H225572   2.941   3.320   0.933 -1.2467 -1.4683  0.9065
 1361TIP3   OH225573   5.522   3.457   5.223  0.3081  0.4353  0.1135
 1361TIP3    H125574   5.540   3.443   5.316 -0.3241 -0.2991  0.1329
 1361TIP3    H225575   5.557   3.379   5.179 -0.0441  0.4329 -0.1750
 1362TIP3   OH225576   3.274   5.907  12.234  0.4044  0.0534 -0.5348
 1362TIP3    H125577   3.184   5.932  12.215  0.6441  1.7082  0.2501
 1362TIP3    H225578   3.310   5.983  12.280  1.5231 -1.4654  1.2402
 1363TIP3   OH225579   1.474   2.829   1.271  0.1517  0.0791 -0.2057
 1363TIP3    H125580   1.536   2.852   1.202 -0.1933  0.7527 -0.3062
 1363TIP3    H225581   1.500   2.742   1.299  1.1306  0.3404 -0.2602
 1364TIP3   OH225582   4.120   2.078  14.581 -0.3511  0.4945 -0.7897
 1364TIP3    H125583   4.161   1.992  14.579  1.2576  1.1307  1.2647
 1364TIP3    H225584   4.186   2.138  14.546 -1.0069  1.0493 -1.1045
 1365TIP3   OH225585   2.374   1.614  16.903 -0.4226  0.0075  0.1291
 1365TIP3    H125586   2.375   1.573  16.816 -2.6964 -0.3789  0.2181
 1365TIP3    H225587   2.464   1.642  16.917  0.4548 -1.7246 -1.4888
 1366TIP3   OH225588   3.391   5.029  12.650 -0.4083  0.2926  0.0956
 1366TIP3    H125589   3.403   5.107  12.595 -0.6877  0.8639  0.8278
 1366TIP3    H225590   3.364   4.960  12.589 -1.6552  1.1604 -0.3610
 1367TIP3   OH225591   6.423   5.590  15.022 -0.1701 -0.0724  0.8987
 1367TIP3    H125592   6.410   5.500  15.052  1.1162 -1.3138 -1.9152
 1367TIP3    H225593   6.508   5.615  15.059 -1.4370  0.9135  3.4412
 1368TIP3   OH225594   0.975   4.313  16.679 -0.0321 -0.1091 -0.2618
 1368TIP3    H125595   0.889   4.315  16.721 -0.4931 -2.2810 -1.0133
 1368TIP3    H225596   0.958   4.281  16.591  1.3890  0.8929 -0.9323
 1369TIP3   OH225597   4.415   5.940   4.350  0.2651  0.3748 -0.0269
 1369TIP3    H125598   4.447   6.026   4.375 -1.1421  0.9001  0.0340
 1369TIP3    H225599   4.453   5.924   4.264 -0.9526  1.8895 -0.8842
 1370TIP3   OH225600   2.688   1.805  13.511  0.1072  0.0143 -0.1922
 1370TIP3    H125601   2.636   1.845  13.440 -0.6427 -0.0509  0.3128
 1370TIP3    H225602   2.744   1.742  13.466  0.5669  0.8775 -0.8853
 1371TIP3   OH225603   4.468   2.354   0.192  0.3011 -0.0366  0.5945
 1371TIP3    H125604   4.563   2.366   0.189  0.2780  0.0395  0.1470
 1371TIP3    H225605   4.450   2.333   0.284  0.6805  0.5240  0.8038
 1372TIP3   OH225606   5.040   4.770  14.786 -0.5661  0.5437  0.3902
 1372TIP3    H125607   5.082   4.843  14.831  0.2651 -0.5392  1.4404
 1372TIP3    H225608   4.956   4.805  14.756 -0.7907  1.5554  2.0734
 1373TIP3   OH225609   6.561   5.994   4.626  0.1462  0.3474  0.3259
 1373TIP3    H125610   6.522   5.922   4.577  0.4172  0.8520 -0.6698
 1373TIP3    H225611   6.635   6.022   4.572 -0.3330  1.7710  0.3676
 1374TIP3   OH225612   4.452   0.757   6.536  0.6406  0.1522  0.9956
 1374TIP3    H125613   4.490   0.672   6.513 -2.5394 -0.9870 -0.5653
 1374TIP3    H225614   4.491   0.818   6.473  0.3011 -0.8560 -0.2256
 1375TIP3   OH225615   1.617   4.432   2.977 -0.6789 -0.0898  0.1105
 1375TIP3    H125616   1.527   4.453   2.953 -0.6726 -0.3287 -0.1326
 1375TIP3    H225617   1.608   4.373   3.052 -0.7058  0.4382  0.5275
 1376TIP3   OH225618   2.520   6.196   3.058 -0.1589 -0.2900  0.5794
 1376TIP3    H125619   2.440   6.227   3.015  0.6805 -0.2906 -1.0783
 1376TIP3    H225620   2.590   6.220   2.997  1.2298  0.5815  2.4438
 1377TIP3   OH225621   6.656   2.247   3.200  0.1997  0.0520 -0.5833
 1377TIP3    H125622   6.621   2.307   3.133  0.5189 -0.6535 -1.4067
 1377TIP3    H225623   6.705   2.304   3.260 -0.6001  0.7787 -0.5966
 1378TIP3   OH225624   6.615   4.186   5.505 -0.8017  0.0667 -0.3142
 1378TIP3    H125625   6.536   4.171   5.557 -0.3280 -0.8977  0.1592
 1378TIP3    H225626   6.592   4.154   5.418 -1.4603  1.3049 -0.6172
 1379TIP3   OH225627   0.552   1.753  14.245 -0.0814 -0.3005  0.5195
 1379TIP3    H125628   0.466   1.734  14.282 -0.1326  1.2492  1.2903
 1379TIP3    H225629   0.535   1.777  14.154 -0.5718  0.5767  0.8253
 1380TIP3   OH225630   1.170   5.816  14.975 -0.0529  0.5213  0.2744
 1380TIP3    H125631   1.206   5.857  15.054 -0.6614  1.6072  0.0126
 1380TIP3    H225632   1.126   5.887  14.929 -2.6636 -0.7041  0.6380
 1381TIP3   OH225633   4.818   4.760  13.142 -0.6127 -0.0180  0.8940
 1381TIP3    H125634   4.797   4.790  13.053 -1.7092  0.3452  1.2556
 1381TIP3    H225635   4.761   4.684  13.156 -0.9359  0.3316  1.5235
 1382TIP3   OH225636   0.341   3.720   5.810  0.6288  0.2611 -0.3553
 1382TIP3    H125637   0.343   3.808   5.773 -0.9568 -0.1589 -1.5496
 1382TIP3    H225638   0.420   3.678   5.776  0.4089  0.6319 -1.3464
 1383TIP3   OH225639   2.453   0.356  11.681  0.1147 -0.2606 -0.1489
 1383TIP3    H125640   2.498   0.324  11.759  0.6018  1.4415  0.3007
 1383TIP3    H225641   2.460   0.283  11.619  2.0507 -0.6881  0.4755
 1384TIP3   OH225642   3.591   1.658   3.638 -0.2104  0.4150 -0.1001
 1384TIP3    H125643   3.542   1.696   3.711 -1.4046  0.8526 -1.0976
 1384TIP3    H225644   3.680   1.692   3.650 -0.2084 -0.0472  1.5006
 1385TIP3   OH225645   2.626   0.217   5.346  0.2359 -0.1138  0.1772
 1385TIP3    H125646   2.662   0.208   5.434 -0.6486 -2.1577  0.3905
 1385TIP3    H225647   2.699   0.197   5.288  0.6322  0.5204  0.4397
 1386TIP3   OH225648   3.473   4.145   6.331 -0.3661  0.1658 -0.3400
 1386TIP3    H125649   3.514   4.178   6.411  1.1217 -2.3494  0.0527
 1386TIP3    H225650   3.434   4.061   6.357 -1.2858  0.0611 -1.9007
 1387TIP3   OH225651   5.946   3.030  13.868  0.1738  0.2046  0.4758
 1387TIP3    H125652   5.930   3.107  13.922 -0.6740 -0.8624  1.8214
 1387TIP3    H225653   5.966   2.960  13.931  1.1501 -0.6351 -0.7134
 1388TIP3   OH225654   1.886   2.325   1.855 -0.2338  0.3488  0.7747
 1388TIP3    H125655   1.973   2.339   1.893  1.0225 -1.0159 -1.3347
 1388TIP3    H225656   1.874   2.399   1.795  0.2675 -0.3338 -0.1925
 1389TIP3   OH225657   5.260   4.907  14.595  0.0117 -0.5348  0.0562
 1389TIP3    H125658   5.175   4.889  14.556  0.4188 -0.0277 -1.1058
 1389TIP3    H225659   5.292   4.821  14.624  0.1399 -1.1152 -1.6937
 1390TIP3   OH225660   4.333   5.412  17.378  0.1481 -0.0717 -0.1345
 1390TIP3    H125661   4.312   5.386  17.288 -2.3926 -1.2864  0.7058
 1390TIP3    H225662   4.428   5.421  17.379  0.2289  0.2762 -2.9983
 1391TIP3   OH225663   1.992   4.845   5.848 -0.0157 -0.0632 -0.1794
 1391TIP3    H125664   2.066   4.810   5.899  1.2446  1.1861 -1.0928
 1391TIP3    H225665   2.030   4.916   5.796 -1.6946  0.0488 -1.3209
 1392TIP3   OH225666   5.232   6.168  15.638  0.2268  0.1945  0.2374
 1392TIP3    H125667   5.214   6.196  15.549  0.0607 -2.0493 -0.4929
 1392TIP3    H225668   5.325   6.188  15.651  0.4238 -0.0924 -0.6895
 1393TIP3   OH225669   0.094   2.349  12.376 -0.1355 -0.1797  0.5403
 1393TIP3    H125670   0.017   2.299  12.348  0.2051 -0.4990  0.1662
 1393TIP3    H225671   0.078   2.438  12.344 -0.6769 -0.0775  1.0790
 1394TIP3   OH225672   6.721   0.829  11.176  0.4016  0.3797  0.1442
 1394TIP3    H125673   6.784   0.860  11.111 -1.3808 -0.4007 -2.0964
 1394TIP3    H225674   6.643   0.883  11.160 -0.9370 -1.5727 -0.1905
 1395TIP3   OH225675   3.292   2.982   2.148  0.0698  0.1779  0.5559
 1395TIP3    H125676   3.293   3.025   2.234 -1.5334  0.5281  0.4319
 1395TIP3    H225677   3.223   2.916   2.155  1.2359 -1.1477  0.1357
 1396TIP3   OH225678   5.665   4.524   2.941  0.2597  0.4431 -0.2458
 1396TIP3    H125679   5.753   4.526   2.977  0.5052 -0.1613 -0.7845
 1396TIP3    H225680   5.623   4.448   2.983 -0.7962  2.0271  1.7405
 1397TIP3   OH225681   3.934   1.027  11.752 -0.4920  0.3242 -0.0091
 1397TIP3    H125682   3.956   1.119  11.737 -1.1196  0.8668  2.0572
 1397TIP3    H225683   3.839   1.027  11.767 -0.3264 -0.4790  1.1329
 1398TIP3   OH225684   2.310   3.287   3.874 -0.0136  0.2622 -0.2587
 1398TIP3    H125685   2.353   3.309   3.792 -0.3083 -0.9857 -0.7789
 1398TIP3    H225686   2.303   3.191   3.872  0.3162  0.1824  1.3971
 1399TIP3   OH225687   2.547   4.060  15.710 -0.5235  0.1930 -0.0846
 1399TIP3    H125688   2.517   4.074  15.800  1.4682  0.4439  0.5916
 1399TIP3    H225689   2.637   4.028  15.720 -0.3983 -0.1373 -1.9860
 1400TIP3   OH225690   1.392   2.431   7.263  0.0416 -0.2294 -0.0298
 1400TIP3    H125691   1.442   2.350   7.278 -0.7476 -0.6346  0.4981
 1400TIP3    H225692   1.350   2.418   7.178 -0.5077 -0.6028  0.2960
 1401TIP3   OH225693   0.014   4.533   2.594 -0.1783 -0.1623 -0.6716
 1401TIP3    H125694  -0.073   4.546   2.631  0.4394 -0.3147  0.8999
 1401TIP3    H225695   0.050   4.621   2.584 -0.0914 -0.1547 -0.2797
 1402TIP3   OH225696   5.101   0.886   0.509 -0.7656  0.8050 -0.0868
 1402TIP3    H125697   5.129   0.902   0.420  0.4775 -0.6160  0.0086
 1402TIP3    H225698   5.180   0.894   0.562 -0.5569 -2.3939  0.3097
 1403TIP3   OH225699   4.915   2.555  16.777  0.2319 -0.5591  0.3250
 1403TIP3    H125700   4.993   2.591  16.820 -1.5450  3.8642  0.4254
 1403TIP3    H225701   4.858   2.530  16.849  0.4674 -1.1411  0.3121
 1404TIP3   OH225702   3.431   1.228   3.155  0.1522  0.0443 -0.6320
 1404TIP3    H125703   3.517   1.268   3.140 -0.1117  0.3036 -1.4644
 1404TIP3    H225704   3.409   1.185   3.073 -0.8442  0.6014 -0.6690
 1405TIP3   OH225705   4.677   4.442  12.851  0.3435 -0.0833  0.3934
 1405TIP3    H125706   4.765   4.409  12.830 -0.0838 -0.5839 -0.7258
 1405TIP3    H225707   4.643   4.380  12.915  0.7004 -0.0631  0.6014
 1406TIP3   OH225708   0.546   4.458  11.999  0.0336 -0.0918 -0.2710
 1406TIP3    H125709   0.569   4.550  12.011 -1.1471  0.1722  0.0562
 1406TIP3    H225710   0.631   4.413  11.997  0.7521  1.1893 -2.4339
 1407TIP3   OH225711   4.586   1.651   2.427 -0.2336  0.4579  0.1401
 1407TIP3    H125712   4.494   1.657   2.401 -0.3583  1.8626  0.7888
 1407TIP3    H225713   4.586   1.592   2.502 -0.7712  1.1906  0.7383
 1408TIP3   OH225714   4.609   5.691   2.168 -0.5257 -0.8242 -0.3794
 1408TIP3    H125715   4.538   5.650   2.217 -1.9873  0.8663 -0.9571
 1408TIP3    H225716   4.584   5.679   2.076 -1.0346  1.2806 -0.5707
 1409TIP3   OH225717   0.786   0.026  16.894  0.5184 -0.2897 -0.2151
 1409TIP3    H125718   0.873   0.057  16.867  1.0466 -0.4409  1.2473
 1409TIP3    H225719   0.799  -0.066  16.917 -0.7807 -1.3780 -3.3112
 1410TIP3   OH225720   1.716   5.714   5.681 -0.6160 -0.2844  0.4503
 1410TIP3    H125721   1.651   5.672   5.625 -0.8063 -0.7276  0.9910
 1410TIP3    H225722   1.778   5.754   5.620 -0.4848 -1.2620 -0.0799
 1411TIP3   OH225723   5.444   3.614   2.778  0.4604 -0.2868  0.2722
 1411TIP3    H125724   5.385   3.540   2.783 -1.4067  1.1464  0.4958
 1411TIP3    H225725   5.521   3.587   2.829  0.2033 -2.3344 -0.3511
 1412TIP3   OH225726   0.268   1.359   2.729  0.2374  0.1048  0.0278
 1412TIP3    H125727   0.346   1.312   2.759  0.5755  0.6297 -0.0158
 1412TIP3    H225728   0.209   1.359   2.804  1.1955  1.6818  0.8306
 1413TIP3   OH225729   1.456   5.211   1.762 -0.1250 -0.5353  0.6548
 1413TIP3    H125730   1.505   5.241   1.838 -0.1020  0.8563  0.1282
 1413TIP3    H225731   1.371   5.255   1.769 -1.0200 -2.2255  1.0943
 1414TIP3   OH225732   0.660   3.676   6.466  0.6840  0.1640  0.8027
 1414TIP3    H125733   0.569   3.700   6.483 -0.1150 -1.4086 -0.8671
 1414TIP3    H225734   0.678   3.606   6.529  0.4893 -0.0024  0.6770
 1415TIP3   OH225735   0.620   1.383  13.295 -0.0422  0.7978  0.0278
 1415TIP3    H125736   0.597   1.471  13.265 -0.6373  1.1255  1.3662
 1415TIP3    H225737   0.538   1.348  13.330  0.5477  0.3695  1.0400
 1416TIP3   OH225738   0.137   1.765  16.390 -0.0364 -0.0457 -0.1626
 1416TIP3    H125739   0.093   1.681  16.405  0.4408 -0.3041 -0.1630
 1416TIP3    H225740   0.115   1.818  16.467  1.1072 -0.8065  0.7296
 1417TIP3   OH225741   3.387   2.924  16.854 -0.2171  0.2140  0.4996
 1417TIP3    H125742   3.385   2.847  16.912 -1.1577 -1.1137 -1.1863
 1417TIP3    H225743   3.296   2.933  16.825 -0.3257  2.6127  1.3881
 1418TIP3   OH225744   2.005   0.548   3.704 -0.5777 -0.6721 -0.1434
 1418TIP3    H125745   2.068   0.476   3.712  1.4246  0.6898 -2.2826
 1418TIP3    H225746   1.973   0.542   3.614 -1.1135  0.5170 -0.0515
 1419TIP3   OH225747   0.298   0.796  12.806 -0.1732 -0.3546  0.6067
 1419TIP3    H125748   0.278   0.803  12.899 -0.6162 -0.5515  0.5325
 1419TIP3    H225749   0.310   0.702  12.791 -2.4027 -0.6153  0.0366
 1420TIP3   OH225750   3.376   2.566  12.585 -0.2566 -0.2260  0.3062
 1420TIP3    H125751   3.373   2.643  12.528  0.5246 -0.3607  0.0647
 1420TIP3    H225752   3.285   2.545  12.603 -0.4709  1.2125  1.0070
 1421TIP3   OH225753   1.328   0.642  11.587  0.0782 -0.0216  0.4296
 1421TIP3    H125754   1.262   0.624  11.520  1.0304 -0.7969 -0.3284
 1421TIP3    H225755   1.308   0.581  11.658  1.3786 -1.9741 -0.8003
 1422TIP3   OH225756   1.126   1.820   4.716 -0.0103 -0.4687  0.2927
 1422TIP3    H125757   1.031   1.816   4.704  0.1979 -1.9857 -1.1569
 1422TIP3    H225758   1.144   1.913   4.728 -1.4426  0.1610 -1.7675
 1423TIP3   OH225759   6.048   1.102   1.689 -0.0217  0.2490 -0.2662
 1423TIP3    H125760   5.979   1.123   1.752 -1.5733  0.7682 -2.0480
 1423TIP3    H225761   6.086   1.187   1.666 -0.6012  0.2594 -1.2380
 1424TIP3   OH225762   5.996   5.625   3.302  0.4270  0.3529  0.0692
 1424TIP3    H125763   5.988   5.545   3.250  1.5391  0.5843 -0.4899
 1424TIP3    H225764   6.048   5.684   3.247  1.7154  0.5676  1.4654
 1425TIP3   OH225765   4.306   5.046   1.827  0.2428  0.1483 -0.0687
 1425TIP3    H125766   4.251   5.007   1.759  0.5306 -1.1680  0.4247
 1425TIP3    H225767   4.272   5.011   1.909 -0.5566  2.2742  0.5641
 1426TIP3   OH225768   2.440   1.010   0.445  0.2099  0.5722 -0.0854
 1426TIP3    H125769   2.469   0.949   0.513  0.6341  0.6549 -0.1889
 1426TIP3    H225770   2.349   0.986   0.428  0.5708 -0.4943 -0.6169
 1427TIP3   OH225771   5.301   5.125  12.389 -0.2848 -0.0978  0.3311
 1427TIP3    H125772   5.254   5.045  12.415  0.2175 -0.0992  1.2657
 1427TIP3    H225773   5.259   5.194  12.440 -1.5744  0.4833 -1.3989
 1428TIP3   OH225774   5.122   1.371  15.406  0.4812  0.3557 -0.7708
 1428TIP3    H125775   5.113   1.461  15.373  0.0259  0.1886 -1.1221
 1428TIP3    H225776   5.213   1.347  15.387  1.0815  1.2973  0.7815
 1429TIP3   OH225777   2.631   3.434  12.912  0.3505  0.2368 -0.0957
 1429TIP3    H125778   2.575   3.363  12.943  0.5872 -0.5154 -1.3555
 1429TIP3    H225779   2.685   3.395  12.844 -0.3263  1.8689 -1.6665
 1430TIP3   OH225780   4.013   4.987   1.886 -0.3592  0.7307 -0.7232
 1430TIP3    H125781   4.034   4.894   1.899 -1.0390  0.6092 -0.4726
 1430TIP3    H225782   4.008   4.997   1.791  0.9687  0.8000 -0.8016
 1431TIP3   OH225783   4.673   0.225  12.893 -0.0757 -0.4692 -0.0804
 1431TIP3    H125784   4.718   0.159  12.946  1.0951 -0.1341 -0.6372
 1431TIP3    H225785   4.606   0.260  12.952  1.9604  0.7447  1.6511
 1432TIP3   OH225786   5.631   1.916   5.477  0.1536 -0.4359 -0.2758
 1432TIP3    H125787   5.703   1.899   5.539 -0.8424 -0.4335  0.9220
 1432TIP3    H225788   5.674   1.952   5.400  1.9033 -3.9428 -1.1346
 1433TIP3   OH225789   4.657   5.841  11.901  0.6904 -0.1432 -0.4688
 1433TIP3    H125790   4.613   5.778  11.957  0.6707  1.6480  1.6663
 1433TIP3    H225791   4.750   5.820  11.910  1.1839  2.6063  3.8781
 1434TIP3   OH225792   1.519   0.012  15.629  0.8416  0.3811 -0.3284
 1434TIP3    H125793   1.532  -0.055  15.696  2.1564  1.3615  0.4291
 1434TIP3    H225794   1.501  -0.038  15.549 -0.5032 -0.8092  0.6645
 1435TIP3   OH225795   3.253   4.852  14.732  0.4925  0.1020  0.0428
 1435TIP3    H125796   3.187   4.797  14.691 -1.5392 -0.7477  3.9623
 1435TIP3    H225797   3.323   4.792  14.756  0.7038  0.2155 -0.2814
 1436TIP3   OH225798   2.896   1.087   3.855  0.4050  0.3132  0.4536
 1436TIP3    H125799   2.895   1.121   3.945  0.0756  1.5893 -0.0130
 1436TIP3    H225800   2.859   1.157   3.802  0.1968 -0.5922 -0.6378
 1437TIP3   OH225801   6.683   0.477  15.452 -0.0549 -0.1769  0.1425
 1437TIP3    H125802   6.612   0.432  15.498  2.0528 -3.0366  0.9570
 1437TIP3    H225803   6.660   0.472  15.360 -2.4597  2.0906  0.5021
 1438TIP3   OH225804   5.216   1.815  12.175 -0.7815 -0.0341  0.0291
 1438TIP3    H125805   5.277   1.854  12.113 -2.0533 -0.3598 -1.4987
 1438TIP3    H225806   5.160   1.758  12.121 -4.7311  2.8846  0.6224
 1439TIP3   OH225807   2.990   0.935  13.524 -0.0675 -0.0725  0.1040
 1439TIP3    H125808   3.052   0.904  13.459  0.6599 -0.4713  0.9713
 1439TIP3    H225809   3.044   0.962  13.598 -0.8476  0.9030  0.3384
 1440TIP3   OH225810   5.180   0.978  14.029 -0.1014  0.2636  0.1753
 1440TIP3    H125811   5.154   1.064  14.063 -1.8740 -0.1659 -0.0364
 1440TIP3    H225812   5.201   0.927  14.108 -3.2349 -0.4118  0.7101
 1441TIP3   OH225813   5.519   5.281  16.535  0.0488  0.3940  0.0163
 1441TIP3    H125814   5.581   5.353  16.525  1.5980 -0.5785  1.9707
 1441TIP3    H225815   5.496   5.256  16.445  0.6965  2.2601 -0.7148
 1442TIP3   OH225816   3.295   0.581   0.906 -0.2917  0.1127  0.0858
 1442TIP3    H125817   3.372   0.536   0.937  0.3019 -0.8487 -2.4999
 1442TIP3    H225818   3.236   0.512   0.875 -1.0057  0.9343 -0.4747
 1443TIP3   OH225819   4.622   5.925   2.623 -0.5312 -0.5560 -0.1786
 1443TIP3    H125820   4.668   5.842   2.607  0.0534 -0.0176 -1.3796
 1443TIP3    H225821   4.537   5.913   2.582  0.3298  0.1821 -2.3011
 1444TIP3   OH225822   3.908   3.328   0.938  0.2578 -0.3080  0.0743
 1444TIP3    H125823   3.954   3.254   0.979 -1.0579 -0.1030  2.1096
 1444TIP3    H225824   3.846   3.287   0.878  1.8701 -0.6469 -1.4501
 1445TIP3   OH225825   0.141   0.200   1.187 -0.1654  0.3265 -0.3562
 1445TIP3    H125826   0.103   0.126   1.235 -0.3700  1.1923  0.8617
 1445TIP3    H225827   0.189   0.160   1.115 -0.4521 -0.9820  0.1565
 1446TIP3   OH225828   3.795   0.490  13.594  0.2141  0.3935  0.2556
 1446TIP3    H125829   3.890   0.501  13.604 -0.1138  2.4699  1.6868
 1446TIP3    H225830   3.778   0.405  13.635  1.5887 -0.7301 -1.3515
 1447TIP3   OH225831   2.723   3.448  12.033  0.1094  0.1693 -0.1403
 1447TIP3    H125832   2.771   3.520  11.991  1.4232 -0.8292 -0.4097
 1447TIP3    H225833   2.726   3.469  12.127 -0.7307  1.1542 -0.3084
 1448TIP3   OH225834   4.413   1.694   0.571  0.2896  0.5437  0.0958
 1448TIP3    H125835   4.507   1.704   0.561  0.3121 -0.5714 -1.2255
 1448TIP3    H225836   4.394   1.725   0.659  1.9142  0.6033  0.4547
 1449TIP3   OH225837   2.219   4.566   0.386 -0.0209  0.2007 -0.5299
 1449TIP3    H125838   2.143   4.618   0.359 -0.9304 -0.7688  0.1013
 1449TIP3    H225839   2.270   4.555   0.306 -0.9496  0.1949 -1.1398
 1450TIP3   OH225840   4.282   0.800   4.892  0.2625  0.1150  0.3306
 1450TIP3    H125841   4.330   0.877   4.863 -1.5741 -0.1043 -4.0877
 1450TIP3    H225842   4.316   0.729   4.839 -0.8525 -1.2860  1.4061
 1451TIP3   OH225843   5.839   2.995   3.694  0.3210  0.1486 -0.4954
 1451TIP3    H125844   5.899   3.054   3.650  0.0932  2.2362  1.7497
 1451TIP3    H225845   5.835   2.917   3.638  1.4750  1.8043 -3.0451
 1452TIP3   OH225846   5.862   5.468   0.826  0.1101 -0.6115 -0.4074
 1452TIP3    H125847   5.923   5.403   0.861 -1.3594 -1.2391  1.1601
 1452TIP3    H225848   5.848   5.529   0.898 -0.5345 -0.0609 -0.9863
 1453TIP3   OH225849   2.243   3.097   4.863 -0.3853  0.1592  0.5900
 1453TIP3    H125850   2.232   3.172   4.922 -1.2094  0.5660 -0.0524
 1453TIP3    H225851   2.253   3.022   4.920 -1.0098  0.5708  1.2490
 1454TIP3   OH225852   0.180   1.203  12.620  0.7150 -0.4781  0.8146
 1454TIP3    H125853   0.251   1.254  12.582  0.9471 -0.3784  1.3652
 1454TIP3    H225854   0.106   1.216  12.561  1.1646 -0.6144  0.2181
 1455TIP3   OH225855   2.215   4.851   0.529  0.2485  0.1019 -0.6685
 1455TIP3    H125856   2.185   4.849   0.620  1.0622  0.1937 -0.3838
 1455TIP3    H225857   2.277   4.924   0.527 -1.8681  1.9840 -1.9914
 1456TIP3   OH225858   5.005   0.078  13.949  0.8232  1.1925 -0.5170
 1456TIP3    H125859   4.926   0.120  13.982  1.0693  0.1021  1.5705
 1456TIP3    H225860   5.058   0.151  13.917 -0.4826  2.0513 -0.8351
 1457TIP3   OH225861   1.677   4.610  13.334 -0.0180 -0.3728 -0.2826
 1457TIP3    H125862   1.592   4.579  13.303  0.0977 -1.3407  0.2988
 1457TIP3    H225863   1.678   4.586  13.427  0.4233  0.6809 -0.0050
 1458TIP3   OH225864   4.899   1.154  11.995 -0.1132 -0.0379 -0.3073
 1458TIP3    H125865   4.873   1.065  12.019 -1.0836 -0.1517 -1.6407
 1458TIP3    H225866   4.830   1.183  11.935  0.4734  1.4180 -0.3052
 1459TIP3   OH225867   2.737   0.182  11.677  0.2053  0.0246 -0.1970
 1459TIP3    H125868   2.776   0.267  11.656 -0.8804  0.7757  0.7015
 1459TIP3    H225869   2.800   0.118  11.644  1.6913  1.1805  0.2679
 1460TIP3   OH225870   5.888   4.604  11.396 -0.0395  0.1742  0.0043
 1460TIP3    H125871   5.966   4.640  11.354  0.0859  0.9015  0.8410
 1460TIP3    H225872   5.916   4.580  11.484  0.0415 -2.6415 -0.7165
 1461TIP3   OH225873   6.215   3.805   3.178 -0.2544  0.2277  0.3507
 1461TIP3    H125874   6.299   3.759   3.181 -0.6151 -0.6095 -1.2856
 1461TIP3    H225875   6.152   3.741   3.213 -0.0319  1.4843  3.3357
 1462TIP3   OH225876   0.962   6.089  16.901  0.2277  0.1464  0.1597
 1462TIP3    H125877   0.986   6.116  16.990 -0.0723 -0.1319  0.3275
 1462TIP3    H225878   0.868   6.074  16.905  0.1803  0.3310 -0.2597
 1463TIP3   OH225879   2.970   5.887   3.920  0.7661  0.6467  0.1631
 1463TIP3    H125880   2.986   5.974   3.883 -1.1740  0.7238 -0.6266
 1463TIP3    H225881   2.903   5.901   3.987 -1.4564 -0.4719 -1.6725
 1464TIP3   OH225882   4.510   1.123  16.161 -0.1790 -0.1742  0.4139
 1464TIP3    H125883   4.494   1.166  16.244 -1.5270 -0.9000  0.5492
 1464TIP3    H225884   4.428   1.078  16.140  0.0583  0.1513 -1.4033
 1465TIP3   OH225885   1.645   4.383   0.012  0.0585 -0.6345 -0.1266
 1465TIP3    H125886   1.565   4.337   0.039 -0.3428  0.3886  0.4966
 1465TIP3    H225887   1.614   4.452  -0.047  0.4864 -0.3016  0.0329
 1466TIP3   OH225888   2.520   0.542   1.310  0.2112  0.1748 -0.3115
 1466TIP3    H125889   2.612   0.518   1.322  0.3417  0.6868 -0.2563
 1466TIP3    H225890   2.523   0.629   1.270 -0.2179 -1.1364 -3.4441
 1467TIP3   OH225891   3.764   1.399  13.571  0.2328  0.8881 -0.0489
 1467TIP3    H125892   3.770   1.376  13.478  0.5594  1.7208 -0.2456
 1467TIP3    H225893   3.763   1.315  13.616  0.1234  0.4705 -0.8043
 1468TIP3   OH225894   2.305   3.185   6.360  0.8467  0.2629 -0.0558
 1468TIP3    H125895   2.261   3.249   6.417 -0.5519  0.9414 -1.7637
 1468TIP3    H225896   2.272   3.100   6.389 -0.2376  0.6352 -0.1458
 1469TIP3   OH225897   0.932   4.535   2.243 -0.4138 -0.6315 -0.3894
 1469TIP3    H125898   0.889   4.620   2.254 -1.8600 -1.1767 -1.4398
 1469TIP3    H225899   1.024   4.556   2.227 -0.4493  0.6405  0.8964
 1470TIP3   OH225900   2.494   5.945  11.156  0.2238 -0.2779  0.3064
 1470TIP3    H125901   2.537   5.910  11.234 -0.2295  0.4411  0.8831
 1470TIP3    H225902   2.411   5.899  11.151  0.9009 -1.4716 -0.6588
 1471TIP3   OH225903   3.679   1.125  14.026  0.3202  0.1869  0.2861
 1471TIP3    H125904   3.737   1.140  14.101 -0.9250 -0.5115  1.4427
 1471TIP3    H225905   3.636   1.042  14.046  0.6732 -0.5091 -1.7113
 1472TIP3   OH225906   2.669   4.552  11.951 -0.5938  0.6229  0.5156
 1472TIP3    H125907   2.607   4.497  11.905 -0.6542  2.1447 -1.3363
 1472TIP3    H225908   2.727   4.587  11.883  0.9392  0.9659  1.9102
 1473TIP3   OH225909   1.943   3.281  15.311  0.2914  0.3445 -0.2035
 1473TIP3    H125910   2.019   3.257  15.258 -0.6118 -1.0952 -0.9003
 1473TIP3    H225911   1.893   3.342  15.256 -0.3511 -0.7043 -0.8090
 1474TIP3   OH225912   4.784   4.762   4.415 -0.2460  0.1532 -0.2030
 1474TIP3    H125913   4.778   4.671   4.387 -0.0668  0.0414  0.1173
 1474TIP3    H225914   4.816   4.758   4.505  1.0629  0.5649 -0.6180
 1475TIP3   OH225915   4.344   3.392  17.007  0.0856  0.2182 -0.4246
 1475TIP3    H125916   4.365   3.307  16.970  0.6946  0.8825 -1.6959
 1475TIP3    H225917   4.361   3.454  16.936 -4.2986  1.0807 -1.0247
 1476TIP3   OH225918   3.548   1.725   5.425  0.3649  0.3810  0.4484
 1476TIP3    H125919   3.499   1.720   5.342 -0.9340 -0.0004  1.2154
 1476TIP3    H225920   3.547   1.636   5.459  1.3355  0.4309  0.6504
 1477TIP3   OH225921   5.506   5.448  11.538  0.1187 -0.0416 -0.0394
 1477TIP3    H125922   5.557   5.486  11.466 -1.6854  0.3657 -1.1862
 1477TIP3    H225923   5.570   5.430  11.607  1.4742  2.4815 -0.5311
 1478TIP3   OH225924   1.844   6.139  17.085  0.9137  0.0637  0.0780
 1478TIP3    H125925   1.855   6.047  17.062 -0.8679 -0.3152  0.6252
 1478TIP3    H225926   1.819   6.137  17.177 -0.8192  0.9773 -0.3491
 1479TIP3   OH225927   3.615   5.351  15.373  0.2886 -0.5134 -0.1068
 1479TIP3    H125928   3.540   5.309  15.415 -0.1428  2.0884  2.0244
 1479TIP3    H225929   3.582   5.436  15.344  2.5302  1.1310  1.7810
 1480TIP3   OH225930   2.813   5.863  12.949 -0.0509 -0.3096 -0.0520
 1480TIP3    H125931   2.752   5.937  12.940  0.0815 -0.3385 -1.3697
 1480TIP3    H225932   2.786   5.802  12.881  0.5159 -1.0149  0.3426
 1481TIP3   OH225933   5.202   5.269  16.263  0.1088 -0.3403  0.8702
 1481TIP3    H125934   5.213   5.345  16.206  0.0207 -0.1845  1.0580
 1481TIP3    H225935   5.111   5.242  16.249  0.9076 -2.2041 -1.4051
 1482TIP3   OH225936   5.740   0.385  12.138 -0.0407 -0.0099 -0.0919
 1482TIP3    H125937   5.703   0.307  12.097 -2.7077  0.4270  1.2516
 1482TIP3    H225938   5.685   0.457  12.106  2.4259  1.4099 -1.3916
 1483TIP3   OH225939   2.854   0.311  15.212 -0.2081  0.3189  1.0554
 1483TIP3    H125940   2.783   0.279  15.157  0.6260 -0.2781  0.2933
 1483TIP3    H225941   2.883   0.391  15.169 -1.3819  1.3966  2.1971
 1484TIP3   OH225942   4.226   6.292   4.389 -0.1865 -0.3872  0.4165
 1484TIP3    H125943   4.251   6.234   4.461  0.1444 -1.3714 -0.4722
 1484TIP3    H225944   4.288   6.365   4.395  1.0817 -1.3898 -0.0008
 1485TIP3   OH225945   0.514   2.225  14.746  0.3083 -0.0490  0.0102
 1485TIP3    H125946   0.526   2.251  14.838  0.7472  0.1188 -0.0896
 1485TIP3    H225947   0.573   2.284  14.697 -0.0251 -0.0450 -0.3890
 1486TIP3   OH225948   4.158   1.404  14.454  0.1000  0.0428 -0.6867
 1486TIP3    H125949   4.147   1.489  14.411  0.7313 -0.1945 -1.3411
 1486TIP3    H225950   4.109   1.412  14.536 -2.0519  0.1626 -1.8917
 1487TIP3   OH225951   6.029   4.772   3.347 -0.6751  0.1907  0.4415
 1487TIP3    H125952   6.112   4.728   3.368  0.2316  0.7974 -1.6022
 1487TIP3    H225953   5.997   4.803   3.432  0.5806 -1.0725  1.4426
 1488TIP3   OH225954   3.438   3.814   2.413  0.0640 -0.1482 -0.3954
 1488TIP3    H125955   3.516   3.792   2.464  1.1531  1.0915 -1.4195
 1488TIP3    H225956   3.405   3.730   2.382  0.6872 -0.7402  0.4835
 1489TIP3   OH225957   4.934   4.505   5.531 -0.5890  0.3444 -0.4594
 1489TIP3    H125958   4.988   4.583   5.519 -0.7248  0.4823 -0.1818
 1489TIP3    H225959   4.946   4.455   5.450 -1.6257  1.3498 -1.2693
 1490TIP3   OH225960   6.619   3.856  16.195  0.7054 -0.1346  0.1227
 1490TIP3    H125961   6.700   3.852  16.144  0.9522 -2.0704  0.5856
 1490TIP3    H225962   6.646   3.885  16.282  1.1521 -1.9615  0.6384
 1491TIP3   OH225963   6.089   2.376   2.209 -0.5152  0.1689  0.3794
 1491TIP3    H125964   6.010   2.427   2.226 -0.9213 -0.5569  0.7361
 1491TIP3    H225965   6.115   2.343   2.295 -0.6041 -0.6998  0.0910
 1492TIP3   OH225966   1.127   1.192   6.662  0.0989 -0.5051  0.0783
 1492TIP3    H125967   1.148   1.204   6.570  0.7511  0.3858  0.3273
 1492TIP3    H225968   1.211   1.176   6.704 -0.1944 -0.9093  0.5174
 1493TIP3   OH225969   6.675   5.325  12.413  0.3200  0.0160  0.1490
 1493TIP3    H125970   6.741   5.373  12.363  0.9446 -0.6716  0.2883
 1493TIP3    H225971   6.716   5.240  12.431 -0.3462 -0.1742  0.8228
 1494TIP3   OH225972   0.251   0.711   0.686 -0.3994  0.8890  0.4958
 1494TIP3    H125973   0.216   0.754   0.763 -0.6838  0.4835  0.5950
 1494TIP3    H225974   0.344   0.736   0.685 -0.1250  0.0410  1.5843
 1495TIP3   OH225975   4.799   1.241  14.226  0.3521  0.4873  0.5320
 1495TIP3    H125976   4.830   1.311  14.168  0.9920 -1.6665 -1.9142
 1495TIP3    H225977   4.865   1.172  14.217 -0.4144 -0.5872  2.6002
 1496TIP3   OH225978   4.040   3.259  16.174 -0.1627  0.2242  0.0751
 1496TIP3    H125979   3.978   3.185  16.170  1.7406 -1.4185 -1.1011
 1496TIP3    H225980   4.113   3.226  16.227 -0.4502  2.2950  1.8742
 1497TIP3   OH225981   0.819   2.291   3.312  0.2414  0.2701 -0.3355
 1497TIP3    H125982   0.774   2.310   3.230  1.9689  2.9609 -0.8008
 1497TIP3    H225983   0.912   2.286   3.287  0.5749 -1.3953  1.1038
 1498TIP3   OH225984   4.738   4.034   4.776  0.6983  0.4754 -0.6084
 1498TIP3    H125985   4.743   3.961   4.838  2.0575  2.4156  1.7555
 1498TIP3    H225986   4.796   4.009   4.704  1.4248 -0.6304  0.3234
 1499TIP3   OH225987   2.502   3.714  14.271  0.3647 -0.2555 -0.1893
 1499TIP3    H125988   2.572   3.649  14.276  1.0493  0.5121  0.6631
 1499TIP3    H225989   2.440   3.687  14.338  0.5783 -0.1215  0.0650
 1500TIP3   OH225990   5.202   0.633  12.702  0.2633 -0.2418 -0.4926
 1500TIP3    H125991   5.145   0.600  12.772  0.1651 -1.6688 -1.1950
 1500TIP3    H225992   5.141   0.662  12.634  0.2925 -2.0765 -1.3832
 1501TIP3   OH225993   2.800   2.049   5.236  0.0743 -0.4236 -0.1192
 1501TIP3    H125994   2.714   2.088   5.250  0.4695  0.4100  0.0588
 1501TIP3    H225995   2.793   2.007   5.150 -0.6791 -0.8508  0.1452
 1502TIP3   OH225996   3.073   0.982  12.730 -0.0355 -0.2736 -0.3814
 1502TIP3    H125997   3.094   1.075  12.731 -1.8616  0.1744  0.2210
 1502TIP3    H225998   3.081   0.957  12.638  1.7004  0.1439 -0.3748
 1503TIP3   OH225999   6.184   4.883  11.510 -0.0247 -0.5636  0.3228
 1503TIP3    H126000   6.239   4.819  11.465  0.9971  0.8297 -0.4806
 1503TIP3    H226001   6.245   4.940  11.556 -0.8553  0.2865  0.4020
 1504TIP3   OH226002   6.119   5.916   5.982 -0.2612  0.1622  0.0418
 1504TIP3    H126003   6.199   5.922   6.035  0.4958 -1.3005 -0.8590
 1504TIP3    H226004   6.139   5.967   5.903 -1.1557  1.8195  0.8420
 1505TIP3   OH226005   2.762   0.062   4.687 -0.3084  0.2551 -0.6640
 1505TIP3    H126006   2.785   0.045   4.595  2.3696  3.0456 -0.6761
 1505TIP3    H226007   2.845   0.052   4.734 -1.2325  0.7031  1.1391
 1506TIP3   OH226008   4.076   2.036  13.906  0.5760  0.4342 -0.1537
 1506TIP3    H126009   4.049   2.068  13.819 -0.4573  1.0340  0.3712
 1506TIP3    H226010   4.041   1.947  13.911  0.8897  0.2920 -0.4639
 1507TIP3   OH226011   6.023   5.121  15.215 -0.6867 -0.1847  0.0505
 1507TIP3    H126012   5.984   5.035  15.232 -0.4585 -0.2640  0.1764
 1507TIP3    H226013   6.083   5.135  15.288 -1.3399  0.4519  0.4756
 1508TIP3   OH226014   0.942   1.445   3.874 -0.0585  0.2784 -0.0061
 1508TIP3    H126015   1.002   1.370   3.878  2.7231  2.2317 -1.2263
 1508TIP3    H226016   0.932   1.472   3.965  0.1108 -0.6982  0.3164
 1509TIP3   OH226017   4.999   5.724   2.063  0.1942 -0.7299 -0.7066
 1509TIP3    H126018   4.942   5.761   1.997  0.4263  0.1737 -0.4229
 1509TIP3    H226019   4.949   5.652   2.102 -0.1941 -0.8366 -1.4001
 1510TIP3   OH226020   0.393   3.605  12.016 -0.3098 -0.1155  0.1881
 1510TIP3    H126021   0.466   3.668  12.014 -0.7503  0.4037  0.1052
 1510TIP3    H226022   0.366   3.603  12.108  0.3035 -0.8896  0.3524
 1511TIP3   OH226023   2.071   0.605  13.613 -0.3947  0.0802 -0.4076
 1511TIP3    H126024   2.035   0.556  13.539 -0.6901  1.7957 -1.4667
 1511TIP3    H226025   2.049   0.697  13.593  1.6562  0.8347  0.5933
 1512TIP3   OH226026   3.353   4.703  11.810  0.6984 -0.1345 -0.2557
 1512TIP3    H126027   3.442   4.733  11.795  0.2307  2.3999  1.5038
 1512TIP3    H226028   3.301   4.746  11.743  0.5909 -0.5788 -0.4662
 1513TIP3   OH226029   4.012   1.871   4.575  0.1946 -0.1786  0.6594
 1513TIP3    H126030   4.000   1.777   4.581  1.0417 -0.2342  1.7637
 1513TIP3    H226031   3.954   1.907   4.643 -1.3569  0.2324 -0.8107
 1514TIP3   OH226032   4.307   5.483  13.916 -0.1387 -0.2663  0.1391
 1514TIP3    H126033   4.221   5.447  13.894 -0.6147  0.2353  1.1196
 1514TIP3    H226034   4.293   5.577  13.925  0.8966  0.0822 -1.4375
 1515TIP3   OH226035   0.742   3.376  13.289  0.0215 -0.5398 -0.5973
 1515TIP3    H126036   0.746   3.372  13.384 -0.7972 -2.1071 -0.5991
 1515TIP3    H226037   0.668   3.434  13.270  0.0003 -0.4595 -0.2780
 1516TIP3   OH226038   0.083   0.498   3.184 -0.8242 -0.5443 -0.4473
 1516TIP3    H126039  -0.000   0.537   3.159 -0.7815 -0.2775 -0.1814
 1516TIP3    H226040   0.087   0.416   3.136 -0.6661  0.0363 -1.4544
 1517TIP3   OH226041   2.465   0.945  16.283  0.3643  0.1232  0.0660
 1517TIP3    H126042   2.415   0.950  16.364 -0.9146 -1.4377 -0.5672
 1517TIP3    H226043   2.500   0.856  16.282  0.0917  0.0063 -1.2148
 1518TIP3   OH226044   0.217   6.310   1.459  0.2146 -0.5726 -0.0762
 1518TIP3    H126045   0.287   6.248   1.480 -0.1871 -0.5437  1.4715
 1518TIP3    H226046   0.247   6.393   1.498 -0.0896 -0.2432 -0.5317
 1519TIP3   OH226047   4.167   4.432   0.458 -0.0541  0.2480  0.3082
 1519TIP3    H126048   4.225   4.420   0.382  0.2477 -0.9168  0.6966
 1519TIP3    H226049   4.080   4.440   0.420  0.2455  1.1498 -0.2342
 1520TIP3   OH226050   5.980   1.652  13.082 -0.2313 -0.0958 -0.1005
 1520TIP3    H126051   5.903   1.639  13.137  0.5563 -1.5056  0.7346
 1520TIP3    H226052   6.006   1.563  13.057  0.8996  0.3836 -0.6967
 1521TIP3   OH226053   6.090   3.662   0.352  0.2675 -0.3365  0.8780
 1521TIP3    H126054   6.048   3.617   0.425 -1.9444  0.6005  0.2680
 1521TIP3    H226055   6.032   3.646   0.277  1.1767  0.7517 -0.0984
 1522TIP3   OH226056   1.129   5.944  10.674  0.0010 -0.1842 -0.1633
 1522TIP3    H126057   1.141   6.010  10.606 -2.0531  1.2979  0.7811
 1522TIP3    H226058   1.036   5.921  10.668 -0.1704 -0.2245  1.8795
 1523TIP3   OH226059   2.790   0.237   2.752  0.0142 -0.2461  0.1774
 1523TIP3    H126060   2.745   0.155   2.733 -1.1229  0.5290 -0.5728
 1523TIP3    H226061   2.883   0.214   2.749 -0.2931 -1.6342  0.6207
 1524TIP3   OH226062   6.008   3.669   1.984  0.5560  0.7094 -0.5134
 1524TIP3    H126063   6.046   3.584   1.964  0.0992  0.1899  0.6849
 1524TIP3    H226064   5.918   3.663   1.953  0.1691  0.2927  0.6113
 1525TIP3   OH226065   5.675   3.042   0.977 -0.1436  0.1099  0.7371
 1525TIP3    H126066   5.713   3.035   1.065 -0.2463  0.9066  0.8552
 1525TIP3    H226067   5.743   3.009   0.919  0.2692  0.4016  1.0475
 1526TIP3   OH226068   5.566   0.332   5.612 -0.7885 -0.5910  0.1956
 1526TIP3    H126069   5.594   0.403   5.555 -0.3397 -0.5562  0.4576
 1526TIP3    H226070   5.480   0.360   5.645 -0.7532 -0.3139  0.0550
 1527TIP3   OH226071   6.608   6.651  11.385 -0.1551  0.5779  0.3978
 1527TIP3    H126072   6.567   6.571  11.419  0.1756 -1.0008 -2.5530
 1527TIP3    H226073   6.671   6.677  11.453  0.6346 -2.4517  0.9662
 1528TIP3   OH226074   4.749   0.448   3.772 -0.9338 -0.5543  0.0893
 1528TIP3    H126075   4.834   0.410   3.747 -0.9887  0.0624 -1.1515
 1528TIP3    H226076   4.702   0.457   3.689 -1.5160  0.7437  0.5284
 1529TIP3   OH226077   0.600   2.077  12.325 -0.5528 -0.2721 -0.1435
 1529TIP3    H126078   0.583   2.037  12.240 -1.7935 -0.1001 -0.0037
 1529TIP3    H226079   0.679   2.128  12.312 -0.6853 -0.2991 -1.1829
 1530TIP3   OH226080   4.445   3.477  14.390 -0.6084  0.5757 -0.0932
 1530TIP3    H126081   4.432   3.477  14.485  1.5193 -0.9480  0.2743
 1530TIP3    H226082   4.541   3.480  14.380 -0.7781 -0.0594 -2.1799
 1531TIP3   OH226083   6.752   6.497  11.132  0.3174  0.2401 -0.2501
 1531TIP3    H126084   6.845   6.477  11.132  0.0743 -1.2095  1.8939
 1531TIP3    H226085   6.746   6.583  11.175  0.6532  0.3441 -0.4093
 1532TIP3   OH226086   5.556   1.936   3.385 -0.7221  0.2203  0.0923
 1532TIP3    H126087   5.471   1.935   3.430  0.8849 -1.3507  3.5093
 1532TIP3    H226088   5.562   1.850   3.342 -1.5065  1.0136 -1.6829
 1533TIP3   OH226089   6.778   1.078  11.390 -0.2166  0.1304  0.4565
 1533TIP3    H126090   6.788   0.986  11.416 -1.6854  0.0579  0.8529
 1533TIP3    H226091   6.868   1.109  11.375  0.5026 -0.6937  2.6439
 1534TIP3   OH226092   0.470   2.459   2.746  0.2098  0.3540 -0.1320
 1534TIP3    H126093   0.433   2.494   2.826  0.8743  0.3764  0.1736
 1534TIP3    H226094   0.555   2.502   2.738  0.7042 -0.5880 -0.1633
 1535TIP3   OH226095   5.671   2.577  11.012 -0.2099 -0.0139  0.3847
 1535TIP3    H126096   5.651   2.664  11.046  0.1416  1.1859 -2.2664
 1535TIP3    H226097   5.767   2.575  11.006 -0.0956 -1.2500  1.9217
 1536TIP3   OH226098   3.659   2.336   3.805  0.6809  0.0264  0.4035
 1536TIP3    H126099   3.573   2.325   3.766  0.3227 -0.1501  1.2291
 1536TIP3    H226100   3.719   2.294   3.743  0.2202  0.4862 -0.3561
 1537TIP3   OH226101   1.644   0.326  16.630 -0.4298  0.0187 -0.1621
 1537TIP3    H126102   1.676   0.381  16.701  0.5839 -0.6849 -0.0504
 1537TIP3    H226103   1.661   0.237  16.659  0.3373 -0.2727 -1.4169
 1538TIP3   OH226104   0.558   3.944  11.162 -0.1261  0.2391 -0.0258
 1538TIP3    H126105   0.566   3.854  11.132  0.4571  0.2287  0.1529
 1538TIP3    H226106   0.598   3.997  11.092 -0.3615  0.3502 -0.0778
 1539TIP3   OH226107   0.983   2.915   1.545 -0.0196  0.0345 -0.0799
 1539TIP3    H126108   0.948   2.826   1.554  0.2335 -0.1443 -0.8116
 1539TIP3    H226109   1.064   2.914   1.596  0.7803 -0.6137 -1.3377
 1540TIP3   OH226110   2.740   0.328  12.672 -0.3045 -0.3734  0.0916
 1540TIP3    H126111   2.701   0.264  12.612 -1.0822 -1.4442  1.6734
 1540TIP3    H226112   2.786   0.274  12.737  0.2812  0.7418  0.6187
 1541TIP3   OH226113   5.757   4.705   2.702 -0.5450  0.4184 -0.0043
 1541TIP3    H126114   5.718   4.628   2.743  0.8642 -0.3036  0.0555
 1541TIP3    H226115   5.751   4.688   2.608  2.7099 -1.4229 -0.0138
 1542TIP3   OH226116   6.479   3.612  15.709 -0.2967  0.6523  0.0613
 1542TIP3    H126117   6.492   3.546  15.641  0.3146 -1.3360  1.9987
 1542TIP3    H226118   6.406   3.578  15.761  0.9193  0.7397  1.9106
 1543TIP3   OH226119   2.243   3.233  14.023  0.2045 -0.2524  0.1199
 1543TIP3    H126120   2.286   3.170  14.080  2.4543  1.1512  0.1201
 1543TIP3    H226121   2.301   3.309  14.023 -0.6465  0.5193 -2.5717
 1544TIP3   OH226122   5.341   5.476  12.487 -0.2310 -0.1538  0.2066
 1544TIP3    H126123   5.360   5.527  12.409  1.1371 -0.4787  0.3057
 1544TIP3    H226124   5.254   5.439  12.471 -0.6061  0.9926 -0.4985
 1545TIP3   OH226125   0.916   5.009   2.109  0.1643  0.2147  0.1152
 1545TIP3    H126126   0.870   5.085   2.145 -0.4387 -0.2029  0.2529
 1545TIP3    H226127   0.990   4.995   2.168 -0.4089 -0.0307  0.7927
 1546TIP3   OH226128   2.327   0.904   2.878  0.2586  0.0477  0.1750
 1546TIP3    H126129   2.396   0.938   2.821  0.3278  0.3382  0.4307
 1546TIP3    H226130   2.251   0.960   2.860  0.7005  1.1084  1.4358
 1547TIP3   OH226131   5.543   2.688   1.169 -0.5163 -0.3848 -0.0796
 1547TIP3    H126132   5.550   2.651   1.257 -0.9939  0.7888  0.4799
 1547TIP3    H226133   5.618   2.747   1.162 -1.0052  0.2434 -0.0871
 1548TIP3   OH226134   2.078   1.600  16.657 -0.1009 -0.3325  0.6741
 1548TIP3    H126135   1.992   1.562  16.636 -0.2771 -0.0808  0.9234
 1548TIP3    H226136   2.126   1.529  16.699  0.3380 -0.9071 -0.7578
 1549TIP3   OH226137   1.091   1.704  14.140 -0.4224 -0.3067 -0.0320
 1549TIP3    H126138   1.125   1.753  14.215 -0.4666  0.1318 -0.2940
 1549TIP3    H226139   1.053   1.625  14.179  1.0747 -0.9207  0.2436
 1550TIP3   OH226140   0.710   0.116   4.314 -0.4651  0.9284  0.2181
 1550TIP3    H126141   0.751   0.141   4.232 -2.6293  4.1451 -0.0518
 1550TIP3    H226142   0.653   0.042   4.291  0.8608  0.0996 -0.5410
 1551TIP3   OH226143   4.410   4.202   1.179  0.0903  0.0131 -0.2453
 1551TIP3    H126144   4.407   4.115   1.220 -0.6711 -0.5120 -1.3567
 1551TIP3    H226145   4.331   4.246   1.211 -1.1814 -0.8526 -2.0454
 1552TIP3   OH226146   5.981   3.256   5.880 -0.0213 -0.2458 -0.5509
 1552TIP3    H126147   6.046   3.186   5.887 -0.7174 -1.0487 -1.7570
 1552TIP3    H226148   6.023   3.321   5.823  0.5044  0.2030  0.3217
 1553TIP3   OH226149   2.817   3.877   5.660 -0.1216  0.0735 -0.5751
 1553TIP3    H126150   2.786   3.951   5.609 -0.1714 -0.6876 -1.6756
 1553TIP3    H226151   2.762   3.804   5.634  1.9044 -1.0876 -1.8764
 1554TIP3   OH226152   6.639   2.640  15.208 -0.2374 -0.8064 -0.0944
 1554TIP3    H126153   6.605   2.573  15.148 -1.8364 -0.3831  0.3044
 1554TIP3    H226154   6.678   2.705  15.150  0.5602 -1.6330 -0.5282
 1555TIP3   OH226155   5.579   2.932  13.847 -0.2614  0.0414  0.5072
 1555TIP3    H126156   5.662   2.957  13.887 -0.1960 -0.1767  0.5039
 1555TIP3    H226157   5.585   2.964  13.757 -0.0670 -0.2270  0.4237
 1556TIP3   OH226158   5.789   6.488   1.064 -0.5472 -0.1021 -0.0306
 1556TIP3    H126159   5.811   6.535   0.983  0.3710 -0.2014  0.1515
 1556TIP3    H226160   5.714   6.432   1.040 -1.4433  1.1846 -0.3359
 1557TIP3   OH226161   3.357   6.673  16.547  0.0222 -0.3886 -0.0235
 1557TIP3    H126162   3.305   6.643  16.622 -1.8649  1.3822 -0.5385
 1557TIP3    H226163   3.349   6.602  16.483  0.2296 -1.1695  0.7950
 1558TIP3   OH226164   5.369   4.025   3.680 -0.1528  0.1349 -0.5874
 1558TIP3    H126165   5.304   4.091   3.655 -1.2724 -1.1684 -1.2759
 1558TIP3    H226166   5.363   4.018   3.775 -1.3643 -0.2774 -0.6805
 1559TIP3   OH226167   4.601   5.823  15.896  0.1601 -0.6397  0.5315
 1559TIP3    H126168   4.606   5.913  15.864  0.4711 -0.0821  2.0387
 1559TIP3    H226169   4.688   5.804  15.929  0.0918 -1.5034  0.2327
 1560TIP3   OH226170   5.737   1.010   4.810  0.3592 -0.1793  0.1414
 1560TIP3    H126171   5.702   1.031   4.897  1.8560 -0.4395  0.8439
 1560TIP3    H226172   5.675   0.948   4.773  0.0241 -0.5541  1.2932
 1561TIP3   OH226173   5.013   2.112  11.725  0.3755  0.0911 -0.7206
 1561TIP3    H126174   4.931   2.135  11.769  1.3874  2.3959  0.0823
 1561TIP3    H226175   4.987   2.097  11.634 -1.3395 -2.1423  0.0551
 1562TIP3   OH226176   4.655   3.518  11.105 -0.6672  0.3233  0.3050
 1562TIP3    H126177   4.702   3.558  11.033  0.2857  0.6274  1.0711
 1562TIP3    H226178   4.568   3.500  11.070 -0.2592  0.5615 -0.8708
 1563TIP3   OH226179   0.650   4.848  13.347 -0.2675  0.0332  0.2976
 1563TIP3    H126180   0.651   4.909  13.421  1.4539  2.6353 -1.6744
 1563TIP3    H226181   0.619   4.901  13.274  1.3060 -1.4432 -1.5424
 1564TIP3   OH226182   1.973   1.931   0.549 -0.5696 -0.1617  0.0405
 1564TIP3    H126183   1.894   1.983   0.534 -0.8744  1.4195  5.2665
 1564TIP3    H226184   1.941   1.843   0.570 -0.5931 -0.5056 -1.3418
 1565TIP3   OH226185   2.312   3.732   0.569 -0.0240 -0.2108  0.2396
 1565TIP3    H126186   2.240   3.704   0.512 -1.8462  1.2004  1.7112
 1565TIP3    H226187   2.380   3.763   0.509 -0.8620 -1.0488 -1.1937
 1566TIP3   OH226188   1.924   2.878  13.734  0.1397 -0.4060  0.2186
 1566TIP3    H126189   1.964   2.792  13.729 -0.7317 -0.7583 -2.0793
 1566TIP3    H226190   1.954   2.914  13.817  0.9247 -2.7086  1.0088
 1567TIP3   OH226191   3.753   0.358   3.324  0.9622 -0.2237 -0.3990
 1567TIP3    H126192   3.814   0.399   3.386 -1.7025 -0.0936  2.3883
 1567TIP3    H226193   3.807   0.297   3.274  3.6402  1.0591  0.7214
 1568TIP3   OH226194   6.082   5.004  17.194  0.3556 -0.2279 -0.1956
 1568TIP3    H126195   6.115   4.958  17.117 -1.2583 -0.8842 -0.5482
 1568TIP3    H226196   6.147   4.989  17.262  1.9733  0.6121 -1.4752
 1569TIP3   OH226197   4.782   0.763  11.801  0.2641 -0.0856 -0.8087
 1569TIP3    H126198   4.701   0.715  11.785 -0.1322  0.5663 -0.8046
 1569TIP3    H226199   4.843   0.729  11.736 -0.2109 -0.1186 -1.2450
 1570TIP3   OH226200   1.093   4.116  13.353  0.0049 -0.0210 -0.4142
 1570TIP3    H126201   1.179   4.116  13.312  0.0190  0.1781 -0.3869
 1570TIP3    H226202   1.106   4.161  13.436 -0.6584  2.5624 -1.5957
 1571TIP3   OH226203   5.049   1.388  14.703 -0.1761 -0.1053  0.7504
 1571TIP3    H126204   5.045   1.445  14.780  1.2981 -0.6728  1.2946
 1571TIP3    H226205   4.986   1.318  14.722 -0.0492 -0.0741  1.3047
 1572TIP3   OH226206   2.294   1.798   5.964  0.3015 -0.0629 -0.2084
 1572TIP3    H126207   2.306   1.885   5.926  1.1282  0.1026  0.4165
 1572TIP3    H226208   2.282   1.814   6.057  1.4341 -0.6721  0.0591
 1573TIP3   OH226209   5.729   3.281   3.591  0.2442  0.1859 -0.0555
 1573TIP3    H126210   5.797   3.308   3.530 -0.2981  2.0086  0.1039
 1573TIP3    H226211   5.742   3.335   3.668 -2.0268  1.4245 -0.4350
 1574TIP3   OH226212   4.807   0.805   0.156  0.0722 -0.4440 -0.2878
 1574TIP3    H126213   4.881   0.853   0.119 -1.3707 -0.4392 -3.4145
 1574TIP3    H226214   4.736   0.816   0.093 -1.4742 -3.6394  0.6754
 1575TIP3   OH226215   6.606   1.122   5.086 -0.8138  0.1347  0.1227
 1575TIP3    H126216   6.602   1.217   5.094 -0.5932  0.3136 -1.5754
 1575TIP3    H226217   6.514   1.094   5.081 -0.8608  0.3947 -0.5898
 1576TIP3   OH226218   1.745   1.730   3.598  0.3257  0.3214 -0.2169
 1576TIP3    H126219   1.660   1.695   3.571 -0.1154  1.0480  0.2085
 1576TIP3    H226220   1.791   1.747   3.516  0.4039 -0.8574 -0.4466
 1577TIP3   OH226221   0.287   1.835  12.278 -0.0539 -0.4509  0.5719
 1577TIP3    H126222   0.318   1.840  12.187  1.6012  0.9910  1.1677
 1577TIP3    H226223   0.285   1.925  12.308  0.1238 -0.9580  2.2105
 1578TIP3   OH226224   2.332   5.429  11.682  0.5145 -0.2920  0.3012
 1578TIP3    H126225   2.268   5.398  11.746 -0.2077 -2.1176 -1.1925
 1578TIP3    H226226   2.281   5.486  11.623  0.2015 -1.7335 -0.8811
 1579TIP3   OH226227   4.059   0.465  10.366 -0.2571 -0.1386 -0.4365
 1579TIP3    H126228   3.973   0.496  10.392 -0.1968 -0.6686  0.4201
 1579TIP3    H226229   4.117   0.540  10.377 -0.4975  0.0486 -0.4524
 1580TIP3   OH226230   6.661   0.063  12.065 -0.4765  0.0029 -0.2146
 1580TIP3    H126231   6.630   0.083  12.154  0.7885  2.9189 -0.3106
 1580TIP3    H226232   6.636  -0.028  12.051 -0.8660 -0.5267  3.0732
 1581TIP3   OH226233   1.930   0.903   4.953 -0.0619  0.2186  0.1614
 1581TIP3    H126234   1.842   0.869   4.972  0.3669  0.3645  2.9049
 1581TIP3    H226235   1.918   0.998   4.945 -0.2986  0.1348 -0.4562
 1582TIP3   OH226236   6.407   0.654   4.149 -0.7885 -0.0004  0.0176
 1582TIP3    H126237   6.469   0.581   4.147  0.2198  0.7437  1.6214
 1582TIP3    H226238   6.329   0.618   4.190 -0.3527 -0.2565  0.6479
 1583TIP3   OH226239   0.109   5.974  14.442 -0.3964 -0.2650 -0.2958
 1583TIP3    H126240   0.053   6.036  14.396 -0.0160  0.1479 -0.2062
 1583TIP3    H226241   0.081   5.888  14.410 -1.0224 -0.0595 -0.3117
 1584TIP3   OH226242   6.513   0.625   5.840  0.5074  0.4555  0.1101
 1584TIP3    H126243   6.553   0.663   5.918 -0.6999 -0.8060  1.3931
 1584TIP3    H226244   6.493   0.535   5.864 -0.2759  0.1524 -1.5219
 1585TIP3   OH226245   0.754   3.653   1.025 -0.3862  0.4207 -0.1824
 1585TIP3    H126246   0.759   3.558   1.030 -1.2760  0.3841  0.4419
 1585TIP3    H226247   0.839   3.684   1.055  0.1567 -0.1801 -1.0652
 1586TIP3   OH226248   0.003   4.096  13.182 -0.6748  0.3975  0.2797
 1586TIP3    H126249  -0.047   4.152  13.241  0.4442  0.9012  0.7955
 1586TIP3    H226250   0.010   4.147  13.101 -0.5635  0.5467  0.3826
 1587TIP3   OH226251   4.715   5.840   0.801 -0.1561  0.2415 -0.1927
 1587TIP3    H126252   4.805   5.833   0.769  0.1131  1.5429  0.2307
 1587TIP3    H226253   4.720   5.903   0.874 -0.9059 -1.8846  1.8282
 1588TIP3   OH226254   1.193   4.829  16.516  0.3264 -0.3514  0.2871
 1588TIP3    H126255   1.196   4.872  16.601 -1.9849 -0.4780  0.5015
 1588TIP3    H226256   1.139   4.751  16.530  0.4764 -0.7426 -1.1430
 1589TIP3   OH226257   5.419   3.011  16.307 -0.0943 -0.8214 -0.4851
 1589TIP3    H126258   5.472   3.088  16.325 -0.3911 -0.3662 -1.4319
 1589TIP3    H226259   5.462   2.940  16.353 -0.9893  0.2492  2.2273
 1590TIP3   OH226260   5.900   5.607  14.278  1.1960  0.3132  0.3319
 1590TIP3    H126261   5.985   5.586  14.316  0.8373 -1.0362  0.4232
 1590TIP3    H226262   5.855   5.657  14.346  1.7529  0.6738  0.4399
 1591TIP3   OH226263   0.588   5.611  14.205 -0.2987 -0.6701  0.4906
 1591TIP3    H126264   0.668   5.599  14.154 -0.9688  1.4888 -1.2627
 1591TIP3    H226265   0.528   5.545  14.171  0.2031 -1.1885  0.6019
 1592TIP3   OH226266   3.720   2.121  16.336 -0.8631  0.1222 -0.3727
 1592TIP3    H126267   3.638   2.093  16.376 -0.5970  1.3051  1.0941
 1592TIP3    H226268   3.728   2.213  16.359  1.4267 -0.2323  0.5464
 1593TIP3   OH226269   4.243   3.897   1.767 -0.4132  0.2590 -0.0263
 1593TIP3    H126270   4.325   3.947   1.769 -0.5009  0.3870  0.6348
 1593TIP3    H226271   4.246   3.843   1.846 -0.4045 -0.6609 -0.6411
 1594TIP3   OH226272   1.637   3.472   6.404 -0.0086 -1.0588 -0.1231
 1594TIP3    H126273   1.718   3.422   6.395  0.9297  0.3476  0.1465
 1594TIP3    H226274   1.665   3.563   6.399 -1.4096 -0.5128  1.3224
 1595TIP3   OH226275   1.050   2.270  12.117 -0.0366  0.6100  0.2561
 1595TIP3    H126276   1.145   2.260  12.123 -0.2386 -0.7641  1.8243
 1595TIP3    H226277   1.034   2.362  12.136  0.9489  0.7735  0.3356
 1596TIP3   OH226278   2.302   3.453  12.855  0.0401  0.4915  0.0547
 1596TIP3    H126279   2.328   3.379  12.909 -0.4740 -0.9964 -1.6278
 1596TIP3    H226280   2.335   3.432  12.768 -3.3105  0.3529 -1.3324
 1597TIP3   OH226281   3.990   6.698   3.611  0.4628 -0.5599  0.3591
 1597TIP3    H126282   3.983   6.618   3.559 -0.6458 -0.4438  0.3101
 1597TIP3    H226283   3.926   6.758   3.573  1.0017  0.2191  0.6456
 1598TIP3   OH226284   5.978   6.217   0.941  0.3930  0.0992 -0.4396
 1598TIP3    H126285   5.891   6.205   0.978 -0.1329  0.9133 -1.3547
 1598TIP3    H226286   6.032   6.151   0.983 -0.5878 -0.1800  0.4060
 1599TIP3   OH226287   3.417   5.684  10.618 -0.3695 -0.1259 -0.6105
 1599TIP3    H126288   3.322   5.697  10.615 -0.3995  0.8474  1.7054
 1599TIP3    H226289   3.431   5.627  10.694  0.9325  0.5498 -0.3032
 1600TIP3   OH226290   2.285   2.237   0.289 -0.0354  0.0274 -0.0163
 1600TIP3    H126291   2.331   2.159   0.257 -0.4159 -0.4434  0.5638
 1600TIP3    H226292   2.207   2.203   0.331  0.3547  0.6314  1.2543
 1601TIP3   OH226293   1.624   6.553  13.580 -0.1678  0.2863 -0.7291
 1601TIP3    H126294   1.637   6.481  13.518 -0.3631 -0.2850 -0.1153
 1601TIP3    H226295   1.696   6.545  13.642 -1.4058 -0.7329  0.6217
 1602TIP3   OH226296   6.463   3.384   1.395  0.1270 -0.2616  0.0524
 1602TIP3    H126297   6.385   3.383   1.340  0.0920  0.2637  0.0921
 1602TIP3    H226298   6.520   3.450   1.355  0.9438 -1.2710 -0.5160
 1603TIP3   OH226299   3.598   5.254   4.308  0.3781  0.7035 -0.3776
 1603TIP3    H126300   3.564   5.321   4.368 -1.0927  1.2283 -1.7250
 1603TIP3    H226301   3.539   5.180   4.319  0.6963  0.4301 -0.4864
 1604TIP3   OH226302   4.429   1.007   6.322  0.5825  0.3123  0.1590
 1604TIP3    H126303   4.488   0.975   6.254 -0.1771  1.0243 -0.8704
 1604TIP3    H226304   4.468   1.090   6.351  0.8215  0.0894  0.4740
 1605TIP3   OH226305   5.150   3.012  16.987 -0.0293  0.3429 -0.1290
 1605TIP3    H126306   5.107   3.082  16.937 -0.0036 -0.1439 -0.8512
 1605TIP3    H226307   5.128   3.031  17.078 -0.1230  1.2200 -0.3269
 1606TIP3   OH226308   2.682   2.620  11.550  0.1418 -0.0377  0.3491
 1606TIP3    H126309   2.595   2.653  11.528 -0.4494 -0.9404  1.2039
 1606TIP3    H226310   2.731   2.697  11.579 -0.8807  0.2663  1.3681
 1607TIP3   OH226311   6.367   3.363   5.841 -0.6070 -0.5950 -0.0570
 1607TIP3    H126312   6.359   3.336   5.749  1.0150  1.5479 -0.9272
 1607TIP3    H226313   6.461   3.377   5.853 -0.8098 -0.7420  1.9294
 1608TIP3   OH226314   4.238   3.526   0.443 -0.7902  0.0283  0.5318
 1608TIP3    H126315   4.316   3.574   0.415 -0.7581 -0.3235 -0.0007
 1608TIP3    H226316   4.267   3.435   0.451 -0.8772  0.0717  1.4338
 1609TIP3   OH226317   0.267   4.822   1.646  0.5757  0.0549  0.3011
 1609TIP3    H126318   0.238   4.835   1.737  3.3926 -1.3190  1.5251
 1609TIP3    H226319   0.355   4.860   1.644  1.1649 -1.3047 -1.4343
 1610TIP3   OH226320   5.585   4.923   2.665  0.3351  0.0241 -0.3332
 1610TIP3    H126321   5.657   4.863   2.647 -0.4556 -1.1024  0.1529
 1610TIP3    H226322   5.553   4.897   2.752  1.5686  2.7838  1.0591
 1611TIP3   OH226323   4.458   0.471  15.831 -0.4855  0.8719  0.0991
 1611TIP3    H126324   4.460   0.475  15.927  0.1513  0.9313  0.0880
 1611TIP3    H226325   4.517   0.399  15.810  0.4040  1.7028 -0.2975
 1612TIP3   OH226326   3.498   1.719   1.166 -0.3123 -0.4267 -0.0624
 1612TIP3    H126327   3.421   1.732   1.112 -1.0408 -3.3661  0.0942
 1612TIP3    H226328   3.556   1.663   1.114  0.9747  0.3141  0.4978
 1613TIP3   OH226329   3.903   6.458  15.115  0.0894 -0.7449 -0.0674
 1613TIP3    H126330   3.992   6.474  15.085  0.1850  0.1898  0.6794
 1613TIP3    H226331   3.864   6.545  15.124 -0.1445 -0.9931  1.8394
 1614TIP3   OH226332   5.527   6.691   4.491  0.6757 -0.0129  0.1230
 1614TIP3    H126333   5.487   6.614   4.533 -0.4032  0.8984  0.8232
 1614TIP3    H226334   5.499   6.685   4.400 -0.3903  0.1533  0.4232
 1615TIP3   OH226335   1.631   1.135   4.403 -0.0888  0.5025  0.2132
 1615TIP3    H126336   1.539   1.162   4.400 -0.0857  0.4654 -1.1981
 1615TIP3    H226337   1.633   1.051   4.356  0.4591 -0.2183  1.4719
 1616TIP3   OH226338   3.729   1.089  16.871  0.3933  0.0677 -0.4905
 1616TIP3    H126339   3.821   1.105  16.892  0.1221 -0.9758  1.8139
 1616TIP3    H226340   3.700   1.170  16.828  1.7926  1.4073  0.9359
 1617TIP3   OH226341   1.228   2.454  13.767 -0.1104  0.7011  0.2635
 1617TIP3    H126342   1.169   2.462  13.692 -0.1642 -1.3431  0.0435
 1617TIP3    H226343   1.240   2.360  13.779 -0.1189  0.9563  2.8533
 1618TIP3   OH226344   6.033   6.185   0.654 -0.5032  0.1317 -0.2676
 1618TIP3    H126345   6.001   6.178   0.744  0.8717  0.0620  0.2487
 1618TIP3    H226346   6.031   6.095   0.621 -2.7353  0.3834 -0.9812
 1619TIP3   OH226347   6.401   2.229   5.028  0.2733 -0.0224 -0.3582
 1619TIP3    H126348   6.496   2.220   5.024  0.1372 -1.2603 -1.6885
 1619TIP3    H226349   6.384   2.321   5.008  1.2184  0.4877  1.0700
 1620TIP3   OH226350   5.789   2.199  13.417  0.6461  0.1831  0.1628
 1620TIP3    H126351   5.724   2.131  13.396  2.0649 -0.9996 -0.5992
 1620TIP3    H226352   5.834   2.165  13.495  1.5347  0.1205 -0.3724
 1621TIP3   OH226353   2.234   4.361   3.632 -0.2682 -0.1566  0.2657
 1621TIP3    H126354   2.188   4.317   3.560  2.8088 -2.2534 -0.6123
 1621TIP3    H226355   2.250   4.291   3.696  0.6135  0.7662  1.0812
 1622TIP3   OH226356   3.784   5.031   6.931  0.3605  0.1354  0.2382
 1622TIP3    H126357   3.756   4.953   6.979  1.2206 -1.8397 -2.2694
 1622TIP3    H226358   3.779   5.006   6.839  1.7043  2.7199 -0.6393
 1623TIP3   OH226359   5.793   0.658   4.235 -0.0070 -0.0322  0.3359
 1623TIP3    H126360   5.824   0.576   4.198 -0.7328 -0.3301  0.3782
 1623TIP3    H226361   5.825   0.658   4.325  1.0888  0.3337 -0.0297
 1624TIP3   OH226362   4.686   3.720  11.781  0.0429 -0.5003 -0.2673
 1624TIP3    H126363   4.763   3.709  11.725  0.7253  0.7685  0.3715
 1624TIP3    H226364   4.612   3.722  11.720  0.6327 -0.5231 -0.9994
 1625TIP3   OH226365   1.253   4.589   0.819 -0.0216  0.1079 -0.3128
 1625TIP3    H126366   1.178   4.530   0.813 -1.3190  1.7124 -0.5391
 1625TIP3    H226367   1.272   4.614   0.729  2.0817 -1.7556 -0.4752
 1626TIP3   OH226368   6.453   4.346  15.416  0.6678  0.5963  0.0409
 1626TIP3    H126369   6.438   4.439  15.400  3.3763  1.2291  0.5675
 1626TIP3    H226370   6.545   4.332  15.390  0.3261 -1.9560 -0.0856
 1627TIP3   OH226371   6.727   5.623   0.991 -0.3957  0.2912  0.3316
 1627TIP3    H126372   6.822   5.632   0.991 -0.1784 -0.9538 -2.5258
 1627TIP3    H226373   6.712   5.532   1.016 -0.8755  0.5762  1.1087
 1628TIP3   OH226374   0.172   0.250   4.406  0.1014  0.3084 -0.0716
 1628TIP3    H126375   0.173   0.301   4.325 -0.7271  1.2093  0.4716
 1628TIP3    H226376   0.214   0.167   4.382 -0.4488  0.4220 -1.5138
 1629TIP3   OH226377   0.508   2.522   0.774 -0.3956 -0.1670 -0.2857
 1629TIP3    H126378   0.568   2.482   0.711  0.1425  0.2897 -0.0767
 1629TIP3    H226379   0.550   2.508   0.859 -0.8640 -0.3374 -0.0809
 1630TIP3   OH226380   1.144   3.246  15.009 -0.3896  0.3026 -0.1804
 1630TIP3    H126381   1.092   3.248  15.089 -1.3131  0.8048 -0.7709
 1630TIP3    H226382   1.231   3.219  15.037 -0.6685  0.5900  1.0028
 1631TIP3   OH226383   4.560   2.064  15.638  0.2340 -0.0482 -0.1696
 1631TIP3    H126384   4.471   2.094  15.656  0.4940  1.9073 -1.8793
 1631TIP3    H226385   4.611   2.144  15.623  2.5431 -1.0484  1.6570
 1632TIP3   OH226386   1.863   3.684  12.888 -0.3923  0.4231  0.0161
 1632TIP3    H126387   1.809   3.627  12.943 -1.6873  1.8714  0.3015
 1632TIP3    H226388   1.919   3.623  12.840 -2.5237 -1.2004 -0.5951
 1633TIP3   OH226389   4.503   4.668  11.284 -0.0572  0.4089  0.0203
 1633TIP3    H126390   4.564   4.647  11.214 -0.3127  0.9418 -0.3688
 1633TIP3    H226391   4.554   4.657  11.364  0.2191 -0.2665 -0.2389
 1634TIP3   OH226392   3.600   1.275  14.971  0.4337  0.3980  0.5936
 1634TIP3    H126393   3.536   1.332  14.929 -1.2616 -2.0681 -0.4003
 1634TIP3    H226394   3.551   1.231  15.041  0.9757 -1.5677 -0.2070
 1635TIP3   OH226395   4.454   5.627  14.416  0.3005 -0.0688 -0.3746
 1635TIP3    H126396   4.399   5.698  14.383 -1.5999 -0.1956  2.2436
 1635TIP3    H226397   4.543   5.662  14.412 -0.4136  1.8283 -0.6881
 1636TIP3   OH226398   6.074   6.330  14.843 -0.3597  0.4815 -0.4026
 1636TIP3    H126399   6.048   6.280  14.921 -0.9537  1.3194 -0.0398
 1636TIP3    H226400   6.012   6.403  14.840  0.5417  1.2517 -0.8591
 1637TIP3   OH226401   4.082   1.521  13.871 -0.6224 -0.3138 -0.0872
 1637TIP3    H126402   4.014   1.577  13.908 -0.2906  0.4517 -0.6150
 1637TIP3    H226403   4.095   1.453  13.938  0.1459  1.1726  1.3545
 1638TIP3   OH226404   6.528   3.053   5.160 -0.1879  0.6139 -0.6227
 1638TIP3    H126405   6.585   3.005   5.221  0.9777  1.4852 -0.9856
 1638TIP3    H226406   6.522   3.141   5.197 -2.3762  0.2190  0.0802
 1639TIP3   OH226407   1.530   1.723   0.564  0.0880  0.4491  0.5043
 1639TIP3    H126408   1.553   1.630   0.566 -0.5113  0.0624 -3.5222
 1639TIP3    H226409   1.438   1.724   0.536 -0.0909  2.3064  1.0348
 1640TIP3   OH226410   1.507   0.794   5.685  0.5247 -0.2702  0.0710
 1640TIP3    H126411   1.534   0.790   5.776 -0.5003 -1.9668  0.3486
 1640TIP3    H226412   1.506   0.703   5.656 -0.0328  0.1612 -1.3674
 1641TIP3   OH226413   5.151   1.895  16.760  0.2640  0.1632  0.3219
 1641TIP3    H126414   5.202   1.848  16.694  0.4790  3.9958 -2.5681
 1641TIP3    H226415   5.174   1.852  16.843  3.5297 -2.0561 -1.5055
 1642TIP3   OH226416   4.270   2.058   2.578 -0.3428  0.3351 -0.0097
 1642TIP3    H126417   4.302   2.076   2.489 -2.1516 -0.8040 -0.9586
 1642TIP3    H226418   4.204   2.125   2.594  0.3325  0.8448  0.7072
 1643TIP3   OH226419   0.784   0.495  11.568  0.0409  0.1179  0.2109
 1643TIP3    H126420   0.744   0.408  11.558 -0.5141  0.4679 -0.7472
 1643TIP3    H226421   0.711   0.554  11.584  0.1662  0.7093 -1.1904
 1644TIP3   OH226422   3.850   2.322  13.693 -0.5460 -0.1642 -0.1082
 1644TIP3    H126423   3.773   2.335  13.747 -0.2489  1.5060 -0.0316
 1644TIP3    H226424   3.913   2.388  13.723  1.2859 -2.0393  0.4467
 1645TIP3   OH226425   4.664   2.070   2.088 -0.6067 -0.2779 -0.0234
 1645TIP3    H126426   4.656   2.162   2.113  0.2526 -0.2302  0.0951
 1645TIP3    H226427   4.726   2.033   2.151  0.0437 -0.6340 -0.8557
 1646TIP3   OH226428   2.523   5.577  12.413 -0.1398 -0.4216 -0.3598
 1646TIP3    H126429   2.450   5.618  12.460  0.0581  1.1097 -1.3009
 1646TIP3    H226430   2.586   5.648  12.400  0.4446 -1.1363 -1.6491
 1647TIP3   OH226431   6.666   3.220  15.217  0.7376  0.2664  0.2006
 1647TIP3    H126432   6.580   3.218  15.175  1.0530  0.7829 -0.5064
 1647TIP3    H226433   6.669   3.305  15.261  0.8436  0.2016  0.3181
 1648TIP3   OH226434   5.181   3.361  14.006  0.5679 -0.1474 -0.1897
 1648TIP3    H126435   5.263   3.387  14.046  0.0712  0.3385  0.5329
 1648TIP3    H226436   5.181   3.406  13.921  1.3503 -0.7022 -0.4905
 1649TIP3   OH226437   4.841   0.647   5.144  0.9659  0.5562 -0.3697
 1649TIP3    H126438   4.914   0.600   5.184  1.1020  0.3887 -0.8198
 1649TIP3    H226439   4.859   0.739   5.163  0.2620  0.3971  1.2535
 1650TIP3   OH226440   6.730   4.353   4.363 -0.5261  0.0689  0.6296
 1650TIP3    H126441   6.696   4.442   4.366 -1.0311 -0.0755 -0.3532
 1650TIP3    H226442   6.807   4.354   4.421  2.5083  2.4632 -2.9527
 1651TIP3   OH226443   0.967   2.091   1.183  0.0794 -0.0935  0.2931
 1651TIP3    H126444   0.930   2.179   1.175  1.2875  0.5719  1.6269
 1651TIP3    H226445   0.905   2.045   1.239  0.7961  0.7798  1.8785
 1652TIP3   OH226446   1.994   4.379   5.192  0.5979  0.4673  0.4557
 1652TIP3    H126447   2.054   4.421   5.254 -0.3802 -0.9170  2.4861
 1652TIP3    H226448   1.986   4.289   5.225 -0.7120 -0.0650 -1.1783
 1653TIP3   OH226449   6.044   6.318   3.137 -0.5891  0.3467  0.4122
 1653TIP3    H126450   5.995   6.389   3.094  1.6580  2.1270  0.5606
 1653TIP3    H226451   6.047   6.248   3.072 -0.9328  1.3036 -0.6697
 1654TIP3   OH226452   5.289   3.986   4.433  0.2077  0.2006 -0.3834
 1654TIP3    H126453   5.273   4.079   4.420 -2.9653 -0.3008 -0.9208
 1654TIP3    H226454   5.228   3.942   4.372 -2.5579 -2.1812  3.6067
 1655TIP3   OH226455   4.085   6.419  12.055 -0.2351 -0.3622 -0.0625
 1655TIP3    H126456   4.084   6.478  12.131  2.1669  1.5022 -1.3581
 1655TIP3    H226457   3.998   6.431  12.016 -0.4587  0.9481  0.7378
 1656TIP3   OH226458   0.367   3.311  17.298 -0.5189  0.0094 -0.2083
 1656TIP3    H126459   0.444   3.364  17.319 -0.2270  0.2327 -1.6880
 1656TIP3    H226460   0.383   3.281  17.208 -0.8789 -2.2633  0.4292
 1657TIP3   OH226461   3.570   5.811  15.525  0.3433 -0.0858 -0.3764
 1657TIP3    H126462   3.602   5.882  15.471 -1.0719  0.9361  0.0631
 1657TIP3    H226463   3.647   5.758  15.545  1.5208  1.6095 -0.2909
 1658TIP3   OH226464   6.189   0.563  13.347 -0.0904  0.3174 -0.4548
 1658TIP3    H126465   6.274   0.559  13.303 -1.3550  0.1107 -3.0638
 1658TIP3    H226466   6.125   0.549  13.278 -2.2616 -0.5811  1.5922
 1659TIP3   OH226467   1.829   5.496  12.939  0.1598 -0.0868  0.3676
 1659TIP3    H126468   1.885   5.533  12.871  0.1555  0.0845  0.4561
 1659TIP3    H226469   1.792   5.417  12.900  0.7225 -0.3820  0.4241
 1660TIP3   OH226470   0.301   0.553   4.307  0.1100  0.5347 -0.5598
 1660TIP3    H126471   0.362   0.484   4.279  1.4717  2.0900 -1.5495
 1660TIP3    H226472   0.224   0.542   4.250  0.4521  0.0452 -0.9359
 1661TIP3   OH226473   5.292   3.555  12.928  0.3144 -0.3822 -0.2077
 1661TIP3    H126474   5.237   3.546  13.006  0.1744 -1.1782 -0.3958
 1661TIP3    H226475   5.378   3.581  12.963  0.5496 -1.7776  0.3162
 1662TIP3   OH226476   4.457   2.861   0.978  0.5017 -0.6861  0.3537
 1662TIP3    H126477   4.539   2.903   1.004 -0.3642  0.9048  0.6499
 1662TIP3    H226478   4.390   2.930   0.988 -0.5283 -1.1957 -2.1134
 1663TIP3   OH226479   1.309   0.559   3.443 -0.5711 -0.0255  0.1851
 1663TIP3    H126480   1.396   0.587   3.416 -0.6140  0.9176  0.9667
 1663TIP3    H226481   1.256   0.564   3.364 -0.0961  0.1265 -0.1231
 1664TIP3   OH226482   2.178   1.818  13.613  0.5141 -0.3962 -0.3751
 1664TIP3    H126483   2.143   1.903  13.587  0.0572 -0.2489  0.6635
 1664TIP3    H226484   2.208   1.778  13.532 -0.0489  0.4043 -0.9867
 1665TIP3   OH226485   3.894   6.477  11.597  0.6018  0.4544 -1.3963
 1665TIP3    H126486   3.988   6.470  11.580  0.4812  0.4659 -2.0793
 1665TIP3    H226487   3.856   6.505  11.514  0.0731  1.1350 -0.9424
 1666TIP3   OH226488   4.615   6.671  12.520 -0.1539  0.2245  0.1050
 1666TIP3    H126489   4.609   6.753  12.569 -0.7961 -0.5368  1.3575
 1666TIP3    H226490   4.683   6.687  12.454 -0.7417  1.9731 -0.1226
 1667TIP3   OH226491   2.054   4.260  16.207 -0.7336  0.0915  0.0247
 1667TIP3    H126492   1.963   4.287  16.204 -1.3031 -1.4360  1.7869
 1667TIP3    H226493   2.091   4.307  16.282 -0.0972  0.5563 -0.5624
 1668TIP3   OH226494   5.715   6.511  11.242 -0.8092  0.0652 -0.4845
 1668TIP3    H126495   5.668   6.590  11.267  2.3974  1.2137  2.9300
 1668TIP3    H226496   5.787   6.542  11.187 -0.8351 -0.8562 -1.0727
 1669TIP3   OH226497   0.639   6.666   2.070  0.0197  0.0491 -0.5215
 1669TIP3    H126498   0.561   6.612   2.079 -0.1426  0.2269 -0.8142
 1669TIP3    H226499   0.620   6.745   2.121  1.0680 -1.0003  1.6044
 1670TIP3   OH226500   1.965   1.238   3.666  0.3063  0.4129 -0.0233
 1670TIP3    H126501   2.056   1.210   3.670  0.5595  1.3419  1.5970
 1670TIP3    H226502   1.916   1.159   3.643  1.6784  0.3460 -3.1654
 1671TIP3   OH226503   6.624   3.488   3.266 -0.1642  0.3051 -0.6414
 1671TIP3    H126504   6.662   3.491   3.353  2.3948  1.5732 -1.6967
 1671TIP3    H226505   6.581   3.573   3.255 -3.3287 -0.9810  0.4092
 1672TIP3   OH226506   1.221   2.380  15.410 -0.6531 -0.2224 -0.2249
 1672TIP3    H126507   1.281   2.324  15.461 -1.0753 -1.0091 -0.5767
 1672TIP3    H226508   1.163   2.318  15.366 -1.0245  0.5003 -0.7573
 1673TIP3   OH226509   2.433   0.268  14.849 -0.2972 -0.3399  0.3875
 1673TIP3    H126510   2.403   0.351  14.814 -0.8151  0.0380  1.6680
 1673TIP3    H226511   2.352   0.218  14.865 -0.3327  0.5821  3.6202
 1674TIP3   OH226512   3.992   1.555  13.507 -0.4146 -0.2616 -0.1262
 1674TIP3    H126513   4.066   1.503  13.538 -0.6322 -0.5835 -0.1424
 1674TIP3    H226514   3.918   1.528  13.562 -0.9457 -1.2698 -1.2868
 1675TIP3   OH226515   0.243   3.547  14.785 -0.0954 -0.1427  0.3531
 1675TIP3    H126516   0.150   3.525  14.785  0.0619 -0.8411  0.1788
 1675TIP3    H226517   0.278   3.505  14.706  0.6096 -1.0081  1.0982
 1676TIP3   OH226518   3.038   6.557   0.113 -0.1763 -0.1558  0.4846
 1676TIP3    H126519   3.106   6.588   0.174 -0.1502 -0.0752  0.4143
 1676TIP3    H226520   3.031   6.626   0.047 -0.5203 -0.0376  0.6424
 1677TIP3   OH226521   4.467   2.776   3.698  0.2459  0.2303 -0.5217
 1677TIP3    H126522   4.501   2.842   3.758 -0.8136 -0.0325  0.4053
 1677TIP3    H226523   4.372   2.786   3.703  0.1366 -0.0024 -1.9418
 1678TIP3   OH226524   4.882   4.803  12.085  0.1078 -0.0927 -0.2253
 1678TIP3    H126525   4.866   4.742  12.157  0.9848 -1.4758 -1.1551
 1678TIP3    H226526   4.834   4.882  12.110  0.8972 -0.2874  2.1678
 1679TIP3   OH226527   6.741   2.186   5.745 -0.2669  0.0629  0.3021
 1679TIP3    H126528   6.783   2.141   5.672 -0.1977  0.7864 -0.1093
 1679TIP3    H226529   6.744   2.279   5.721 -0.5649  0.2721  1.0581
 1680TIP3   OH226530   0.724   2.929  13.177  0.5189 -0.8267 -0.0300
 1680TIP3    H126531   0.675   2.959  13.100  0.1500 -0.8489  0.1952
 1680TIP3    H226532   0.788   2.999  13.194 -0.4585 -0.0708  0.6059
 1681TIP3   OH226533   2.649   6.136   5.926 -0.2419 -0.3527 -0.1807
 1681TIP3    H126534   2.666   6.061   5.983 -1.6885  1.3921  2.8224
 1681TIP3    H226535   2.735   6.174   5.909  0.2083 -0.4196  1.7013
 1682TIP3   OH226536   5.403   5.435  14.494  0.0963  0.3583 -0.0471
 1682TIP3    H126537   5.407   5.364  14.558  2.0302  1.0980  0.7091
 1682TIP3    H226538   5.335   5.494  14.528  0.5059  0.3122  0.8652
 1683TIP3   OH226539   2.167   1.312   1.227  0.0917 -0.2545  0.2710
 1683TIP3    H126540   2.174   1.285   1.318 -0.4291 -1.9343 -0.1596
 1683TIP3    H226541   2.252   1.291   1.189  1.5002  3.3310  0.9992
 1684TIP3   OH226542   6.714   0.625   5.483  0.0930  0.2023  0.3327
 1684TIP3    H126543   6.673   0.538   5.476  0.8500 -0.1016 -0.3595
 1684TIP3    H226544   6.786   0.612   5.544  0.7281  0.1422 -0.4196
 1685TIP3   OH226545   3.400   1.133   0.230  0.4759 -0.0691  0.5363
 1685TIP3    H126546   3.356   1.159   0.149  1.4251 -0.6873 -0.2127
 1685TIP3    H226547   3.329   1.112   0.291 -0.3047  2.6760  0.6799
 1686TIP3   OH226548   4.937   2.337   0.159  0.5274 -0.5252  0.5031
 1686TIP3    H126549   5.024   2.298   0.157  1.0124  0.4188 -2.8082
 1686TIP3    H226550   4.914   2.350   0.067 -2.8381 -0.0637  1.2719
 1687TIP3   OH226551   4.035   0.140  12.116  0.3241  0.1354 -1.1069
 1687TIP3    H126552   3.956   0.103  12.077  0.0893  0.9064 -1.3900
 1687TIP3    H226553   4.014   0.149  12.209 -0.0459  0.6304 -1.2338
 1688TIP3   OH226554   5.503   3.090   0.493 -0.0526 -0.4120 -0.6609
 1688TIP3    H126555   5.478   3.003   0.525  1.0118 -0.5163 -0.0570
 1688TIP3    H226556   5.584   3.075   0.444  0.7553  0.3727  0.3815
 1689TIP3   OH226557   3.433   5.551  10.901  0.2173 -0.1544 -0.0589
 1689TIP3    H126558   3.342   5.582  10.912  0.2603  0.2691 -0.8305
 1689TIP3    H226559   3.429   5.458  10.919 -0.1027  0.1036  1.3620
 1690TIP3   OH226560   2.366   5.211   3.359  0.5450 -0.4820  0.1585
 1690TIP3    H126561   2.444   5.218   3.414 -0.3009  0.5183  1.2739
 1690TIP3    H226562   2.301   5.169   3.415  0.6302 -2.6097 -1.2038
 1691TIP3   OH226563   2.590   3.534   0.995  0.0511 -0.0350  0.1295
 1691TIP3    H126564   2.500   3.523   0.964  0.1920  2.7401 -1.6530
 1691TIP3    H226565   2.583   3.538   1.090 -2.0667  2.1261 -0.0231
 1692TIP3   OH226566   1.977   0.051  15.832 -0.3955  0.1805 -0.0841
 1692TIP3    H126567   1.970  -0.017  15.766 -0.7780  0.2931 -0.1630
 1692TIP3    H226568   1.890   0.092  15.834 -0.3626  0.2363  0.4228
 1693TIP3   OH226569   5.746   3.587   2.813  0.1119  0.0012 -0.0847
 1693TIP3    H126570   5.816   3.645   2.842  0.6015 -0.9406  0.7004
 1693TIP3    H226571   5.780   3.499   2.828 -0.6037 -0.4965 -1.2562
 1694TIP3   OH226572   0.804   4.739   3.718 -0.5948  0.2119  0.3556
 1694TIP3    H126573   0.747   4.709   3.647  0.1270  1.4870 -0.8039
 1694TIP3    H226574   0.832   4.658   3.762  1.0206 -0.9022 -2.4362
 1695TIP3   OH226575   5.888   3.804  16.102  0.0297  0.0151 -0.3726
 1695TIP3    H126576   5.870   3.854  16.181  1.8226 -0.4517  0.3751
 1695TIP3    H226577   5.803   3.767  16.077 -0.6236  0.3943  1.1631
 1696TIP3   OH226578   1.995   3.112   5.367 -0.2865  0.9445  0.4304
 1696TIP3    H126579   1.906   3.146   5.358  0.7409  3.2646 -3.3341
 1696TIP3    H226580   2.045   3.185   5.402  0.3159 -0.1561  1.9587
 1697TIP3   OH226581   3.841   4.474  14.207  0.0584  0.9768  0.6505
 1697TIP3    H126582   3.889   4.391  14.203 -0.1112  0.5633  4.1048
 1697TIP3    H226583   3.753   4.452  14.178  0.3068  0.2385  0.4367
 1698TIP3   OH226584   0.604   3.415  12.782  0.3263 -0.2612  1.0021
 1698TIP3    H126585   0.671   3.481  12.762 -0.1057  0.0521  0.5679
 1698TIP3    H226586   0.595   3.365  12.701 -2.6108  2.0465 -0.3044
 1699TIP3   OH226587   0.236   3.270   4.416  0.1112  0.0838 -0.0216
 1699TIP3    H126588   0.264   3.274   4.325 -0.0446  1.4868 -0.0298
 1699TIP3    H226589   0.301   3.322   4.463  1.8986 -2.9589  1.1773
 1700TIP3   OH226590   0.739   2.998  14.096 -0.3032  0.1270  0.3707
 1700TIP3    H126591   0.689   2.918  14.114  1.2641 -0.5865  1.8582
 1700TIP3    H226592   0.819   2.967  14.054  0.6047  0.8063  1.5246
 1701TIP3   OH226593   1.162   0.527  13.022  0.3415  0.1549 -0.4757
 1701TIP3    H126594   1.083   0.574  12.995 -0.4362 -0.8562 -0.0153
 1701TIP3    H226595   1.138   0.483  13.103  1.9264  1.2398  0.6490
 1702TIP3   OH226596   0.757   2.909  13.720 -0.3562  0.5672  0.0272
 1702TIP3    H126597   0.666   2.922  13.744 -0.2651 -0.6034  1.1476
 1702TIP3    H226598   0.754   2.869  13.633 -1.1397 -2.4662  1.3085
 1703TIP3   OH226599   4.294   4.840   1.086 -0.1186 -0.6421  0.1903
 1703TIP3    H126600   4.239   4.764   1.105  0.7017 -0.9311  1.5592
 1703TIP3    H226601   4.324   4.827   0.996 -3.5484  0.3578 -1.2780
 1704TIP3   OH226602   4.940   5.003   1.336  0.1237  0.8029 -0.2327
 1704TIP3    H126603   4.955   5.066   1.406  1.8389  1.0218 -0.7448
 1704TIP3    H226604   5.016   5.012   1.278  0.0621 -1.1996 -0.7228
 1705TIP3   OH226605   6.623   4.877   4.532  0.1202 -0.3841  0.0501
 1705TIP3    H126606   6.666   4.864   4.616  0.1837 -0.3760  0.0188
 1705TIP3    H226607   6.530   4.879   4.552  0.1707  0.5223  0.2452
 1706TIP3   OH226608   6.535   4.480  16.058 -0.1401 -0.0443 -0.6443
 1706TIP3    H126609   6.457   4.534  16.073  0.4351  0.7148 -0.2722
 1706TIP3    H226610   6.502   4.399  16.021 -0.9711  0.9022 -2.0779
 1707TIP3   OH226611   2.344   2.839  11.959  0.6652  0.1505 -0.4460
 1707TIP3    H126612   2.391   2.911  12.002  0.1481  0.9241 -1.1389
 1707TIP3    H226613   2.253   2.852  11.986  0.4933  0.0486 -0.9705
 1708TIP3   OH226614   4.940   0.611   0.285  0.1219  0.3636  0.1612
 1708TIP3    H126615   4.867   0.671   0.272 -0.3651 -0.2665 -0.0896
 1708TIP3    H226616   4.971   0.592   0.196  0.7207  0.7826  0.2774
 1709TIP3   OH226617   1.135   1.208   6.138  0.1682  0.1854 -0.2951
 1709TIP3    H126618   1.126   1.303   6.133  0.0138  0.2345  0.7615
 1709TIP3    H226619   1.098   1.184   6.223 -1.3159 -1.0069 -1.2132
 1710TIP3   OH226620   4.694   2.244   1.288  0.0167  0.1629 -0.3291
 1710TIP3    H126621   4.784   2.272   1.273  0.1817  0.2681  0.7788
 1710TIP3    H226622   4.702   2.154   1.321 -0.3759 -0.3399 -1.5155
 1711TIP3   OH226623   3.745   4.139  16.052  0.2272 -0.0198 -0.2954
 1711TIP3    H126624   3.818   4.154  15.993  0.7964 -0.3173  0.3181
 1711TIP3    H226625   3.731   4.224  16.095 -0.3042  0.2445 -0.9701
 1712TIP3   OH226626   1.852   0.646   3.192 -0.2763 -0.3959 -0.3810
 1712TIP3    H126627   1.761   0.628   3.218 -0.2255 -0.0744  0.0274
 1712TIP3    H226628   1.844   0.709   3.121 -0.3415  0.4765  0.3868
 1713TIP3   OH226629   6.625   0.872   6.722  0.3295  0.2782  0.4070
 1713TIP3    H126630   6.588   0.856   6.809  1.1998  0.0231  0.7448
 1713TIP3    H226631   6.661   0.787   6.696 -1.0412  0.0131 -0.7709
 1714TIP3   OH226632   2.637   3.325   1.660 -0.5512  0.2521 -0.0427
 1714TIP3    H126633   2.690   3.246   1.651 -1.6924 -0.7209  1.1945
 1714TIP3    H226634   2.672   3.369   1.738 -0.8275  0.1998  0.1131
 1715TIP3   OH226635   1.356   5.776   5.876 -0.3618 -0.1408  0.0145
 1715TIP3    H126636   1.302   5.848   5.908  2.2618  1.3465  1.5213
 1715TIP3    H226637   1.446   5.805   5.892  0.9300 -2.4698 -2.2556
 1716TIP3   OH226638   2.826   5.819  14.760 -0.2707  0.1161  0.0495
 1716TIP3    H126639   2.756   5.819  14.824 -0.3569  0.9498 -0.0329
 1716TIP3    H226640   2.893   5.762  14.797  0.0986  1.3385  1.3507
 1717TIP3   OH226641   6.645   3.869  15.676  0.6032  0.2161  0.5843
 1717TIP3    H126642   6.585   3.795  15.665  1.4530 -0.3402 -0.4891
 1717TIP3    H226643   6.617   3.910  15.758 -1.5866  0.3229 -0.1444
 1718TIP3   OH226644   0.520   1.316   0.885 -0.1091  0.3231 -0.1919
 1718TIP3    H126645   0.602   1.267   0.891 -1.3113 -1.7355  0.1760
 1718TIP3    H226646   0.509   1.333   0.791  0.3851  0.0097 -0.3113
 1719TIP3   OH226647   3.915   1.387   3.566 -0.5499 -0.5078  0.1520
 1719TIP3    H126648   3.938   1.397   3.658 -1.3807 -1.4446  0.4818
 1719TIP3    H226649   3.933   1.295   3.546 -0.8980 -0.4495 -0.4626
 1720TIP3   OH226650   4.942   3.277  14.693 -0.0518  0.1218 -0.0665
 1720TIP3    H126651   4.935   3.189  14.730  1.5683  0.4137  1.0573
 1720TIP3    H226652   4.997   3.265  14.615  1.8197  0.3347  1.1387
 1721TIP3   OH226653   4.755   1.796   1.997 -0.1297 -0.0181 -0.2778
 1721TIP3    H126654   4.702   1.848   1.937 -2.1980  0.4733  1.8187
 1721TIP3    H226655   4.738   1.705   1.972 -1.5527  0.1548 -0.0458
 1722TIP3   OH226656   6.028   2.997  14.224 -0.0717 -0.2699 -0.1549
 1722TIP3    H126657   5.995   2.921  14.177  0.4224 -1.5074  1.4242
 1722TIP3    H226658   5.969   3.068  14.198 -1.0008 -1.3365 -1.0873
 1723TIP3   OH226659   1.860   4.472   1.786  0.7631  0.5032  0.0801
 1723TIP3    H126660   1.949   4.464   1.822  1.4500  0.2337 -1.6187
 1723TIP3    H226661   1.871   4.520   1.704 -0.6857  0.5230 -0.1297
 1724TIP3   OH226662   5.241   0.076   2.972  0.0955  0.3795 -0.5531
 1724TIP3    H126663   5.235   0.086   3.067  1.5048 -1.6419 -0.1798
 1724TIP3    H226664   5.231   0.164   2.937  2.6197  1.6509  1.6539
 1725TIP3   OH226665   1.475   2.495  13.848 -0.1604  0.6434 -0.7477
 1725TIP3    H126666   1.385   2.493  13.816 -0.0750 -1.2114 -0.9556
 1725TIP3    H226667   1.507   2.405  13.837  1.8094  1.3155 -0.9525
 1726TIP3   OH226668   1.762   6.122  16.095  0.1052 -0.0359  0.0430
 1726TIP3    H126669   1.717   6.038  16.103  0.2174 -0.1623 -0.6218
 1726TIP3    H226670   1.738   6.170  16.174 -1.6364  0.1244 -0.5550
 1727TIP3   OH226671   3.609   4.902   2.355  0.2910 -0.4783  0.0156
 1727TIP3    H126672   3.558   4.912   2.275 -0.1905 -0.4190  0.3262
 1727TIP3    H226673   3.655   4.819   2.344 -1.8915 -1.9157  0.8038
 1728TIP3   OH226674   6.672   6.138   2.338  0.1627 -0.0111 -0.0432
 1728TIP3    H126675   6.716   6.057   2.364 -0.4024 -0.7616 -1.3485
 1728TIP3    H226676   6.623   6.164   2.416 -3.3140 -3.4185 -0.7830
 1729TIP3   OH226677   0.863   2.216  12.992 -0.0085 -0.3364 -0.1066
 1729TIP3    H126678   0.894   2.126  13.004  1.0531  0.1381  0.9808
 1729TIP3    H226679   0.921   2.269  13.047 -0.6452  1.0139 -0.6812
 1730TIP3   OH226680   3.307   3.508   2.727 -0.4294 -0.2660  0.0794
 1730TIP3    H126681   3.303   3.414   2.748 -1.8736 -0.5453 -1.3173
 1730TIP3    H226682   3.265   3.551   2.801 -0.5525 -0.7811  0.3130
 1731TIP3   OH226683   1.527   0.593   3.664 -0.6387  0.1718  0.6394
 1731TIP3    H126684   1.506   0.626   3.751 -0.4662  0.8553  0.4306
 1731TIP3    H226685   1.541   0.671   3.611 -0.3194 -0.2371  0.0988
 1732TIP3   OH226686   1.111   2.683  13.939  0.3957  0.2832  0.1227
 1732TIP3    H126687   1.120   2.587  13.941 -0.0246  0.2587  1.7870
 1732TIP3    H226688   1.201   2.715  13.933  0.7802 -0.2051  2.4143
 1733TIP3   OH226689   4.318   1.656  11.743  0.2725  0.3328  0.7132
 1733TIP3    H126690   4.322   1.739  11.790 -1.5935  0.4326  0.7624
 1733TIP3    H226691   4.259   1.673  11.670  1.3449 -0.4585 -0.3758
 1734TIP3   OH226692   4.220   0.049  10.477  0.0255 -0.0470  0.3330
 1734TIP3    H126693   4.196  -0.008  10.549 -1.2787  0.5190  0.3808
 1734TIP3    H226694   4.306   0.018  10.449  0.4223 -0.4652  1.9240
 1735TIP3   OH226695   3.886   5.626  13.312  0.9561 -0.4786 -0.5449
 1735TIP3    H126696   3.957   5.690  13.327  0.6715  0.2060 -1.9443
 1735TIP3    H226697   3.825   5.672  13.255 -0.2683 -1.3305  0.0444
 1736TIP3   OH226698   3.056   2.077   5.152  0.0497 -0.1039 -0.0227
 1736TIP3    H126699   2.969   2.082   5.192  0.6402  1.9644  1.1974
 1736TIP3    H226700   3.072   1.983   5.141 -2.0660 -0.5622  0.2767
 1737TIP3   OH226701   2.356   3.292  10.749  0.2697  0.3493 -0.7672
 1737TIP3    H126702   2.346   3.383  10.721  0.3888  0.1850 -1.3574
 1737TIP3    H226703   2.393   3.247  10.672 -1.1950 -0.5104 -1.0045
 1738TIP3   OH226704   1.535   1.001   0.933  0.2112  0.1611 -0.5743
 1738TIP3    H126705   1.616   1.047   0.911  0.8444 -0.3988  0.5374
 1738TIP3    H226706   1.496   1.054   1.003  1.1631 -1.1649  1.0261
 1739TIP3   OH226707   4.913   2.290   5.016 -0.1326  0.3292  0.3674
 1739TIP3    H126708   4.949   2.204   5.037 -0.0660 -0.0433 -1.1848
 1739TIP3    H226709   4.989   2.342   4.991 -0.4685 -0.1904 -2.0072
 1740TIP3   OH226710   5.375   5.293   5.158 -0.2534  0.1756 -0.5030
 1740TIP3    H126711   5.317   5.267   5.229  0.7779  0.4346  0.4581
 1740TIP3    H226712   5.350   5.237   5.084 -0.6229 -0.8549  0.3870
 1741TIP3   OH226713   2.246   5.536  11.436 -0.0379 -0.3708 -0.3871
 1741TIP3    H126714   2.330   5.576  11.457 -0.4970 -0.7507  2.7596
 1741TIP3    H226715   2.200   5.602  11.384  1.0828  1.1414  0.4546
 1742TIP3   OH226716   6.655   0.508   1.339  0.0332  0.3458 -0.4119
 1742TIP3    H126717   6.593   0.578   1.356  1.0089  0.8479  1.3234
 1742TIP3    H226718   6.647   0.449   1.414  1.0223 -0.0463 -0.5958
 1743TIP3   OH226719   2.273   6.374  13.835 -0.2235  0.2340 -0.4855
 1743TIP3    H126720   2.317   6.318  13.772  1.2536  2.0188 -1.1218
 1743TIP3    H226721   2.226   6.439  13.782 -1.0834  0.2349  0.2437
 1744TIP3   OH226722   2.242   4.220  14.016 -0.2436 -0.7738 -0.2057
 1744TIP3    H126723   2.214   4.311  14.000  1.0691 -0.3648 -0.2596
 1744TIP3    H226724   2.187   4.168  13.957 -0.8145  0.0091 -0.3868
 1745TIP3   OH226725   2.088   4.107   1.558  0.1406 -0.8797 -0.2141
 1745TIP3    H126726   2.155   4.079   1.496  1.4487 -0.3957  0.9315
 1745TIP3    H226727   2.120   4.077   1.643 -0.0944  1.0512  0.6157
 1746TIP3   OH226728   5.274   1.116   3.685 -0.1288 -0.1884  0.3824
 1746TIP3    H126729   5.201   1.165   3.648 -0.5468 -1.7929 -1.0478
 1746TIP3    H226730   5.269   1.030   3.643  2.3628 -0.4636  0.4993
 1747TIP3   OH226731   2.987   5.469   4.635 -0.0421 -0.0039 -0.2816
 1747TIP3    H126732   3.079   5.471   4.661 -0.8107  0.2250  2.8102
 1747TIP3    H226733   2.962   5.562   4.628 -0.2766 -0.0546 -0.1293
 1748TIP3   OH226734   1.351   3.785   2.829  0.4193  0.2599 -0.3567
 1748TIP3    H126735   1.372   3.748   2.743 -0.8096 -0.2658 -0.4495
 1748TIP3    H226736   1.300   3.717   2.873 -0.3388  1.1373  0.1742
 1749TIP3   OH226737   3.871   4.886  15.166 -0.4511  0.1626  0.5039
 1749TIP3    H126738   3.881   4.807  15.220  2.3948  0.5658  0.7068
 1749TIP3    H226739   3.891   4.958  15.225  0.2908  0.7838 -0.4700
 1750TIP3   OH226740   0.524   2.014  16.416  0.1787 -0.4033  0.5390
 1750TIP3    H126741   0.603   2.067  16.427  0.5027 -1.1793  2.2319
 1750TIP3    H226742   0.454   2.064  16.457  0.1537 -0.5384  0.6616
 1751TIP3   OH226743   1.198   0.473  12.562 -0.0164  0.5839  0.6363
 1751TIP3    H126744   1.121   0.469  12.619 -0.1833  1.1330  0.4509
 1751TIP3    H226745   1.205   0.565  12.537  0.6891  0.5374  0.6363
 1752TIP3   OH226746   5.181   2.168  15.866  0.8270  0.0070 -0.2191
 1752TIP3    H126747   5.097   2.167  15.913  0.0154 -1.2805 -1.5599
 1752TIP3    H226748   5.247   2.170  15.934 -0.2855  1.5568  0.8784
 1753TIP3   OH226749   6.513   2.091  16.272 -0.4923  0.2057  0.3187
 1753TIP3    H126750   6.573   2.023  16.302 -1.9049 -0.3546  2.0119
 1753TIP3    H226751   6.471   2.123  16.351 -1.2895  1.6950 -0.6644
 1754TIP3   OH226752   3.475   0.376   4.451 -0.0088  0.1999  0.3029
 1754TIP3    H126753   3.531   0.303   4.426 -0.5205  0.0295 -0.3534
 1754TIP3    H226754   3.408   0.336   4.507 -0.1453  0.2131  0.1468
 1755TIP3   OH226755   3.532   2.568  12.819 -0.0853 -0.0718  0.2774
 1755TIP3    H126756   3.476   2.574  12.742  0.3095 -0.8352 -0.0856
 1755TIP3    H226757   3.536   2.657  12.854 -0.5687  0.2069 -0.3691
 1756TIP3   OH226758   2.839   2.654  15.980  0.8502  0.0440  0.1877
 1756TIP3    H126759   2.876   2.654  15.892  1.2242  0.9015  0.3344
 1756TIP3    H226760   2.780   2.579  15.981  0.9592 -0.0667 -0.7421
 1757TIP3   OH226761   2.249   1.573   2.555  0.3022  0.1175 -0.3769
 1757TIP3    H126762   2.222   1.500   2.500 -0.2156 -0.7962  1.0623
 1757TIP3    H226763   2.344   1.578   2.542  0.2802 -0.5025 -0.8243
 1758TIP3   OH226764   1.212   2.752  16.268  0.4322  0.8151  0.1982
 1758TIP3    H126765   1.242   2.682  16.326  0.1948  1.4385  1.0888
 1758TIP3    H226766   1.129   2.720  16.234  1.6807 -0.5954 -1.7024
 1759TIP3   OH226767   1.857   3.368   6.046  0.4184 -0.3762  0.0969
 1759TIP3    H126768   1.866   3.454   6.088 -0.7246  0.6300 -1.6021
 1759TIP3    H226769   1.766   3.343   6.061  0.4274 -0.7240 -0.3905
 1760TIP3   OH226770   0.126   4.500  15.694  0.5877  0.0969  0.3420
 1760TIP3    H126771   0.211   4.544  15.691  0.8657 -0.3432  1.2331
 1760TIP3    H226772   0.112   4.483  15.787  0.3054 -1.3444  0.0538
 1761TIP3   OH226773   1.440   1.906   2.523  0.0161  0.3788 -0.3775
 1761TIP3    H126774   1.456   1.849   2.448  0.3092  0.3417 -0.2887
 1761TIP3    H226775   1.527   1.940   2.546  0.2200 -1.0409  1.0933
 1762TIP3   OH226776   0.498   6.335   0.410  0.7383  0.6239 -0.8064
 1762TIP3    H126777   0.438   6.267   0.381 -0.0926  1.0018 -0.0359
 1762TIP3    H226778   0.523   6.308   0.499 -0.5232  1.8897 -0.0299
 1763TIP3   OH226779   2.614   2.883   2.144  0.0761  0.0654 -0.1204
 1763TIP3    H126780   2.684   2.833   2.102  0.6705  0.2361  0.6428
 1763TIP3    H226781   2.546   2.889   2.077  1.2975  0.9981 -1.3621
 1764TIP3   OH226782   3.758   0.840   2.856 -0.8197 -0.0576 -0.2670
 1764TIP3    H126783   3.725   0.756   2.824 -0.3853 -0.0466 -0.7465
 1764TIP3    H226784   3.853   0.828   2.863 -0.6629  0.6345 -1.0806
 1765TIP3   OH226785   4.370   3.330  16.603 -1.0741  0.2134  0.3504
 1765TIP3    H126786   4.396   3.330  16.695  3.1175 -0.0445 -0.6583
 1765TIP3    H226787   4.451   3.342  16.554 -3.0300 -0.1848 -3.3937
 1766TIP3   OH226788   1.996   6.435  14.296  0.0851  0.0517  0.0730
 1766TIP3    H126789   1.995   6.363  14.359 -1.6073 -2.0577 -2.1994
 1766TIP3    H226790   2.049   6.503  14.339 -1.3154 -1.0146  3.9395
 1767TIP3   OH226791   1.373   3.502  16.362  0.8996  0.0848  0.5228
 1767TIP3    H126792   1.314   3.577  16.368  1.1123  0.2068  1.1975
 1767TIP3    H226793   1.407   3.505  16.273  1.1621  0.9903  0.6434
 1768TIP3   OH226794   1.837   0.044  16.991  0.0613 -0.0429 -0.3189
 1768TIP3    H126795   1.775  -0.024  17.017 -1.3054  1.2608 -0.0406
 1768TIP3    H226796   1.805   0.077  16.907  0.0554  1.0059  0.0746
 1769TIP3   OH226797   0.875   3.097  14.320 -0.3384  0.4302  0.2714
 1769TIP3    H126798   0.800   3.040  14.305 -0.9910  1.1808  0.5988
 1769TIP3    H226799   0.874   3.159  14.247 -0.7630  1.1887  0.9039
 1770TIP3   OH226800   3.171   4.657   5.940  0.4106 -0.3575  1.1218
 1770TIP3    H126801   3.088   4.694   5.909  1.3105  0.6096 -0.2317
 1770TIP3    H226802   3.159   4.563   5.934  0.0971 -0.2204 -1.0248
 1771TIP3   OH226803   6.766   5.936   4.228  0.1778  0.0982 -0.0994
 1771TIP3    H126804   6.673   5.922   4.211  0.3492 -0.3638 -0.6724
 1771TIP3    H226805   6.806   5.850   4.220  0.7403  0.3816 -0.3893
 1772TIP3   OH226806   6.048   2.025   4.098  0.1045  0.1028 -0.1984
 1772TIP3    H126807   6.004   1.943   4.118  0.1915  0.3211  0.9738
 1772TIP3    H226808   6.032   2.039   4.005 -0.2482 -1.0346 -0.3244
 1773TIP3   OH226809   6.731   5.955   3.544  0.4101  0.1532 -1.0495
 1773TIP3    H126810   6.788   5.945   3.468  0.1304 -0.1827 -1.2179
 1773TIP3    H226811   6.765   6.032   3.590  0.3863  0.5419 -1.6800
 1774TIP3   OH226812   5.227   2.250   0.137 -0.5345 -0.1482 -0.6021
 1774TIP3    H126813   5.296   2.243   0.071  0.7347 -0.3815  0.7038
 1774TIP3    H226814   5.256   2.194   0.209 -0.3240  2.4558  1.4808
 1775TIP3   OH226815   1.610   2.454  11.904 -0.4131 -0.3076  0.1513
 1775TIP3    H126816   1.690   2.403  11.901  0.4074  0.9063  0.4098
 1775TIP3    H226817   1.541   2.394  11.874  1.0140 -0.5489 -3.0643
 1776TIP3   OH226818   5.614   4.860  15.989  0.3693 -0.3985 -0.4902
 1776TIP3    H126819   5.594   4.771  15.959  1.7513 -1.2176  0.8616
 1776TIP3    H226820   5.680   4.892  15.927 -0.7193  0.0395 -1.4628
 1777TIP3   OH226821   0.951   2.497  13.164  0.7475  0.1758 -0.2178
 1777TIP3    H126822   0.995   2.508  13.080  3.2183  2.7009  1.2274
 1777TIP3    H226823   0.976   2.409  13.193  1.2539 -0.0773 -1.3779
 1778TIP3   OH226824   3.005   0.510  15.886  0.5125  0.0345  0.0960
 1778TIP3    H126825   3.096   0.482  15.896  0.2806 -0.7902 -0.0316
 1778TIP3    H226826   2.980   0.478  15.799 -0.2170 -0.6675  0.5534
 1779TIP3   OH226827   4.862   0.112   2.790 -0.2468  0.0394  0.5347
 1779TIP3    H126828   4.915   0.087   2.714 -0.5440 -0.2900  0.4335
 1779TIP3    H226829   4.782   0.061   2.781 -0.3401  0.1025  0.9992
 1780TIP3   OH226830   4.953   0.131  13.528 -0.2989  0.3888  0.6489
 1780TIP3    H126831   4.905   0.049  13.536 -0.1265  0.3325  1.1181
 1780TIP3    H226832   5.008   0.135  13.606  0.5244  0.4090  0.0919
 1781TIP3   OH226833   6.566   0.536   2.972  0.2337  0.2518 -0.6724
 1781TIP3    H126834   6.517   0.513   3.050  0.2416 -1.5217 -1.1495
 1781TIP3    H226835   6.622   0.609   2.999  0.3369 -0.4176  1.0090
 1782TIP3   OH226836   2.239   4.789   2.403  0.2018 -0.5405 -0.4929
 1782TIP3    H126837   2.191   4.848   2.345 -0.3168  0.3807  0.8188
 1782TIP3    H226838   2.208   4.812   2.491  2.9517  0.0429  0.4184
 1783TIP3   OH226839   4.180   5.888   4.513 -0.2804  0.1065 -0.0526
 1783TIP3    H126840   4.212   5.933   4.592 -1.6504  2.3928 -0.7037
 1783TIP3    H226841   4.257   5.842   4.479  0.8883  0.9026  1.3988
 1784TIP3   OH226842   3.344   3.931  14.705 -0.4930 -0.5681  0.7930
 1784TIP3    H126843   3.371   3.849  14.745  0.4696 -0.0865  1.1633
 1784TIP3    H226844   3.392   3.934  14.622  0.1944  0.0311  1.1966
 1785TIP3   OH226845   1.133   2.168  17.296  0.3755  0.1009  0.7440
 1785TIP3    H126846   1.210   2.176  17.352  0.4323  1.2489  0.5371
 1785TIP3    H226847   1.108   2.259  17.277 -1.3911 -0.2216  1.3043
 1786TIP3   OH226848   0.349   2.420   5.677 -0.3415 -0.1467  0.6211
 1786TIP3    H126849   0.312   2.507   5.686 -1.9330 -0.6689 -0.3129
 1786TIP3    H226850   0.443   2.434   5.664 -0.6330  1.4449  0.0801
 1787TIP3   OH226851   1.129   0.855  13.726  0.1882 -0.1753  0.0412
 1787TIP3    H126852   1.105   0.920  13.660 -0.3817  0.9254  1.2719
 1787TIP3    H226853   1.191   0.797  13.682 -0.9653 -0.1197 -1.7650
 1788TIP3   OH226854   0.675   3.449   4.575 -0.4017 -0.1493 -0.3374
 1788TIP3    H126855   0.707   3.531   4.612  2.2662 -2.3146  2.5967
 1788TIP3    H226856   0.752   3.406   4.539 -0.9186 -2.9180  1.5060
 1789TIP3   OH226857   5.282   6.194   0.162  0.0933 -0.4156  0.2714
 1789TIP3    H126858   5.211   6.134   0.140 -1.1583  1.0602  0.1659
 1789TIP3    H226859   5.239   6.272   0.198  1.5026  1.3087 -1.5551
 1790TIP3   OH226860   1.152   1.118  12.742  0.4546  0.6422 -0.3065
 1790TIP3    H126861   1.061   1.117  12.771  0.2427 -0.1892 -0.9622
 1790TIP3    H226862   1.148   1.103  12.648  1.2786  0.3556 -0.3058
 1791TIP3   OH226863   1.945   2.025   1.923  0.1439 -0.1172 -0.1910
 1791TIP3    H126864   1.912   2.024   1.833  0.8366  3.7189 -0.6640
 1791TIP3    H226865   1.897   2.096   1.965 -1.0896 -2.5892  2.9932
 1792TIP3   OH226866   2.494   4.183   6.505  0.3524 -0.3695  0.1341
 1792TIP3    H126867   2.418   4.131   6.482 -0.3701  1.0992 -0.9591
 1792TIP3    H226868   2.558   4.165   6.436  0.0113  0.3459 -0.3796
 1793TIP3   OH226869   2.633   2.239  17.209 -0.6697  0.0446  0.0245
 1793TIP3    H126870   2.597   2.287  17.284  1.5423  0.3363  0.9868
 1793TIP3    H226871   2.667   2.307  17.151  0.7782 -0.2339  0.4906
 1794TIP3   OH226872   6.793   1.820  16.086  1.0749 -0.0241 -0.0578
 1794TIP3    H126873   6.816   1.771  16.165  0.6199 -0.1099  0.0246
 1794TIP3    H226874   6.697   1.825  16.088  1.1326  1.5296  0.3428
 1795TIP3   OH226875   6.602   5.628  16.846  0.0631  0.3785  0.0119
 1795TIP3    H126876   6.525   5.625  16.789  0.1943 -0.6695 -0.1305
 1795TIP3    H226877   6.658   5.558  16.813  1.0512  1.0858  0.1611
 1796TIP3   OH226878   1.926   3.630   4.160 -0.0630  0.5988 -0.4448
 1796TIP3    H126879   1.838   3.668   4.156 -0.9472 -1.2489  0.3687
 1796TIP3    H226880   1.927   3.564   4.091  0.4812  0.2306 -0.0921
 1797TIP3   OH226881   2.798   4.749   4.159  0.1136 -0.5025 -0.1686
 1797TIP3    H126882   2.838   4.787   4.237 -0.2719 -1.5818  0.5866
 1797TIP3    H226883   2.871   4.737   4.098  0.8748 -1.8328  0.9361
 1798TIP3   OH226884   5.488   2.525   1.664 -0.2192  0.2780  0.2596
 1798TIP3    H126885   5.450   2.439   1.683  0.9343 -0.3564 -0.2275
 1798TIP3    H226886   5.581   2.515   1.682  0.1552  1.0201 -1.1275
 1799TIP3   OH226887   4.077   5.453   4.223  0.2777  0.3275 -0.0033
 1799TIP3    H126888   4.071   5.481   4.132  1.8225  0.6183 -0.0409
 1799TIP3    H226889   3.991   5.415   4.242 -0.7974  2.1592 -0.9141
 1800TIP3   OH226890   0.055   6.572  16.820 -0.2296 -0.8140 -0.2032
 1800TIP3    H126891   0.000   6.645  16.850  2.1679  0.9907  0.0978
 1800TIP3    H226892   0.031   6.561  16.728  0.5822  1.6451 -0.7816
 1801TIP3   OH226893   2.363   5.374  15.621 -0.2756  0.1023  0.0261
 1801TIP3    H126894   2.411   5.410  15.546  0.2469 -0.2093  0.2090
 1801TIP3    H226895   2.430   5.362  15.688 -0.2305 -2.2069 -0.3700
 1802TIP3   OH226896   1.461   1.866   2.882 -0.7459 -0.6266  0.4172
 1802TIP3    H126897   1.458   1.949   2.930  1.0259 -0.0989 -0.2799
 1802TIP3    H226898   1.516   1.809   2.936  0.1011 -0.4914 -0.2732
 1803TIP3   OH226899   2.200   5.764   3.034  0.5484  0.7843 -0.2524
 1803TIP3    H126900   2.216   5.776   2.941 -0.0995  1.4785 -0.2767
 1803TIP3    H226901   2.193   5.669   3.044 -1.0467  0.7751 -1.1993
 1804TIP3   OH226902   2.698   0.494   1.852 -0.3758 -0.4003  0.2389
 1804TIP3    H126903   2.735   0.521   1.936  0.9940  2.5302 -1.1577
 1804TIP3    H226904   2.608   0.528   1.854 -0.1216  0.2942  0.2755
 1805TIP3   OH226905   1.674   0.426  14.033 -0.1821 -0.5003 -0.0011
 1805TIP3    H126906   1.589   0.432  13.990  0.0792 -0.2336 -0.4874
 1805TIP3    H226907   1.674   0.499  14.095 -0.4039 -0.6566  0.1906
 1806TIP3   OH226908   0.649   0.682  12.494  0.2592 -0.1286 -0.1172
 1806TIP3    H126909   0.554   0.682  12.484  0.0566 -0.6934  1.4938
 1806TIP3    H226910   0.683   0.668  12.406 -1.1604 -0.3305 -0.6505
 1807TIP3   OH226911   3.705   3.720   1.656  0.4275  0.3027 -0.1931
 1807TIP3    H126912   3.676   3.639   1.614 -0.4327 -0.1489  1.2151
 1807TIP3    H226913   3.735   3.692   1.742 -1.2670  1.6535  0.8919
 1808TIP3   OH226914   4.548   2.402  12.225  0.6320  0.2973  0.0908
 1808TIP3    H126915   4.541   2.484  12.177  0.5776  0.9592  1.1774
 1808TIP3    H226916   4.520   2.424  12.314  3.3172 -0.1706  1.1765
 1809TIP3   OH226917   1.479   6.557   0.358 -0.0791  0.6375 -0.2238
 1809TIP3    H126918   1.465   6.574   0.451  0.7468 -1.1415  0.2668
 1809TIP3    H226919   1.517   6.638   0.324  0.8816  0.8569  1.2853
 1810TIP3   OH226920   3.353   4.813  10.210 -0.3205 -0.9314  0.0506
 1810TIP3    H126921   3.396   4.790  10.292 -1.5630  1.8749  1.6376
 1810TIP3    H226922   3.399   4.891  10.180 -0.9394 -0.9799 -1.0652
 1811TIP3   OH226923   2.420   6.134  13.321 -0.6930 -0.6816 -0.1178
 1811TIP3    H126924   2.452   6.220  13.344  1.4852 -1.3978 -0.2671
 1811TIP3    H226925   2.425   6.131  13.225  0.4369 -1.3680 -0.0573
 1812TIP3   OH226926   0.986   0.865   0.959  0.8362  0.6194  0.1270
 1812TIP3    H126927   1.034   0.797   0.912  1.1174 -0.0016  1.2804
 1812TIP3    H226928   1.007   0.946   0.912  1.4350  0.0792 -0.5590
 1813TIP3   OH226929   2.528   2.943  17.210  0.3261 -0.0261  0.6709
 1813TIP3    H126930   2.462   2.985  17.265  1.2147 -1.0287  2.6045
 1813TIP3    H226931   2.512   2.849  17.221 -0.8007 -0.3337 -2.5237
 1814TIP3   OH226932   0.668   1.590   0.425 -0.3543  0.5147 -0.6670
 1814TIP3    H126933   0.720   1.623   0.498 -1.0912 -0.9005  0.5545
 1814TIP3    H226934   0.709   1.506   0.403 -0.8644  0.3716 -1.0804
 1815TIP3   OH226935   5.916   3.859  13.377 -0.3053  0.5639  0.1582
 1815TIP3    H126936   6.002   3.855  13.418 -1.8508 -3.6241  3.7130
 1815TIP3    H226937   5.858   3.893  13.445 -1.6773  2.9018 -2.0158
 1816TIP3   OH226938   5.921   2.473   2.677 -0.0967  0.1668  0.1115
 1816TIP3    H126939   5.896   2.510   2.762 -0.1100  0.4202 -0.0038
 1816TIP3    H226940   5.936   2.380   2.696 -1.7436 -0.1279  0.0524
 1817TIP3   OH226941   2.027   6.415  10.681 -0.4814  0.0041  0.2657
 1817TIP3    H126942   2.058   6.362  10.608 -2.3931 -0.7491 -0.0567
 1817TIP3    H226943   1.973   6.483  10.640  1.5487  1.9889  0.7092
 1818TIP3   OH226944   6.708   0.526  16.274  0.3023 -0.1610  0.7401
 1818TIP3    H126945   6.759   0.445  16.280 -0.1391 -0.5220 -0.2610
 1818TIP3    H226946   6.617   0.499  16.285 -0.0687 -0.1459 -1.6991
 1819TIP3   OH226947   4.880   0.137  15.717 -0.5162 -0.5128 -0.1214
 1819TIP3    H126948   4.885   0.071  15.648 -2.8573 -0.3239 -0.5636
 1819TIP3    H226949   4.910   0.093  15.796  0.0098 -1.4415 -0.8315
 1820TIP3   OH226950   5.914   5.493   1.973 -0.2352  0.4401 -0.0991
 1820TIP3    H126951   5.886   5.573   1.929 -4.1141 -0.4969  0.2502
 1820TIP3    H226952   5.940   5.434   1.902  1.3005  1.4845 -0.4505
 1821TIP3   OH226953   5.221   1.051  15.135  0.1932 -0.0528  0.2560
 1821TIP3    H126954   5.248   1.139  15.108  0.5187  0.0061  0.7719
 1821TIP3    H226955   5.303   1.005  15.151  0.0330 -0.5787 -0.4080
 1822TIP3   OH226956   1.116   5.604   1.054 -0.5802  1.0617  0.5501
 1822TIP3    H126957   1.143   5.523   1.010  0.7487  2.2050 -0.8928
 1822TIP3    H226958   1.026   5.587   1.082 -0.6089 -0.6404 -0.3950
 1823TIP3   OH226959   6.338   1.777   3.486 -0.3811  0.0530 -0.4650
 1823TIP3    H126960   6.340   1.689   3.523 -2.1810  0.0005 -0.3948
 1823TIP3    H226961   6.428   1.807   3.490 -0.2119 -0.5695  2.4866
 1824TIP3   OH226962   6.624   6.211  17.123 -0.0497 -0.5450  0.0929
 1824TIP3    H126963   6.564   6.275  17.162 -0.5145 -0.7560 -0.2628
 1824TIP3    H226964   6.683   6.264  17.069 -0.3615 -0.4030 -0.1131
 1825TIP3   OH226965   1.356   6.535  11.358 -0.0597 -0.2975  0.1288
 1825TIP3    H126966   1.363   6.470  11.428 -0.1643  0.8156  1.2066
 1825TIP3    H226967   1.307   6.607  11.397  0.4399  0.6328 -0.8950
 1826TIP3   OH226968   4.972   4.962  15.233 -0.1158 -0.0248 -0.2253
 1826TIP3    H126969   5.026   4.937  15.158 -1.3042 -0.9881 -0.7991
 1826TIP3    H226970   4.882   4.957  15.200 -0.6622 -0.4240  1.2556
 1827TIP3   OH226971   3.328   0.706  16.077 -0.6983 -0.1297  0.1309
 1827TIP3    H126972   3.407   0.653  16.064 -0.7441 -0.0465 -0.4753
 1827TIP3    H226973   3.304   0.737  15.990 -1.5577 -0.3802  0.2671
 1828TIP3   OH226974   1.407   2.948  12.248  0.4759 -0.0929 -0.0339
 1828TIP3    H126975   1.401   2.963  12.343  0.2420 -0.4886  0.0141
 1828TIP3    H226976   1.396   2.854  12.238  0.2686 -0.0210 -0.4750
 1829TIP3   OH226977   4.567   5.517   2.968  0.2514  0.2611  0.2124
 1829TIP3    H126978   4.529   5.531   2.882  0.9466 -0.2828 -0.1972
 1829TIP3    H226979   4.504   5.556   3.029 -0.1648  0.8030 -0.5451
 1830TIP3   OH226980   3.959   6.471  17.372 -0.3196  0.1575 -0.5202
 1830TIP3    H126981   3.981   6.393  17.424 -1.2190  0.2843  0.0748
 1830TIP3    H226982   3.863   6.468  17.365 -0.2278  0.1936 -2.1068
 1831TIP3   OH226983   6.598   6.073  10.936  0.6453  0.3115  0.1635
 1831TIP3    H126984   6.527   6.011  10.925  1.4154 -0.5696  0.0016
 1831TIP3    H226985   6.557   6.159  10.929 -0.7219 -0.1367  2.1249
 1832TIP3   OH226986   0.091   6.373   3.418  0.3558  0.5446 -0.3625
 1832TIP3    H126987   0.001   6.398   3.397 -0.2581 -2.7065 -2.3312
 1832TIP3    H226988   0.142   6.396   3.341 -0.1126 -3.0948 -1.9672
 1833TIP3   OH226989   2.933   4.950  13.197 -0.0264  0.2684  0.2349
 1833TIP3    H126990   3.014   4.925  13.241  0.1102  0.3620  0.0344
 1833TIP3    H226991   2.928   5.045  13.208  1.4600  0.7288 -2.3824
 1834TIP3   OH226992   2.516   2.428   6.533 -0.1047  0.3322 -0.3530
 1834TIP3    H126993   2.594   2.467   6.493  1.0313 -0.3553  1.0890
 1834TIP3    H226994   2.550   2.366   6.598 -1.7927  1.4715  1.7897
 1835TIP3   OH226995   5.453   3.707  17.087  0.2443 -0.0347 -0.6361
 1835TIP3    H126996   5.463   3.668  17.174 -0.7286  0.2282 -0.3970
 1835TIP3    H226997   5.483   3.797  17.097 -0.9803  0.3452 -0.2653
 1836TIP3   OH226998   2.021   2.742   2.882 -0.1393 -0.5147  0.3965
 1836TIP3    H126999   1.940   2.720   2.837  0.4406  1.7082 -1.9880
 1836TIP3    H227000   2.084   2.676   2.854 -0.6325 -1.1175  0.7038
 1837TIP3   OH227001   4.653   6.117   4.796 -0.3565 -0.3274  0.0412
 1837TIP3    H127002   4.718   6.108   4.726  0.6819  0.1141  0.9047
 1837TIP3    H227003   4.683   6.057   4.864  0.9349  2.0237  1.7009
 1838TIP3   OH227004   0.382   6.049  16.634  0.3434 -0.1977 -0.3556
 1838TIP3    H127005   0.368   6.108  16.560  0.7369 -0.9543 -1.0565
 1838TIP3    H227006   0.300   6.000  16.641 -0.4436  1.2313  1.0053
 1839TIP3   OH227007   1.783   2.142  14.318 -0.2618  0.2999 -0.2102
 1839TIP3    H127008   1.773   2.047  14.327  0.0440  0.1120 -1.5909
 1839TIP3    H227009   1.694   2.175  14.309 -0.3047 -0.1074 -1.6377
 1840TIP3   OH227010   4.975   5.939   1.626  0.4980 -0.7281 -0.0335
 1840TIP3    H127011   4.887   5.958   1.659  0.9515 -1.1580  1.5614
 1840TIP3    H227012   5.032   5.956   1.701  2.0831  1.8330 -1.6839
 1841TIP3   OH227013   0.329   6.378  11.816 -0.3633 -0.1696  0.2190
 1841TIP3    H127014   0.377   6.334  11.886  0.2801  0.3851  0.1254
 1841TIP3    H227015   0.362   6.468  11.816 -1.4147  0.2336  0.1736
 1842TIP3   OH227016   1.571   5.476  14.037  0.3965 -0.1424 -0.3736
 1842TIP3    H127017   1.562   5.503  14.129 -0.0289  3.0823 -1.2456
 1842TIP3    H227018   1.627   5.398  14.041 -2.3800 -2.3005  2.8287
 1843TIP3   OH227019   4.902   0.242   4.776  0.0758 -0.0373  0.3162
 1843TIP3    H127020   4.961   0.184   4.824  1.1869 -0.2865 -1.2592
 1843TIP3    H227021   4.907   0.326   4.821  0.9844 -0.2931  0.7001
 1844TIP3   OH227022   1.013   5.329  17.123  0.0673 -0.2835 -0.3324
 1844TIP3    H127023   1.059   5.412  17.107  0.5754 -0.8764 -2.3005
 1844TIP3    H227024   1.034   5.275  17.046 -1.4887 -1.6774  0.1568
 1845TIP3   OH227025   1.623   3.411   1.561  0.7214 -0.1315  0.7327
 1845TIP3    H127026   1.655   3.346   1.498 -0.8523  1.8360 -2.3307
 1845TIP3    H227027   1.634   3.495   1.516 -3.4056  1.1356  1.7126
 1846TIP3   OH227028   4.540   1.589  10.635  0.5467 -0.3971  0.6161
 1846TIP3    H127029   4.552   1.636  10.717  0.1747 -0.7232  0.8600
 1846TIP3    H227030   4.602   1.516  10.639  0.2408 -0.6496  0.7888
 1847TIP3   OH227031   2.102   0.342   1.169 -0.7522  0.3682 -0.5619
 1847TIP3    H127032   2.184   0.294   1.185  1.2526  3.2714 -1.4748
 1847TIP3    H227033   2.061   0.295   1.097 -0.0729 -1.3040  0.0793
 1848TIP3   OH227034   3.399   0.630   0.204  0.0475  0.0464  0.0857
 1848TIP3    H127035   3.333   0.649   0.137 -0.4722 -1.5694  0.0794
 1848TIP3    H227036   3.483   0.646   0.161 -0.2886  2.8191  0.3145
 1849TIP3   OH227037   4.349   3.214  11.790 -0.6756 -0.1460  0.3009
 1849TIP3    H127038   4.338   3.143  11.727  0.5840  0.6682 -0.8933
 1849TIP3    H227039   4.376   3.171  11.871 -0.4779 -1.0691 -0.2467
 1850TIP3   OH227040   2.855   1.886   6.632  0.7314 -0.8089 -0.0355
 1850TIP3    H127041   2.786   1.819   6.631  1.6801 -1.8430  1.0648
 1850TIP3    H227042   2.928   1.844   6.676  2.3919 -0.0284 -1.9026
 1851TIP3   OH227043   0.003   1.116  15.105 -0.3991 -0.0425  0.5927
 1851TIP3    H127044   0.028   1.026  15.086  1.8974  0.8219 -1.0364
 1851TIP3    H227045  -0.050   1.142  15.029  0.1467  0.3788  0.3482
 1852TIP3   OH227046   0.387   3.510   3.558 -0.3226 -0.6466  0.1361
 1852TIP3    H127047   0.362   3.434   3.506 -1.4468 -1.1757  1.3801
 1852TIP3    H227048   0.369   3.585   3.501 -0.2186 -1.2605 -0.7214
 1853TIP3   OH227049   1.180   6.583   4.764 -0.2686 -0.1302  0.7041
 1853TIP3    H127050   1.167   6.500   4.718  0.4909 -0.6091  1.3366
 1853TIP3    H227051   1.248   6.628   4.714  0.9653 -0.8974  1.6539
 1854TIP3   OH227052   0.806   3.219   3.828 -0.2068  0.1252 -0.0007
 1854TIP3    H127053   0.752   3.294   3.852 -0.3775 -0.3733  1.2297
 1854TIP3    H227054   0.746   3.160   3.781  0.2479  1.3266 -2.2155
 1855TIP3   OH227055   2.535   4.918   6.798  0.8117 -0.9165 -0.2810
 1855TIP3    H127056   2.453   4.876   6.825  0.4881  0.3337  0.7651
 1855TIP3    H227057   2.524   4.935   6.705  0.1850 -1.4280 -0.3053
 1856TIP3   OH227058   1.581   5.618   0.063 -0.1509 -0.3452 -0.1502
 1856TIP3    H127059   1.560   5.585  -0.024  0.9802 -0.9027 -0.2314
 1856TIP3    H227060   1.554   5.549   0.123  1.3791 -1.0961 -0.2608
 1857TIP3   OH227061   2.378   4.807  15.438 -0.2358  0.6120  0.3271
 1857TIP3    H127062   2.457   4.753  15.428 -0.4529  0.4652 -0.6609
 1857TIP3    H227063   2.365   4.846  15.352 -2.5930 -1.2143 -0.2186
 1858TIP3   OH227064   0.735   5.962  14.179 -0.2063 -0.2490 -0.4791
 1858TIP3    H127065   0.795   6.018  14.230 -1.8581  0.0421  1.2620
 1858TIP3    H227066   0.706   5.895  14.241 -1.1787 -0.7732 -1.4667
 1859TIP3   OH227067   6.628   5.227   1.733 -0.1532 -0.5085  0.0098
 1859TIP3    H127068   6.636   5.131   1.736  0.2939 -0.4591  0.4285
 1859TIP3    H227069   6.714   5.258   1.707  0.1484 -0.1478  1.3552
 1860TIP3   OH227070   2.161   3.989   1.116 -0.3734 -0.0821 -0.4703
 1860TIP3    H127071   2.124   3.970   1.030 -2.5404 -1.3324  0.6426
 1860TIP3    H227072   2.128   3.919   1.172  0.9689  0.6971  1.4066
 1861TIP3   OH227073   4.702   4.030   1.543 -0.0329  0.6962 -0.2144
 1861TIP3    H127074   4.735   3.946   1.510  0.1870 -0.0194  1.6908
 1861TIP3    H227075   4.662   4.008   1.627  0.3307  2.5701  0.4875
 1862TIP3   OH227076   4.548   5.284   0.590 -0.1070 -0.0147  0.1485
 1862TIP3    H127077   4.496   5.360   0.616 -0.0891 -0.3025  1.0596
 1862TIP3    H227078   4.585   5.251   0.672 -0.8918 -1.5784 -0.0940
 1863TIP3   OH227079   4.654   2.750  12.284  0.0735  0.2337 -0.0857
 1863TIP3    H127080   4.696   2.749  12.198 -0.8102  2.2911 -0.6023
 1863TIP3    H227081   4.727   2.755  12.346  0.7302  2.5687 -0.9226
 1864TIP3   OH227082   1.917   5.075  17.310  0.4623 -0.0240 -0.5325
 1864TIP3    H127083   2.005   5.113  17.304  0.4531  0.2489  0.8467
 1864TIP3    H227084   1.860   5.141  17.271  0.2456  2.2385  3.1809
 1865TIP3   OH227085   6.430   2.001   6.894  0.0981 -0.3919 -0.7555
 1865TIP3    H127086   6.457   2.070   6.833  0.1703  0.5381  0.2917
 1865TIP3    H227087   6.443   1.920   6.846  2.2978  0.1592 -1.2221
 1866TIP3   OH227088   6.048   3.340   5.015  0.0699  0.4705  0.0263
 1866TIP3    H127089   6.121   3.400   4.999 -0.2201  0.9417  0.4421
 1866TIP3    H227090   6.069   3.263   4.963  0.1077  1.1917 -1.0709
 1867TIP3   OH227091   1.440   1.170  11.500  0.2741 -0.0440  0.6987
 1867TIP3    H127092   1.504   1.104  11.473 -3.2581 -2.5771 -2.7113
 1867TIP3    H227093   1.447   1.240  11.435 -1.7087 -1.4619 -1.2070
 1868TIP3   OH227094   6.358   1.526   2.232  0.1514 -0.5743 -0.0478
 1868TIP3    H127095   6.444   1.569   2.236 -0.9750  1.9220 -0.6691
 1868TIP3    H227096   6.365   1.465   2.158  1.2769 -0.1752 -0.2946
 1869TIP3   OH227097   1.510   1.591   1.353  0.2152 -0.3437  0.1913
 1869TIP3    H127098   1.599   1.625   1.364 -0.4088  2.4045 -1.9979
 1869TIP3    H227099   1.458   1.639   1.418 -0.2499  1.1110 -1.1935
 1870TIP3   OH227100   1.401   4.308  14.927 -0.3325 -0.4229  0.2622
 1870TIP3    H127101   1.306   4.312  14.912 -0.1748 -0.6683 -0.8741
 1870TIP3    H227102   1.437   4.378  14.872  0.0639  0.4363  1.5725
 1871TIP3   OH227103   5.819   2.459  16.989  0.4019 -1.1526 -0.4072
 1871TIP3    H127104   5.831   2.538  16.936 -0.7202 -0.9645 -0.4079
 1871TIP3    H227105   5.784   2.394  16.927 -0.1408 -1.1776 -0.0786
 1872TIP3   OH227106   0.151   5.249   1.137  0.0173  0.6334  0.2046
 1872TIP3    H127107   0.067   5.295   1.132 -0.0984  0.3043 -1.5886
 1872TIP3    H227108   0.130   5.159   1.113  0.6272  0.1386  1.4444
 1873TIP3   OH227109   5.770   0.621  13.866  0.3422  0.7521  0.1501
 1873TIP3    H127110   5.769   0.707  13.824 -1.1681  1.2912  1.1851
 1873TIP3    H227111   5.848   0.622  13.921 -0.3453  2.0198  1.1680
 1874TIP3   OH227112   6.398   5.897  13.841 -0.1445  0.4848  0.0790
 1874TIP3    H127113   6.389   5.990  13.817  1.2253  0.6009 -0.1002
 1874TIP3    H227114   6.400   5.851  13.757  0.9911  0.5038  0.0786
 1875TIP3   OH227115   6.105   1.394  15.144 -0.1904 -0.5407 -0.2807
 1875TIP3    H127116   6.090   1.470  15.088  0.2461 -0.4277 -0.2507
 1875TIP3    H227117   6.144   1.430  15.224 -0.3695 -0.7507 -0.0980
 1876TIP3   OH227118   2.183   4.757   5.084  0.2448  0.9989  0.6505
 1876TIP3    H127119   2.279   4.747   5.090  0.2427  1.3491  1.4429
 1876TIP3    H227120   2.153   4.747   5.175 -0.5074  0.5749  0.3657
 1877TIP3   OH227121   5.147   5.255  17.080 -0.9539  0.4476 -0.0956
 1877TIP3    H127122   5.222   5.278  17.025  0.2658  0.2752  1.4356
 1877TIP3    H227123   5.177   5.270  17.170 -2.1365 -1.3770  0.6641
 1878TIP3   OH227124   1.353   0.960  11.964  0.5865 -0.3497  0.0990
 1878TIP3    H127125   1.374   0.952  11.871 -1.3635 -0.5516 -0.3696
 1878TIP3    H227126   1.277   0.903  11.977  0.0489  0.6156  1.5405
 1879TIP3   OH227127   2.565   0.735  15.840  0.2101 -0.4893  0.0535
 1879TIP3    H127128   2.608   0.761  15.922 -1.0162  0.0930  0.5310
 1879TIP3    H227129   2.475   0.764  15.850 -0.4453 -2.1432 -0.7205
 1880TIP3   OH227130   0.077   5.000   1.827 -0.2948 -0.1595 -0.4086
 1880TIP3    H127131   0.103   5.051   1.750  0.5955  1.0302  0.6458
 1880TIP3    H227132   0.038   5.064   1.886  0.7386 -0.6963  0.8927
 1881TIP3   OH227133   4.221   5.577   3.661  0.6618  0.2446  0.0713
 1881TIP3    H127134   4.264   5.614   3.738 -1.1406 -0.9212  1.7167
 1881TIP3    H227135   4.166   5.648   3.628  1.5472  0.7954 -0.2508
 1882TIP3   OH227136   0.483   1.566   4.146 -0.3157 -0.0146  0.7351
 1882TIP3    H127137   0.469   1.472   4.136  0.9264 -0.0195 -1.7159
 1882TIP3    H227138   0.394   1.602   4.155 -0.9816 -1.2483 -0.4594
 1883TIP3   OH227139   3.173   1.135   1.194  0.0783 -0.0012 -0.3194
 1883TIP3    H127140   3.237   1.171   1.132  0.4068  0.1808  0.1215
 1883TIP3    H227141   3.172   1.196   1.267 -0.5106 -0.0732 -0.2628
 1884TIP3   OH227142   2.991   3.334   5.853  0.5407 -0.2332  0.0152
 1884TIP3    H127143   3.028   3.320   5.941  0.5641 -0.5443 -0.0445
 1884TIP3    H227144   2.917   3.274   5.848  0.8548 -0.5924 -0.3712
 1885TIP3   OH227145   2.316   4.487   4.779 -0.2089 -0.1292 -0.6494
 1885TIP3    H127146   2.269   4.411   4.745 -1.4410  1.1428 -1.9125
 1885TIP3    H227147   2.310   4.477   4.874 -0.8762 -1.3044 -0.7899
 1886TIP3   OH227148   2.203   4.434  16.394 -0.1272  0.7141 -0.5918
 1886TIP3    H127149   2.269   4.404  16.456  0.3166  0.1112 -1.3439
 1886TIP3    H227150   2.247   4.502  16.342  0.1666 -0.2245 -1.6081
 1887TIP3   OH227151   2.215   3.116   5.712  0.0818  0.0559 -0.0452
 1887TIP3    H127152   2.299   3.070   5.700  0.8813  1.4206  0.1468
 1887TIP3    H227153   2.233   3.180   5.781 -1.1005  0.4414 -0.0786
 1888TIP3   OH227154   4.498   6.496  11.089 -0.3136  0.3067 -0.0907
 1888TIP3    H127155   4.544   6.539  11.162 -0.0803 -0.4911  0.2431
 1888TIP3    H227156   4.541   6.530  11.011 -0.3791  0.9581  0.1445
 1889TIP3   OH227157   0.094   0.552  13.163  0.5315  0.4367 -0.7989
 1889TIP3    H127158   0.187   0.563  13.181  0.0069  0.7623  2.2212
 1889TIP3    H227159   0.083   0.458  13.149  1.0620  0.1160  0.7935
 1890TIP3   OH227160   3.199   0.967   3.128  0.0981  0.0465  0.2979
 1890TIP3    H127161   3.144   0.889   3.123 -0.6136  0.5981 -2.9927
 1890TIP3    H227162   3.270   0.943   3.187 -1.5657 -2.0463  1.6337
 1891TIP3   OH227163   2.988   1.179   4.101 -0.0136 -0.5324 -0.0074
 1891TIP3    H127164   3.033   1.219   4.175 -0.1756 -0.3150 -0.0270
 1891TIP3    H227165   2.993   1.244   4.032 -0.1378 -0.6111 -0.0892
 1892TIP3   OH227166   0.700   3.694   4.663 -0.6919 -0.8288 -0.0356
 1892TIP3    H127167   0.687   3.770   4.719  0.1143 -0.9222  0.2964
 1892TIP3    H227168   0.664   3.720   4.578  2.0094  0.9873 -0.7466
 1893TIP3   OH227169   0.885   2.101  15.149  0.6587  0.0885  0.2386
 1893TIP3    H127170   0.937   2.023  15.166 -0.6949 -1.0361 -0.5012
 1893TIP3    H227171   0.913   2.165  15.215  2.2732 -0.7788  0.4265
 1894TIP3   OH227172   0.552   0.658  14.674  0.5207  0.1198 -0.8494
 1894TIP3    H127173   0.483   0.710  14.714  0.1857  0.4111 -1.7914
 1894TIP3    H227174   0.602   0.623  14.748 -1.6898 -1.5624 -0.0474
 1895TIP3   OH227175   6.253   0.981   1.227  0.0308 -0.3015 -0.4846
 1895TIP3    H127176   6.282   1.070   1.212  0.4884 -0.6781 -2.0662
 1895TIP3    H227177   6.187   0.965   1.159 -0.2553 -1.0721 -0.0472
 1896TIP3   OH227178   0.576   2.572   0.181  0.6060 -0.2883  0.2537
 1896TIP3    H127179   0.527   2.491   0.168 -1.6634  0.7818  1.4990
 1896TIP3    H227180   0.656   2.545   0.225 -0.1468 -1.8576  0.7363
 1897TIP3   OH227181   4.712   0.244  12.407 -0.1360 -0.3511  0.4055
 1897TIP3    H127182   4.690   0.302  12.334  0.0189  1.6228  1.8608
 1897TIP3    H227183   4.805   0.225  12.395 -0.1862 -0.2965 -0.0865
 1898TIP3   OH227184   4.441   5.155  13.787 -0.3492  1.1464 -0.3681
 1898TIP3    H127185   4.533   5.138  13.764 -0.0405 -1.6518  2.3299
 1898TIP3    H227186   4.445   5.193  13.875 -1.7828  0.0166  0.2188
 1899TIP3   OH227187   1.312   1.476   2.531 -0.1624 -0.0800 -0.1269
 1899TIP3    H127188   1.334   1.390   2.568 -0.2503 -0.9991 -2.0446
 1899TIP3    H227189   1.366   1.538   2.579  1.8450 -1.5311 -0.3780
 1900TIP3   OH227190   1.091   3.499  12.855 -0.1652  0.2731  0.1172
 1900TIP3    H127191   1.103   3.491  12.760  1.7852 -2.2136  0.4660
 1900TIP3    H227192   1.006   3.457  12.871  0.0416 -0.3991 -0.4459
 1901TIP3   OH227193   4.451   5.651   5.518 -0.2903 -0.2173 -0.6068
 1901TIP3    H127194   4.497   5.713   5.574 -1.4226  0.2684 -0.1851
 1901TIP3    H227195   4.433   5.576   5.574  2.7263 -1.8147 -1.5970
 1902TIP3   OH227196   1.937   3.995   0.008  0.1557  0.3222 -0.3888
 1902TIP3    H127197   1.948   4.090   0.014 -1.9009  0.5702  0.3002
 1902TIP3    H227198   1.920   3.967   0.098  0.4001 -0.6606 -0.6353
 1903TIP3   OH227199   2.726   0.542   3.463  0.0234 -0.1040  0.0496
 1903TIP3    H127200   2.772   0.599   3.525  0.0410 -0.6481  0.5456
 1903TIP3    H227201   2.712   0.597   3.386 -0.3555  0.7054  0.6836
 1904TIP3   OH227202   0.523   1.350  15.477 -0.7097  0.5291 -0.1011
 1904TIP3    H127203   0.438   1.379  15.446  0.2308  1.8449 -1.5890
 1904TIP3    H227204   0.581   1.360  15.401  1.1394  1.3173  1.3348
 1905TIP3   OH227205   0.102   0.123   3.472 -0.1182  0.5002  0.4068
 1905TIP3    H127206   0.022   0.163   3.507 -1.1757 -1.4313  0.3394
 1905TIP3    H227207   0.113   0.164   3.386 -1.5102  0.2344  0.0742
 1906TIP3   OH227208   2.770   2.367  11.629 -0.2999  0.0153  0.1022
 1906TIP3    H127209   2.688   2.332  11.664 -1.0248 -0.0459 -1.5327
 1906TIP3    H227210   2.760   2.462  11.635  0.4706  0.0112  1.9288
 1907TIP3   OH227211   0.423   1.618   4.663  0.0518 -0.1165  0.1562
 1907TIP3    H127212   0.389   1.531   4.643 -1.6469  0.0524  1.9675
 1907TIP3    H227213   0.352   1.677   4.640  0.2011  0.5424  1.3157
 1908TIP3   OH227214   1.754   3.914  14.656  0.1734 -0.9316 -0.5647
 1908TIP3    H127215   1.738   3.941  14.746  2.3436 -3.0234  0.5585
 1908TIP3    H227216   1.690   3.844  14.640  1.2689 -2.1706  0.2494
 1909TIP3   OH227217   2.937   3.572  12.799  0.1786 -0.8310  0.0739
 1909TIP3    H127218   2.974   3.578  12.711 -3.7482  0.2730 -1.7237
 1909TIP3    H227219   2.895   3.657  12.813  1.9281 -0.3735  3.7998
 1910TIP3   OH227220   2.306   2.719   3.678 -0.2413 -0.0083 -0.3804
 1910TIP3    H127221   2.399   2.727   3.703  0.3971 -0.9846 -2.2779
 1910TIP3    H227222   2.299   2.631   3.641 -1.6145  0.5607 -1.5201
 1911TIP3   OH227223   1.930   1.937  15.509  0.3820  0.1929  0.0138
 1911TIP3    H127224   1.932   1.914  15.602 -1.1335 -1.4437 -0.3086
 1911TIP3    H227225   2.022   1.948  15.486  0.7635  1.2735  1.8328
 1912TIP3   OH227226   0.606   4.590  14.555  0.5172 -0.0791 -0.6206
 1912TIP3    H127227   0.527   4.542  14.531  2.4083 -2.1545 -3.2557
 1912TIP3    H227228   0.590   4.679  14.524 -1.6482  0.2320  1.1176
 1913TIP3   OH227229   6.697   6.690   2.331  0.1121 -0.2091 -0.9133
 1913TIP3    H127230   6.741   6.665   2.412 -0.4185  0.0092 -0.5542
 1913TIP3    H227231   6.764   6.738   2.281  0.0576  0.8645 -0.0048
 1914TIP3   OH227232   2.059   2.619  16.238 -0.3611  0.1015 -0.5489
 1914TIP3    H127233   2.153   2.603  16.232 -0.5131 -0.2449 -3.5844
 1914TIP3    H227234   2.049   2.713  16.224 -0.4889  0.0438 -0.8547
 1915TIP3   OH227235   2.660   3.265   3.704 -0.1647  1.1154  0.3043
 1915TIP3    H127236   2.604   3.203   3.750  0.0651 -1.1118 -2.1449
 1915TIP3    H227237   2.604   3.340   3.686 -1.2064  0.5815  1.2018
 1916TIP3   OH227238   4.737   3.386  16.187 -0.1402  0.9131  0.5135
 1916TIP3    H127239   4.653   3.427  16.208 -1.2513  0.9555 -3.1876
 1916TIP3    H227240   4.768   3.433  16.110  1.5939 -1.2207 -0.2047
 1917TIP3   OH227241   2.662   0.930  16.593 -0.7111 -0.2543 -0.4963
 1917TIP3    H127242   2.686   0.838  16.600 -1.2509 -0.3390  0.4296
 1917TIP3    H227243   2.745   0.977  16.600 -0.5325 -0.6385  0.0587
 1918TIP3   OH227244   6.028   4.613  12.185  0.2612  0.1980 -0.1845
 1918TIP3    H127245   6.056   4.703  12.165 -0.5363 -0.0277 -2.7574
 1918TIP3    H227246   6.109   4.562  12.179  0.5167  0.5769 -0.0232
 1919TIP3   OH227247   2.513   3.228  14.960  0.4001 -0.1152  0.1932
 1919TIP3    H127248   2.472   3.143  14.943  2.5641 -1.4588  1.1489
 1919TIP3    H227249   2.486   3.283  14.887 -0.9828 -1.6447 -0.5221
 1920TIP3   OH227250   3.618   5.496  15.854 -0.4298 -0.8865 -0.2271
 1920TIP3    H127251   3.563   5.573  15.869  0.1431 -0.9022  2.5294
 1920TIP3    H227252   3.559   5.431  15.815 -1.9025 -0.2555  0.8633
 1921TIP3   OH227253   4.211   3.287   5.073  0.5309  0.3093 -0.3130
 1921TIP3    H127254   4.265   3.211   5.052  0.2707  0.1112 -0.2708
 1921TIP3    H227255   4.178   3.269   5.161 -0.8084 -0.2834 -0.9016
 1922TIP3   OH227256   6.309   6.144   0.994  0.5382  0.0675 -0.1677
 1922TIP3    H127257   6.332   6.234   0.974  1.9285 -0.1044  0.4791
 1922TIP3    H227258   6.307   6.100   0.909  0.6461  0.5344 -0.4160
 1923TIP3   OH227259   4.787   1.480  12.859 -0.6253  0.3681 -0.4111
 1923TIP3    H127260   4.866   1.504  12.908 -1.2884 -0.4595  1.1583
 1923TIP3    H227261   4.801   1.389  12.834  0.1837  1.0847 -2.8548
 1924TIP3   OH227262   2.226   0.166   5.324  0.1813 -0.3656  0.1610
 1924TIP3    H127263   2.226   0.073   5.300  1.9814  0.0406 -1.7554
 1924TIP3    H227264   2.260   0.168   5.413 -1.4336 -1.6224  0.8427
 1925TIP3   OH227265   5.165   3.469  16.906  0.2500  0.1129  0.0107
 1925TIP3    H127266   5.253   3.432  16.913  0.3605 -0.0649 -1.8319
 1925TIP3    H227267   5.177   3.552  16.861 -0.4374  0.4791  0.4983
 1926TIP3   OH227268   6.207   3.924   2.712  0.2287  0.0914  0.2662
 1926TIP3    H127269   6.178   3.851   2.657  0.4286  0.4911 -0.3818
 1926TIP3    H227270   6.146   3.995   2.692 -0.2351 -0.0224  1.2185
 1927TIP3   OH227271   6.562   0.350  12.180 -0.5097 -0.0942  0.2691
 1927TIP3    H127272   6.645   0.339  12.226 -1.1822 -1.2662  1.2540
 1927TIP3    H227273   6.529   0.435  12.210  0.4491  0.5142 -0.3510
 1928TIP3   OH227274   0.102   2.646  14.327  0.7275  0.0014  0.4085
 1928TIP3    H127275   0.095   2.651  14.422 -0.8030 -0.1590  0.3311
 1928TIP3    H227276   0.149   2.725  14.301 -0.4634  0.9960  1.1733
 1929TIP3   OH227277   1.062   1.986   5.291 -0.9068  0.4432 -0.2272
 1929TIP3    H127278   0.971   1.956   5.295 -0.3031 -1.6407 -0.9307
 1929TIP3    H227279   1.114   1.906   5.282  0.9010  1.6569 -1.4220
 1930TIP3   OH227280   5.795   3.461   2.430  0.3901 -0.3359  0.4974
 1930TIP3    H127281   5.879   3.507   2.422  0.5252 -0.7844 -0.8674
 1930TIP3    H227282   5.817   3.368   2.427 -0.2563 -0.4682 -1.5069
 1931TIP3   OH227283   0.190   5.003  15.789  0.0440 -0.2557 -0.1804
 1931TIP3    H127284   0.189   5.081  15.845  0.4297  0.3361 -0.9816
 1931TIP3    H227285   0.228   5.033  15.707  0.6475 -1.4052 -0.3412
 1932TIP3   OH227286   1.922   0.971   0.073 -0.8099  0.7484  0.6362
 1932TIP3    H127287   1.859   1.006   0.136 -0.2403  0.6817  1.2423
 1932TIP3    H227288   1.877   0.979  -0.012 -1.8783  0.1474  1.1235
 1933TIP3   OH227289   6.525   5.843   5.416  0.8948 -0.2372  0.1593
 1933TIP3    H127290   6.505   5.894   5.495  2.9193 -1.7706  1.7987
 1933TIP3    H227291   6.440   5.828   5.375 -0.1845  1.0498  1.7574
 1934TIP3   OH227292   1.031   0.103  14.214  0.0344  0.4320  0.0362
 1934TIP3    H127293   0.998   0.021  14.250  1.6544 -0.2325  0.1089
 1934TIP3    H227294   0.990   0.111  14.129 -3.5311  1.7960  1.6839
 1935TIP3   OH227295   4.342   4.338  12.189  0.0533 -0.2145 -0.1260
 1935TIP3    H127296   4.435   4.349  12.208  0.1445  0.7135 -1.0221
 1935TIP3    H227297   4.298   4.342  12.274  0.9283 -1.9410  0.4492
 1936TIP3   OH227298   5.262   0.554   1.761 -0.3007  0.4316  0.7523
 1936TIP3    H127299   5.180   0.512   1.787  0.1116 -1.0301 -0.1921
 1936TIP3    H227300   5.326   0.526   1.827  0.1924 -1.3043 -0.3853
 1937TIP3   OH227301   4.720   3.965   3.775 -0.0732  0.0235 -0.1366
 1937TIP3    H127302   4.671   4.036   3.816  1.1134  1.9031 -1.7983
 1937TIP3    H227303   4.682   3.955   3.688 -0.0246 -1.1886 -0.0349
 1938TIP3   OH227304   1.369   2.301   1.880  0.5146  0.7207  0.2545
 1938TIP3    H127305   1.449   2.252   1.898  0.7435  0.7898 -0.5168
 1938TIP3    H227306   1.394   2.393   1.894  0.2437  0.6641  1.1447
 1939TIP3   OH227307   0.971   3.654   1.179 -0.0362 -0.2182  0.7438
 1939TIP3    H127308   1.029   3.605   1.237 -0.1414  0.1105  1.1323
 1939TIP3    H227309   0.995   3.746   1.193  0.0615 -0.1466  0.1296
 1940TIP3   OH227310   4.361   4.143  16.986 -0.1981  0.8456 -0.1764
 1940TIP3    H127311   4.417   4.087  17.041  1.3326  1.2475 -1.2603
 1940TIP3    H227312   4.272   4.125  17.017  0.4644 -0.2417  1.2386
 1941TIP3   OH227313   3.243   1.415  13.172 -0.2800  0.3519  0.5805
 1941TIP3    H127314   3.310   1.385  13.110  0.4071  1.7591  0.5885
 1941TIP3    H227315   3.286   1.412  13.257 -0.9325 -0.7271  0.8880
 1942TIP3   OH227316   5.604   6.657  13.804 -0.2184  0.1396 -0.6126
 1942TIP3    H127317   5.583   6.612  13.722  0.4974 -1.1198 -0.1123
 1942TIP3    H227318   5.580   6.595  13.873  0.5872  0.6041  0.0963
 1943TIP3   OH227319   6.083   5.747  15.688  0.0454 -0.0563  0.6767
 1943TIP3    H127320   5.990   5.741  15.665  0.1248  3.0685 -1.0727
 1943TIP3    H227321   6.090   5.704  15.773 -3.0662 -0.0563  1.0484
 1944TIP3   OH227322   2.776   3.182  14.874  0.5308  0.2638  1.3011
 1944TIP3    H127323   2.711   3.210  14.939  0.2225 -1.0220  1.5901
 1944TIP3    H227324   2.855   3.165  14.925 -0.1067 -2.1159  1.6396
 1945TIP3   OH227325   6.333   1.865  14.565  0.1957 -0.5223  0.1974
 1945TIP3    H127326   6.255   1.893  14.517 -0.2526 -1.2126  0.5155
 1945TIP3    H227327   6.300   1.803  14.630  0.8873 -0.1058  0.9560
 1946TIP3   OH227328   3.535   6.640  11.580  0.9650  0.5871  0.0499
 1946TIP3    H127329   3.519   6.695  11.502  0.1809 -1.2655 -1.1678
 1946TIP3    H227330   3.554   6.553  11.544  0.2904 -0.3903  1.9566
 1947TIP3   OH227331   5.884   2.487  12.702 -0.4303 -0.1263  0.1434
 1947TIP3    H127332   5.807   2.477  12.647 -0.8696 -0.3910  0.7883
 1947TIP3    H227333   5.870   2.570  12.748  1.0962  1.3794 -1.9182
 1948TIP3   OH227334   6.481   0.174  16.010 -0.4762  1.0296  0.6771
 1948TIP3    H127335   6.400   0.171  16.061  0.0848 -0.4288  1.5778
 1948TIP3    H227336   6.511   0.264  16.017 -0.4945  0.9224  2.8871
 1949TIP3   OH227337   1.406   2.711  17.164 -0.1972  0.1311  0.2098
 1949TIP3    H127338   1.339   2.759  17.114  1.1577  2.0017  0.0664
 1949TIP3    H227339   1.482   2.709  17.106  0.0760 -1.5009  0.5707
 1950TIP3   OH227340   4.102   1.268  11.510 -0.6450  0.3439  0.0556
 1950TIP3    H127341   4.008   1.287  11.511 -0.9642 -1.0841 -0.4958
 1950TIP3    H227342   4.109   1.183  11.467  1.0735  1.2467 -1.6157
 1951TIP3   OH227343   0.797   6.573  15.873 -0.0855  0.6964 -0.0754
 1951TIP3    H127344   0.874   6.543  15.923  0.2660 -2.1224 -2.1035
 1951TIP3    H227345   0.831   6.643  15.817  1.7824 -2.0396 -2.6590
 1952TIP3   OH227346   1.965   1.504  16.416 -0.2319 -0.3007 -0.1286
 1952TIP3    H127347   2.060   1.505  16.413 -0.2321 -0.4628 -0.1923
 1952TIP3    H227348   1.939   1.449  16.342 -0.3429 -1.3309  0.6477
 1953TIP3   OH227349   5.517   0.126   4.344  0.2674 -0.0329  0.0474
 1953TIP3    H127350   5.461   0.082   4.281 -0.2719  0.0056  0.4938
 1953TIP3    H227351   5.528   0.063   4.416  1.7312 -0.4825 -0.5333
 1954TIP3   OH227352   4.191   4.779   0.330  0.7520  0.0503  0.4372
 1954TIP3    H127353   4.106   4.801   0.293  0.1934 -1.8966  0.4537
 1954TIP3    H227354   4.254   4.816   0.268 -0.0837  1.5982  0.4796
 1955TIP3   OH227355   3.251   5.498  11.628  0.2690  0.1158 -0.4789
 1955TIP3    H127356   3.314   5.429  11.607  0.7546  1.0516 -2.3064
 1955TIP3    H227357   3.277   5.528  11.716  2.0453  0.0939 -0.9498
 1956TIP3   OH227358   5.741   4.639   1.537 -0.1494 -0.3607 -1.2731
 1956TIP3    H127359   5.729   4.643   1.442  0.1588 -2.9169 -1.4718
 1956TIP3    H227360   5.813   4.578   1.550  0.2022  0.3824  0.6186
 1957TIP3   OH227361   6.393   0.301  10.977 -0.1062  0.3044  0.1029
 1957TIP3    H127362   6.441   0.295  10.895 -1.9905  1.4682 -1.1834
 1957TIP3    H227363   6.341   0.382  10.968  0.0322  0.7548  2.6815
 1958TIP3   OH227364   3.660   5.132  14.811 -0.0202 -0.4619 -0.1310
 1958TIP3    H127365   3.702   5.069  14.752 -1.1628 -0.0123 -1.4743
 1958TIP3    H227366   3.676   5.217  14.770  1.0895  0.1122  1.4109
 1959TIP3   OH227367   1.640   2.423   2.603  0.0925 -0.1140 -0.5594
 1959TIP3    H127368   1.571   2.392   2.662  0.8707  0.7831  0.8588
 1959TIP3    H227369   1.619   2.516   2.589  0.9471  0.1423 -0.1875
 1960TIP3   OH227370   6.504   3.692  11.702  0.3884 -0.0338  0.4799
 1960TIP3    H127371   6.538   3.729  11.620 -1.6650  0.2537 -0.2914
 1960TIP3    H227372   6.478   3.768  11.754 -0.4502 -0.2775  0.4251
 1961TIP3   OH227373   0.372   1.550  13.127  0.3359  0.0758 -0.1179
 1961TIP3    H127374   0.450   1.603  13.139  1.2011 -1.6781  2.9833
 1961TIP3    H227375   0.317   1.571  13.202 -0.2767 -1.7784 -0.0003
 1962TIP3   OH227376   4.595   6.310  12.158  0.8516 -0.3012 -0.0339
 1962TIP3    H127377   4.615   6.375  12.091  0.3724  0.3033  0.4073
 1962TIP3    H227378   4.665   6.245  12.149 -0.9311 -2.0796 -3.4141
 1963TIP3   OH227379   2.188   1.021   4.293  0.2604 -0.7392  0.2125
 1963TIP3    H127380   2.177   1.029   4.198  0.1172 -0.3024  0.2620
 1963TIP3    H227381   2.133   1.090   4.329  0.4721 -0.7747  0.6077
 1964TIP3   OH227382   6.099   1.878  13.840 -0.0701  0.4341  0.2175
 1964TIP3    H127383   6.040   1.844  13.773 -0.2736  0.9326  0.1391
 1964TIP3    H227384   6.053   1.862  13.922  0.4682 -0.7716  0.2982
 1965TIP3   OH227385   0.804   5.902  13.922  0.4158  0.1675 -0.2717
 1965TIP3    H127386   0.796   5.910  14.017  0.5461 -0.2062 -0.2247
 1965TIP3    H227387   0.803   5.807  13.906  2.0923  0.1595 -0.4820
 1966TIP3   OH227388   1.420   6.221  16.929 -0.7510 -0.3185 -0.1315
 1966TIP3    H127389   1.422   6.162  17.004 -0.5182 -1.2240 -0.8297
 1966TIP3    H227390   1.332   6.257  16.929 -2.2608 -3.5699 -1.8384
 1967TIP3   OH227391   5.350   5.284   0.675 -0.7045  0.3557 -0.0599
 1967TIP3    H127392   5.344   5.268   0.769 -1.6334  0.7120 -0.0509
 1967TIP3    H227393   5.315   5.205   0.634 -1.4789  0.6971 -0.0768
 1968TIP3   OH227394   2.165   6.031  14.115 -0.2814  0.0193  0.1832
 1968TIP3    H127395   2.075   6.064  14.123  0.3365  1.5763  1.0404
 1968TIP3    H227396   2.217   6.108  14.095  0.6883 -1.1138 -2.0451
 1969TIP3   OH227397   0.501   2.313   2.234 -0.1441  0.2434  0.3265
 1969TIP3    H127398   0.567   2.323   2.303 -1.1103  1.7797  1.0802
 1969TIP3    H227399   0.463   2.227   2.250  0.6650 -0.0437  0.7831
 1970TIP3   OH227400   0.608   5.421   3.199 -0.3184  0.0001  0.3671
 1970TIP3    H127401   0.602   5.514   3.221 -1.1490  0.9018 -3.0835
 1970TIP3    H227402   0.699   5.398   3.217  0.5195  2.1433 -0.6913
 1971TIP3   OH227403   5.298   0.742   0.718  0.2919  0.7077 -0.6789
 1971TIP3    H127404   5.232   0.769   0.782  1.4160 -1.3041  1.4780
 1971TIP3    H227405   5.381   0.743   0.767  1.4852  0.7229 -2.5958
 1972TIP3   OH227406   6.730   5.720  11.104  0.5145  0.6318 -0.1440
 1972TIP3    H127407   6.775   5.800  11.132 -0.7360  1.5266 -0.5584
 1972TIP3    H227408   6.726   5.727  11.008 -0.2924  0.4807 -0.1319
 1973TIP3   OH227409   0.984   5.286  10.834 -0.0691 -0.5920 -0.1111
 1973TIP3    H127410   0.915   5.346  10.807  0.3204  0.1749  0.5674
 1973TIP3    H227411   1.059   5.342  10.853  0.2511 -1.2721  0.7146
 1974TIP3   OH227412   3.835   3.680   3.238 -0.1167  0.7410  0.3857
 1974TIP3    H127413   3.834   3.662   3.332 -0.5168  2.2079  0.6815
 1974TIP3    H227414   3.744   3.700   3.217 -0.5032 -1.8448 -0.8154
 1975TIP3   OH227415   1.680   3.426  12.221  0.4167  0.1189 -0.3331
 1975TIP3    H127416   1.628   3.496  12.182  0.2072 -0.1961 -0.6285
 1975TIP3    H227417   1.680   3.445  12.314 -0.4402 -0.0127 -0.3033
 1976TIP3   OH227418   4.869   3.154  13.524  0.0570 -0.0500 -0.0041
 1976TIP3    H127419   4.783   3.120  13.499 -0.0526  0.2072  0.0249
 1976TIP3    H227420   4.877   3.132  13.617  1.3416 -2.9023 -0.6696
 1977TIP3   OH227421   3.940   5.693  11.305  0.1902  0.6004  0.5315
 1977TIP3    H127422   3.907   5.760  11.246  1.0446  1.1341  0.6337
 1977TIP3    H227423   4.016   5.734  11.347 -0.1978  0.1149  1.7441
 1978TIP3   OH227424   2.503   2.075   4.461  0.1452 -0.3428  0.6392
 1978TIP3    H127425   2.498   1.982   4.441 -4.1796 -0.5698  1.7868
 1978TIP3    H227426   2.476   2.119   4.380  2.6012  0.0713 -0.0441
 1979TIP3   OH227427   6.787   1.775  16.940 -0.3627 -0.5458 -0.4720
 1979TIP3    H127428   6.695   1.759  16.916  0.2148 -1.2470 -2.3428
 1979TIP3    H227429   6.803   1.712  17.011 -0.8297 -1.7100 -1.3614
 1980TIP3   OH227430   3.018   6.121   2.753  0.5507  0.4037 -0.6020
 1980TIP3    H127431   3.003   6.101   2.661 -0.1661 -0.2430 -0.3595
 1980TIP3    H227432   3.075   6.198   2.753 -1.8481  2.2892 -1.5929
 1981TIP3   OH227433   1.229   4.561  13.557  0.4802  0.5264 -0.4686
 1981TIP3    H127434   1.269   4.608  13.484  0.1490  0.6981 -0.5421
 1981TIP3    H227435   1.270   4.599  13.635  0.1683  0.9896 -0.5245
 1982TIP3   OH227436   4.381   1.399  11.794 -0.1057 -0.1404  0.4449
 1982TIP3    H127437   4.436   1.412  11.871 -0.2578  1.1714  0.3494
 1982TIP3    H227438   4.360   1.487  11.763 -0.3238 -0.6342 -0.9098
 1983TIP3   OH227439   0.101   0.486   1.184  0.6744  0.4632  0.1907
 1983TIP3    H127440   0.104   0.391   1.193 -0.4623  0.5469  2.1499
 1983TIP3    H227441   0.008   0.507   1.177  0.9804  1.3627 -1.6279
 1984TIP3   OH227442   2.867   0.876  15.884 -0.0786  0.4248 -0.0936
 1984TIP3    H127443   2.829   0.827  15.957  2.8811 -1.9730  0.0331
 1984TIP3    H227444   2.926   0.939  15.926 -1.0538  1.5694 -0.3832
 1985TIP3   OH227445   5.339   2.842   0.059  0.2344  0.0937 -0.0642
 1985TIP3    H127446   5.357   2.778  -0.010 -1.6239 -0.3271 -0.1909
 1985TIP3    H227447   5.426   2.862   0.095  0.9775 -1.6142 -0.7821
 1986TIP3   OH227448   2.139   5.852   6.788  0.0422  0.2570  0.0545
 1986TIP3    H127449   2.143   5.946   6.806  0.9956  0.3579 -0.6097
 1986TIP3    H227450   2.047   5.835   6.768 -0.8180  0.4477  3.2243
 1987TIP3   OH227451   5.833   5.458  12.403 -0.2516  0.3127 -0.3034
 1987TIP3    H127452   5.797   5.415  12.326 -1.0229 -1.3781  0.9486
 1987TIP3    H227453   5.913   5.410  12.423 -0.2080  0.5537  0.1301
 1988TIP3   OH227454   1.517   3.860   3.736  0.2265 -0.0403 -0.2835
 1988TIP3    H127455   1.605   3.822   3.744  0.1622 -0.0248  0.7589
 1988TIP3    H227456   1.523   3.944   3.782 -0.5179 -0.3980  0.5015
 1989TIP3   OH227457   6.294   1.093  11.309  0.0802  0.3458  0.3498
 1989TIP3    H127458   6.383   1.128  11.311  0.6525 -0.9410 -1.0542
 1989TIP3    H227459   6.238   1.169  11.323  1.3627  1.2880  0.5667
 1990TIP3   OH227460   2.804   2.473   4.637  0.1584 -0.2687 -0.1143
 1990TIP3    H127461   2.766   2.455   4.550  1.6050  0.7972 -1.0167
 1990TIP3    H227462   2.762   2.553   4.666 -1.8087 -1.6626  1.1490
 1991TIP3   OH227463   2.985   0.717   5.065  0.4856  0.0323  0.4534
 1991TIP3    H127464   3.064   0.768   5.078  0.5897 -0.6068  2.7399
 1991TIP3    H227465   3.002   0.633   5.108 -0.2636 -1.3961 -1.8168
 1992TIP3   OH227466   2.861   6.657  17.093  0.4533 -0.4549  0.0753
 1992TIP3    H127467   2.770   6.667  17.120  1.1771  1.5041  2.0905
 1992TIP3    H227468   2.873   6.720  17.022  0.6688  0.6121  1.0434
 1993TIP3   OH227469   1.043   5.286  15.289  0.1151  0.2002 -0.3737
 1993TIP3    H127470   1.046   5.206  15.341  0.3081  1.8382  2.3146
 1993TIP3    H227471   1.122   5.282  15.234  0.7173 -0.9227  0.5408
 1994TIP3   OH227472   5.365   4.140   4.719  0.1113  0.1272  0.2838
 1994TIP3    H127473   5.352   4.049   4.747  0.4209 -0.2400 -0.7227
 1994TIP3    H227474   5.283   4.162   4.675 -0.0452  0.4138  0.7136
 1995TIP3   OH227475   1.681   6.674  14.373 -0.0126 -0.0866  0.0118
 1995TIP3    H127476   1.740   6.722  14.316  0.9481 -0.8503  0.3258
 1995TIP3    H227477   1.656   6.597  14.322 -1.9808  0.9532 -0.7049
 1996TIP3   OH227478   6.478   0.580  10.958 -0.3856  0.0701 -0.3336
 1996TIP3    H127479   6.434   0.664  10.957 -0.6253 -0.0446  0.2883
 1996TIP3    H227480   6.491   0.559  10.865 -0.5143  0.6850 -0.4970
 1997TIP3   OH227481   5.557   0.167   3.509  0.2978  0.3272  0.1850
 1997TIP3    H127482   5.646   0.173   3.475 -0.2823  0.0287 -1.4708
 1997TIP3    H227483   5.523   0.257   3.504 -0.0569  0.1525 -0.8681
 1998TIP3   OH227484   5.208   0.411  13.446 -0.2248 -0.1081 -0.4240
 1998TIP3    H127485   5.124   0.424  13.402  0.5691 -0.4625 -2.1140
 1998TIP3    H227486   5.249   0.339  13.399 -0.3807 -2.3413  2.5432
 1999TIP3   OH227487   3.901   4.529  15.659 -0.0700 -0.0604  0.3209
 1999TIP3    H127488   3.965   4.494  15.597 -0.3593  1.0025 -0.6122
 1999TIP3    H227489   3.917   4.481  15.740  2.2877  0.5670  0.2884
 2000TIP3   OH227490   5.209   0.794  15.830  0.6955 -0.0344  0.2904
 2000TIP3    H127491   5.235   0.880  15.795  0.2559 -0.2091 -0.5063
 2000TIP3    H227492   5.135   0.768  15.774  0.2434 -0.5247  1.1013
 2001TIP3   OH227493   4.128   0.255  15.294  0.1408 -0.0500  0.3203
 2001TIP3    H127494   4.190   0.191  15.329  0.9368  0.6441  0.2126
 2001TIP3    H227495   4.121   0.321  15.362 -0.6599 -0.2259  0.4199
 2002TIP3   OH227496   3.349   4.061   3.972  0.1582  0.4526 -0.0375
 2002TIP3    H127497   3.303   3.992   3.924  0.4945  0.8113 -0.8908
 2002TIP3    H227498   3.292   4.138   3.962 -0.3359  0.2515  1.1149
 2003TIP3   OH227499   4.207   0.138  10.954 -0.0762 -0.0194 -0.3423
 2003TIP3    H127500   4.223   0.049  10.986  1.6568  0.2620 -0.3434
 2003TIP3    H227501   4.118   0.158  10.982  1.0124 -0.0795  3.6822
 2004TIP3   OH227502   0.793   2.087  14.222 -0.2338 -0.2715 -0.6451
 2004TIP3    H127503   0.810   2.000  14.257 -2.5986 -0.3417  0.5167
 2004TIP3    H227504   0.741   2.072  14.142  1.5424  0.0413 -1.9186
 2005TIP3   OH227505   4.335   3.251  12.658 -0.3479  0.9168 -0.0364
 2005TIP3    H127506   4.407   3.261  12.720  0.2913  2.6735 -0.9958
 2005TIP3    H227507   4.261   3.296  12.698 -0.6691 -0.0726  0.5204
 2006TIP3   OH227508   3.309   4.453  12.335  0.0850 -0.6637  0.0034
 2006TIP3    H127509   3.216   4.477  12.331  0.2565  0.4075  1.4917
 2006TIP3    H227510   3.354   4.523  12.288  0.0956 -1.8709 -1.9090
 2007TIP3   OH227511   4.757   4.905   3.820  0.7838  0.0302  0.0857
 2007TIP3    H127512   4.714   4.900   3.734  0.5823 -1.3583  0.2349
 2007TIP3    H227513   4.779   4.814   3.841  1.3140  0.4086  1.2706
 2008TIP3   OH227514   2.963   4.260   6.857 -0.2243  0.3620  0.7699
 2008TIP3    H127515   2.868   4.259   6.871 -0.3853  2.9872  0.3396
 2008TIP3    H227516   2.979   4.339   6.805  2.1485 -0.3475  0.3013
 2009TIP3   OH227517   4.504   2.394   5.802 -0.8066 -0.1559  0.1010
 2009TIP3    H127518   4.547   2.374   5.885 -0.3039  0.1411 -0.0813
 2009TIP3    H227519   4.503   2.311   5.755 -0.5378 -0.1964  0.1596
 2010TIP3   OH227520   6.625   3.003  13.121 -0.0020  0.3001  0.2681
 2010TIP3    H127521   6.622   3.044  13.035 -3.1624 -1.0458 -0.4297
 2010TIP3    H227522   6.578   3.064  13.178 -1.0841 -0.4076  0.1626
 2011TIP3   OH227523   0.963   4.412   2.591  0.3416 -0.0146  0.1189
 2011TIP3    H127524   0.880   4.381   2.626 -0.1925  2.0090  0.7842
 2011TIP3    H227525   1.002   4.463   2.662  1.2179  0.6877 -0.8264
 2012TIP3   OH227526   5.623   6.602  16.200  0.0534 -0.0286 -0.4698
 2012TIP3    H127527   5.675   6.528  16.170 -1.3180 -0.1811 -2.7492
 2012TIP3    H227528   5.545   6.563  16.238  0.7628  0.2399  1.3829
 2013TIP3   OH227529   0.032   4.094   0.957 -0.1148 -0.1240 -0.0310
 2013TIP3    H127530   0.026   4.063   1.048  2.0128  2.6397  1.2382
 2013TIP3    H227531  -0.059   4.101   0.928 -1.0182  0.8388  2.6938
 2014TIP3   OH227532   1.419   5.186   0.009 -0.2617  0.0479  0.6061
 2014TIP3    H127533   1.513   5.187   0.027 -0.1156 -1.3484  0.0540
 2014TIP3    H227534   1.392   5.277   0.018  1.1667  0.4976  0.6428
 2015TIP3   OH227535   5.236   2.900   0.775 -0.4512 -0.0763 -0.4906
 2015TIP3    H127536   5.308   2.898   0.838 -1.0605  0.0725  0.2265
 2015TIP3    H227537   5.224   2.993   0.756  0.8866 -0.1919 -2.2212
 2016TIP3   OH227538   5.419   2.214  14.473  0.1857 -0.2545  0.2463
 2016TIP3    H127539   5.390   2.141  14.526 -0.1672 -2.2584 -2.4630
 2016TIP3    H227540   5.341   2.242  14.425  1.0185 -0.4446 -1.2896
 2017TIP3   OH227541   0.502   3.682   0.149  0.6411  0.2978 -0.5731
 2017TIP3    H127542   0.563   3.704   0.220  0.3707 -1.9136  0.4404
 2017TIP3    H227543   0.539   3.603   0.110 -1.0359 -0.5229 -0.5851
 2018TIP3   OH227544   1.819   1.066  12.632  0.1824  0.0458  0.2136
 2018TIP3    H127545   1.914   1.057  12.625  0.1942 -1.1303  1.4783
 2018TIP3    H227546   1.791   1.097  12.546  1.8737  2.0636  0.3130
 2019TIP3   OH227547   2.572   2.903  12.634  0.1944 -0.3881 -0.0149
 2019TIP3    H127548   2.532   2.901  12.547  3.0610 -1.0589 -1.4203
 2019TIP3    H227549   2.588   2.811  12.655  0.9734 -0.1351  0.5253
 2020TIP3   OH227550   6.309   0.294   5.571  0.3648 -0.1544 -0.1124
 2020TIP3    H127551   6.349   0.277   5.656 -0.4507 -1.1796  0.0798
 2020TIP3    H227552   6.383   0.317   5.514  1.1081 -0.9947  0.4898
 2021TIP3   OH227553   5.562   6.005   3.708  0.4758 -0.3101  0.8155
 2021TIP3    H127554   5.604   6.074   3.657  0.9412 -0.8139  0.4969
 2021TIP3    H227555   5.546   6.044   3.794 -1.4273  0.9456 -0.0487
 2022TIP3   OH227556   1.453   6.021   2.457  0.2241  0.1080  0.1291
 2022TIP3    H127557   1.497   5.978   2.383  2.4776  1.6250  0.5155
 2022TIP3    H227558   1.369   6.050   2.420 -0.2167 -2.1396 -0.8497
 2023TIP3   OH227559   4.181   3.560   5.968  0.0301  0.4181  0.3765
 2023TIP3    H127560   4.110   3.597   6.020 -0.1219  0.5792  0.0572
 2023TIP3    H227561   4.176   3.606   5.884 -0.4629 -0.6712 -0.2036
 2024TIP3   OH227562   6.350   5.873  16.638  0.4309  0.3620  0.2465
 2024TIP3    H127563   6.358   5.804  16.573 -2.1694 -2.3280  2.4623
 2024TIP3    H227564   6.257   5.896  16.638  1.1386  3.7383 -0.1424
 2025TIP3   OH227565   2.441   3.039   0.318 -0.4770  0.5461 -0.1203
 2025TIP3    H127566   2.419   3.097   0.391  0.1445  0.4814  0.1251
 2025TIP3    H227567   2.438   3.095   0.241  1.0902  1.1612  0.2306
 2026TIP3   OH227568   5.751   0.061   6.064  0.6213 -0.0264  0.5114
 2026TIP3    H127569   5.836   0.017   6.070  0.6352  0.2090  3.9532
 2026TIP3    H227570   5.772   0.154   6.068  0.2682  0.1820 -1.3674
 2027TIP3   OH227571   5.725   1.623   4.549 -0.3221  0.3148 -0.5044
 2027TIP3    H127572   5.644   1.580   4.522 -0.3581 -0.4329  0.7113
 2027TIP3    H227573   5.787   1.551   4.565 -0.0821  0.7354  0.6094
 2028TIP3   OH227574   3.083   5.821   5.648 -0.3528  0.6015 -0.5772
 2028TIP3    H127575   2.992   5.790   5.652 -0.0795 -0.1233  0.5091
 2028TIP3    H227576   3.099   5.858   5.735  0.6707 -0.1062 -0.4488
 2029TIP3   OH227577   5.782   4.904  17.369  0.2558  0.4293  0.7821
 2029TIP3    H127578   5.793   4.982  17.424  0.5498  1.3215 -0.5096
 2029TIP3    H227579   5.820   4.928  17.285 -0.9405 -0.5970 -0.0957
 2030TIP3   OH227580   5.529   5.740   0.477 -0.4102 -0.3054  0.2795
 2030TIP3    H127581   5.443   5.775   0.454 -0.4419 -0.6513 -0.1367
 2030TIP3    H227582   5.520   5.645   0.471  0.5682 -0.3312 -1.9841
 2031TIP3   OH227583   4.119   6.736  15.871  0.5339 -0.3216  0.6925
 2031TIP3    H127584   4.138   6.810  15.928  1.5611 -0.0480  0.0116
 2031TIP3    H227585   4.061   6.680  15.923 -0.0012  0.7966  1.3325
 2032TIP3   OH227586   2.851   3.093   2.483 -0.3297  0.0486  0.5969
 2032TIP3    H127587   2.803   3.010   2.480 -1.0511  0.4882 -1.0587
 2032TIP3    H227588   2.798   3.149   2.540 -3.5162  1.4271 -3.2360
 2033TIP3   OH227589   5.143   1.610  11.980  0.2694  0.3645 -0.0348
 2033TIP3    H127590   5.066   1.553  11.987 -0.0337  0.6831 -0.6457
 2033TIP3    H227591   5.209   1.555  11.937  0.8564 -0.3502  1.7286
 2034TIP3   OH227592   1.647   4.310  15.919  0.2990  0.9687  0.0157
 2034TIP3    H127593   1.624   4.263  15.839  0.0023  0.2597  0.5104
 2034TIP3    H227594   1.580   4.378  15.926 -0.5201  0.1533  0.3910
 2035TIP3   OH227595   1.133   4.229  14.830  0.3915  0.0751 -0.3391
 2035TIP3    H127596   1.136   4.137  14.855 -0.1932 -0.0535 -0.7144
 2035TIP3    H227597   1.163   4.231  14.739  1.4167  0.3976 -0.0172
 2036TIP3   OH227598   1.406   0.321  13.866 -0.4836 -0.0208 -0.1305
 2036TIP3    H127599   1.446   0.407  13.853 -0.9577 -0.0339 -1.9991
 2036TIP3    H227600   1.348   0.333  13.942  0.9046  0.7418  0.8532
 2037TIP3   OH227601   1.076   6.622   1.669  0.2437  0.2834  0.3015
 2037TIP3    H127602   1.085   6.703   1.719  1.6774  0.3658 -0.0673
 2037TIP3    H227603   1.160   6.611   1.626  0.5075 -2.0107  1.2589
 2038TIP3   OH227604   2.025   2.817  12.298 -0.6311  0.0067  0.5202
 2038TIP3    H127605   2.112   2.827  12.338  0.0742 -0.1901 -0.8913
 2038TIP3    H227606   1.976   2.763  12.359  0.3793 -0.2134  1.1570
 2039TIP3   OH227607   4.131   1.654  14.321 -0.0023  0.5303 -0.5873
 2039TIP3    H127608   4.036   1.663  14.332  0.1723  2.6632 -0.3946
 2039TIP3    H227609   4.151   1.704  14.242  0.8835 -0.6132 -1.1224
 2040TIP3   OH227610   1.090   4.337  13.648  0.1324  0.5208 -0.2774
 2040TIP3    H127611   1.093   4.373  13.736  0.4739  1.6270 -0.7326
 2040TIP3    H227612   1.144   4.396  13.596  2.5834 -1.8103 -0.6489
 2041TIP3   OH227613   3.976   6.783  13.750  0.3105  0.3033 -0.1608
 2041TIP3    H127614   3.963   6.852  13.815  2.0118  0.3692  0.1466
 2041TIP3    H227615   3.998   6.705  13.801  0.7254  0.1265 -0.6003
 2042TIP3   OH227616   0.174   5.535  12.529  0.2814 -0.4967  0.3984
 2042TIP3    H127617   0.212   5.461  12.481  1.4212  0.0483  0.4344
 2042TIP3    H227618   0.090   5.551  12.485  0.1505 -1.6153  0.2051
 2043TIP3   OH227619   1.576   5.576  14.642  0.3147  0.2615 -0.0522
 2043TIP3    H127620   1.602   5.668  14.651  3.8022 -0.5843 -0.2203
 2043TIP3    H227621   1.566   5.545  14.732  0.8569  0.3752  0.0479
 2044TIP3   OH227622   0.779   2.176   3.564  0.1778 -0.4720  0.0662
 2044TIP3    H127623   0.796   2.202   3.474  0.0470  1.2841  0.4971
 2044TIP3    H227624   0.794   2.256   3.615  1.3905 -1.6967  1.7498
 2045TIP3   OH227625   5.061   0.924  15.375  1.1821 -0.0011  0.1256
 2045TIP3    H127626   5.069   0.962  15.288 -1.8407 -2.1257 -1.2627
 2045TIP3    H227627   5.148   0.891  15.396  2.0023  0.6367 -2.0481
 2046TIP3   OH227628   4.290   5.872  10.500 -0.0269 -0.4667 -0.0145
 2046TIP3    H127629   4.357   5.885  10.567 -0.2277 -2.9194  0.7708
 2046TIP3    H227630   4.210   5.910  10.538 -0.0068 -1.3095  0.9105
 2047TIP3   OH227631   6.737   0.986   0.076  0.4815 -0.0705  0.0543
 2047TIP3    H127632   6.784   1.034   0.146  1.3180  0.0257 -0.5601
 2047TIP3    H227633   6.721   1.053   0.009  0.3738 -0.3332 -0.1797
 2048TIP3   OH227634   4.921   1.028  13.069 -0.9135 -0.3007  0.1327
 2048TIP3    H127635   4.889   0.971  13.139  0.1749  0.0903  0.9781
 2048TIP3    H227636   4.976   0.971  13.015 -1.7431 -0.5997 -0.4142
 2049TIP3   OH227637   4.679   4.327   5.056 -0.4136  0.0526 -0.0999
 2049TIP3    H127638   4.677   4.338   4.961  0.9259  3.4943  0.1113
 2049TIP3    H227639   4.647   4.411   5.090  0.6408 -0.4944  2.4756
 2050TIP3   OH227640   3.334   1.173   4.355  0.5139  0.3771 -0.3555
 2050TIP3    H127641   3.321   1.118   4.277 -0.9439 -0.3388  0.3386
 2050TIP3    H227642   3.273   1.246   4.343  0.0063  0.0706  0.2530
 2051TIP3   OH227643   5.048   2.205  14.740 -0.2392 -0.1822 -0.1494
 2051TIP3    H127644   5.037   2.142  14.669 -0.4812 -1.4849  0.9743
 2051TIP3    H227645   4.976   2.185  14.800  1.1057 -0.5149  1.4238
 2052TIP3   OH227646   4.108   4.224  12.111  0.0490 -0.1129  0.5124
 2052TIP3    H127647   4.117   4.130  12.122  0.0068  0.0325  1.9037
 2052TIP3    H227648   4.196   4.259  12.121 -0.1700  0.1404  1.6408
 2053TIP3   OH227649   5.060   3.863   2.744  0.4521 -0.0333  0.0723
 2053TIP3    H127650   5.037   3.951   2.777 -1.3118 -0.8649  1.2210
 2053TIP3    H227651   5.150   3.873   2.712  0.7006  1.9355  1.1620
 2054TIP3   OH227652   2.047   5.970   1.124  0.1037  0.1770  0.6015
 2054TIP3    H127653   2.069   5.919   1.046  0.1319  0.0430  0.6951
 2054TIP3    H227654   2.116   5.948   1.186 -0.0297  0.1275  0.7329
 2055TIP3   OH227655   4.963   2.582  14.334 -0.1199 -0.4747  0.0114
 2055TIP3    H127656   5.053   2.581  14.302  0.2041  0.1781  0.8873
 2055TIP3    H227657   4.950   2.495  14.373  0.4122 -0.2789  0.6386
 2056TIP3   OH227658   3.906   1.054  14.225 -0.0395  0.6083  0.3052
 2056TIP3    H127659   3.966   0.984  14.199 -0.0731  1.3204 -1.9120
 2056TIP3    H227660   3.961   1.115  14.274  0.0684 -0.7445  1.9625
 2057TIP3   OH227661   3.442   1.001  16.610  0.3533 -0.3298 -0.0889
 2057TIP3    H127662   3.465   1.093  16.598  0.4015 -0.1110  1.3928
 2057TIP3    H227663   3.389   0.979  16.534  2.4205  0.1744 -1.7667
 2058TIP3   OH227664   3.516   5.166   2.455 -0.9067 -0.4281  0.1136
 2058TIP3    H127665   3.538   5.082   2.496 -0.4596  0.0655  0.9298
 2058TIP3    H227666   3.506   5.145   2.362 -0.1056 -1.2644  0.1928
 2059TIP3   OH227667   1.090   5.041   4.449 -1.4973  0.2673 -0.4679
 2059TIP3    H127668   1.126   4.982   4.383 -2.0777  0.3331 -0.8430
 2059TIP3    H227669   1.155   5.111   4.456  0.2993 -1.4553  1.5451
 2060TIP3   OH227670   5.758   6.767  14.768  0.4667 -0.1907 -0.3403
 2060TIP3    H127671   5.702   6.792  14.842 -1.6716  0.3583 -2.0223
 2060TIP3    H227672   5.817   6.842  14.757  0.6520 -0.1761  0.6311
 2061TIP3   OH227673   5.981   6.136  16.226  0.2974  0.1040  0.6484
 2061TIP3    H127674   5.969   6.166  16.316 -0.4587  0.1921  0.5189
 2061TIP3    H227675   6.074   6.153  16.208 -0.2279  3.3031  0.2549
 2062TIP3   OH227676   0.491   4.029  13.653  0.2251  1.0425  0.2865
 2062TIP3    H127677   0.403   3.993  13.644  1.2326 -1.0983 -2.3417
 2062TIP3    H227678   0.497   4.055  13.745 -2.2577 -1.1821  1.2030
 2063TIP3   OH227679   1.221   2.643  15.073 -0.1124 -0.0938  0.0238
 2063TIP3    H127680   1.155   2.583  15.108  0.7335 -2.2504 -1.8657
 2063TIP3    H227681   1.302   2.618  15.118  1.0408 -3.0505 -3.3010
 2064TIP3   OH227682   0.327   3.423  11.797  0.0661  0.2840 -0.2325
 2064TIP3    H127683   0.248   3.372  11.813 -0.9762  1.5910 -1.0525
 2064TIP3    H227684   0.342   3.470  11.879  0.5563 -0.6725  0.2424
 2065TIP3   OH227685   2.201   3.878  12.645 -0.1789 -0.1827  0.0217
 2065TIP3    H127686   2.231   3.895  12.734  1.1749 -0.7335 -0.3015
 2065TIP3    H227687   2.201   3.783  12.638 -0.0877 -0.1363 -0.6323
 2066TIP3   OH227688   1.100   3.618  11.847 -0.4477  0.4262 -0.3643
 2066TIP3    H127689   1.176   3.567  11.818 -0.6342  0.1500 -0.3679
 2066TIP3    H227690   1.123   3.708  11.827  1.3877  0.7993  2.7578
 2067TIP3   OH227691   3.068   0.012  13.061  0.1152 -0.1880  0.4029
 2067TIP3    H127692   3.052  -0.041  13.138  0.0692 -2.1135 -0.8678
 2067TIP3    H227693   3.164   0.011  13.050  0.2054  0.9170  0.9728
 2068TIP3   OH227694   1.744   4.717   4.917 -0.0786 -0.4506  0.3069
 2068TIP3    H127695   1.787   4.700   4.833 -2.4350 -2.0784 -0.7065
 2068TIP3    H227696   1.808   4.689   4.983  1.1230 -0.9604 -1.0222
 2069TIP3   OH227697   2.764   3.367   0.860 -0.1796  0.0255  0.2295
 2069TIP3    H127698   2.720   3.336   0.781  0.8740  1.5018 -1.0013
 2069TIP3    H227699   2.698   3.419   0.906 -1.0494 -1.5196  0.7994
 2070TIP3   OH227700   5.932   0.685  15.419  0.1093  0.2544 -0.1681
 2070TIP3    H127701   5.929   0.776  15.449 -1.3224  1.0014 -2.3599
 2070TIP3    H227702   6.025   0.663  15.422  0.4566  1.6689  0.7231
 2071TIP3   OH227703   2.695   6.260   5.219  1.3199 -0.2762 -0.3417
 2071TIP3    H127704   2.703   6.233   5.311  1.9320 -0.8380 -0.5541
 2071TIP3    H227705   2.649   6.187   5.177  0.2814  0.3432 -0.3274
 2072TIP3   OH227706   3.977   6.707  15.408  0.2734 -0.1301  0.0041
 2072TIP3    H127707   4.041   6.720  15.478 -2.0936  2.3438  1.9426
 2072TIP3    H227708   3.898   6.677  15.453 -0.5943 -1.0717 -2.0156
 2073TIP3   OH227709   5.233   1.081  13.575 -0.1355  0.2792 -0.0128
 2073TIP3    H127710   5.307   1.057  13.519  0.4706  0.5254  0.6653
 2073TIP3    H227711   5.187   0.998  13.590  0.6822 -0.0862  0.5173
 2074TIP3   OH227712   2.065   5.024  15.512  0.3971  0.4637  0.3029
 2074TIP3    H127713   2.070   5.084  15.438  0.9339 -0.2951 -0.2881
 2074TIP3    H227714   2.106   5.072  15.584  0.2807  1.0329 -0.0039
 2075TIP3   OH227715   5.840   5.669  15.420 -0.1986 -0.8732 -0.3068
 2075TIP3    H127716   5.781   5.730  15.466 -0.0324 -0.9605  0.0302
 2075TIP3    H227717   5.824   5.585  15.463 -0.1752 -0.9946 -0.5382
 2076TIP3   OH227718   1.782   1.989  12.224 -0.1630 -0.6392 -0.3649
 2076TIP3    H127719   1.733   2.030  12.295  2.9856 -3.1469  3.7584
 2076TIP3    H227720   1.730   1.911  12.202 -1.0098 -0.0177 -0.6128
 2077TIP3   OH227721   5.278   5.233   4.470  1.1786 -0.0277 -0.6907
 2077TIP3    H127722   5.320   5.148   4.482 -0.4438 -0.7703  0.0407
 2077TIP3    H227723   5.265   5.266   4.558 -0.8929 -0.4386 -0.7772
 2078TIP3   OH227724   1.643   1.971  14.855  0.2779 -0.1389 -0.4359
 2078TIP3    H127725   1.720   1.943  14.904  0.5097 -0.0336 -0.7419
 2078TIP3    H227726   1.673   2.044  14.802 -0.3645  0.8197  0.4831
 2079TIP3   OH227727   4.225   4.789  12.527  0.5088  0.4902  0.1219
 2079TIP3    H127728   4.149   4.798  12.584  0.1051  0.4822 -0.4063
 2079TIP3    H227729   4.208   4.851  12.455 -0.4785 -1.6473 -1.5913
 2080TIP3   OH227730   6.515   5.468   0.547  0.1300 -0.0169  0.1306
 2080TIP3    H127731   6.503   5.490   0.639 -1.1349 -0.1556  0.0078
 2080TIP3    H227732   6.477   5.542   0.499  0.1688 -0.2603 -0.2792
 2081TIP3   OH227733   6.645   6.195  14.249 -0.4855 -0.4575 -0.1567
 2081TIP3    H127734   6.639   6.152  14.334  0.5467 -2.1311 -0.8787
 2081TIP3    H227735   6.610   6.132  14.186  0.7119 -0.1433 -1.2097
 2082TIP3   OH227736   5.825   2.868  13.025  0.9808  0.1627  0.2938
 2082TIP3    H127737   5.816   2.900  13.115 -2.9902  0.4629 -0.0206
 2082TIP3    H227738   5.834   2.947  12.973 -0.8176  0.3473  0.1852
 2083TIP3   OH227739   1.217   1.437   0.060 -0.1069 -0.0546 -0.3507
 2083TIP3    H127740   1.268   1.369   0.017 -1.8769 -2.0584  0.4942
 2083TIP3    H227741   1.174   1.484  -0.011 -0.6908 -1.3916 -0.9190
 2084TIP3   OH227742   5.773   6.670  14.092 -0.4411  0.5167 -0.2419
 2084TIP3    H127743   5.724   6.605  14.142  0.1365 -0.0502 -0.3944
 2084TIP3    H227744   5.707   6.714  14.038 -0.7842 -0.2552 -0.4656
 2085TIP3   OH227745   0.912   0.328   0.820  0.0260  0.1535 -0.0767
 2085TIP3    H127746   0.894   0.392   0.889 -0.1485  0.7294 -0.6484
 2085TIP3    H227747   0.826   0.294   0.796  0.0491  0.2549 -0.3003
 2086TIP3   OH227748   3.294   3.293  12.339  0.1428 -0.2883 -0.1408
 2086TIP3    H127749   3.363   3.360  12.344  0.7200 -0.8027 -0.9121
 2086TIP3    H227750   3.278   3.282  12.246  0.0305 -1.1961 -0.0226
 2087TIP3   OH227751   4.972   0.998  12.295 -0.0507 -0.6478  0.1225
 2087TIP3    H127752   5.029   1.012  12.220  1.7962  0.7281  1.6691
 2087TIP3    H227753   4.970   1.084  12.339  0.2881 -1.7792  2.5112
 2088TIP3   OH227754   2.053   1.923  15.159  0.7599  0.0533 -0.4078
 2088TIP3    H127755   2.065   2.009  15.199  1.2582 -1.2139  2.4081
 2088TIP3    H227756   2.142   1.890  15.146  0.5884 -0.9772  0.8492
 2089TIP3   OH227757   6.129   2.899   3.802  0.4121 -0.5440  0.2573
 2089TIP3    H127758   6.088   2.966   3.747 -0.6103  0.8922  2.6169
 2089TIP3    H227759   6.061   2.832   3.813  0.2510 -0.3280  0.5895
 2090TIP3   OH227760   0.462   0.245   0.361  0.2413 -0.2192  0.2927
 2090TIP3    H127761   0.425   0.187   0.295 -1.9506  0.5783  0.7220
 2090TIP3    H227762   0.485   0.188   0.435 -0.4436 -0.7236  0.1213
 2091TIP3   OH227763   2.583   2.384   1.770 -0.2547  0.6218 -0.0838
 2091TIP3    H127764   2.531   2.317   1.815 -1.6828  1.2245 -0.7879
 2091TIP3    H227765   2.554   2.380   1.679  1.6942  0.2930 -0.7482
 2092TIP3   OH227766   4.763   3.805  12.968  0.2314 -0.3016  0.0605
 2092TIP3    H127767   4.687   3.852  13.001 -0.2558  1.0673 -2.7490
 2092TIP3    H227768   4.836   3.836  13.022 -0.5468  1.5935  0.1021
 2093TIP3   OH227769   3.056   1.749   0.955  0.0683  0.3227  0.3334
 2093TIP3    H127770   2.992   1.679   0.967 -0.7971  0.8795 -0.8569
 2093TIP3    H227771   3.005   1.829   0.951  0.7101  0.6912 -1.6022
 2094TIP3   OH227772   6.790   1.243  16.586 -0.6642 -0.8210 -0.1689
 2094TIP3    H127773   6.838   1.258  16.667  1.0554 -0.5918 -1.1879
 2094TIP3    H227774   6.772   1.149  16.586 -0.4303 -0.8704  0.3446
 2095TIP3   OH227775   2.563   0.367  13.309 -0.5534 -0.3110  0.1563
 2095TIP3    H127776   2.577   0.280  13.347 -1.0729 -0.6305 -0.3773
 2095TIP3    H227777   2.499   0.408  13.367  0.1360 -0.0441  0.7561
 2096TIP3   OH227778   1.705   5.832  11.988 -0.1910  0.1162 -0.5708
 2096TIP3    H127779   1.674   5.751  11.946 -0.1016  0.4584 -1.3070
 2096TIP3    H227780   1.678   5.823  12.080 -3.0291  0.6403 -1.2514
 2097TIP3   OH227781   1.589   4.293   1.034  1.0339 -0.0852 -0.5507
 2097TIP3    H127782   1.523   4.257   1.093  0.9071  0.4919 -0.3328
 2097TIP3    H227783   1.631   4.217   0.995  0.6811 -0.4630 -0.1959
 2098TIP3   OH227784   1.189   4.702  10.664 -0.0775  0.0739 -0.4952
 2098TIP3    H127785   1.233   4.649  10.597  1.0816 -0.2649  0.5126
 2098TIP3    H227786   1.235   4.785  10.663 -0.7704  0.4686 -0.8541
 2099TIP3   OH227787   2.416   2.813  15.352 -0.2281  0.2580 -0.4276
 2099TIP3    H127788   2.417   2.889  15.410  0.2335  0.2230 -0.3868
 2099TIP3    H227789   2.339   2.763  15.380 -2.4045  2.2134 -2.4279
 2100TIP3   OH227790   0.046   3.679   6.154 -0.4847 -0.4305  0.5596
 2100TIP3    H127791   0.077   3.684   6.245  0.0035 -0.3174  0.3861
 2100TIP3    H227792  -0.014   3.604   6.155 -1.6442  0.4829  1.3100
 2101TIP3   OH227793   5.071   5.263   5.077 -0.1696 -0.2142  0.0642
 2101TIP3    H127794   5.139   5.296   5.018  0.6452 -0.0181  1.0806
 2101TIP3    H227795   4.990   5.270   5.026  0.3454  0.9804 -0.6428
 2102TIP3   OH227796   1.111   1.203   3.856 -0.2629  0.3160 -0.0235
 2102TIP3    H127797   1.187   1.227   3.908  0.9370  0.4459 -1.7606
 2102TIP3    H227798   1.144   1.137   3.794 -1.0558  1.7388 -2.0721
 2103TIP3   OH227799   1.220   2.100   4.704 -0.3199 -0.0941 -0.3406
 2103TIP3    H127800   1.224   2.141   4.618 -1.3263 -0.2875 -0.4968
 2103TIP3    H227801   1.311   2.085   4.728 -0.0090  0.5606 -1.0819
 2104TIP3   OH227802   5.635   2.061   4.437  0.4057 -0.4040 -0.0726
 2104TIP3    H127803   5.695   2.028   4.504  0.7920  2.9110  1.4266
 2104TIP3    H227804   5.612   2.149   4.467 -1.7438  0.1326 -2.8745
 2105TIP3   OH227805   2.767   4.249  14.357 -0.3305 -0.3867 -0.3440
 2105TIP3    H127806   2.787   4.237  14.264  0.2161 -1.1417 -0.1370
 2105TIP3    H227807   2.672   4.246  14.362 -0.3388 -1.0349 -0.7909
 2106TIP3   OH227808   3.865   1.637   0.839 -0.6924  0.0679  0.3613
 2106TIP3    H127809   3.956   1.639   0.869 -0.5143 -0.8947 -0.0793
 2106TIP3    H227810   3.815   1.618   0.918 -0.2324 -2.3540  0.1459
 2107TIP3   OH227811   3.351   4.004  11.490  0.0352  0.5485 -0.4360
 2107TIP3    H127812   3.391   4.042  11.568 -1.1121 -3.6080  2.5463
 2107TIP3    H227813   3.258   3.996  11.513 -0.2298 -1.2878 -1.9318
 2108TIP3   OH227814   3.301   1.506   2.020  0.0590 -0.3699 -0.1772
 2108TIP3    H127815   3.281   1.456   2.098  3.3675  1.3699  2.0618
 2108TIP3    H227816   3.216   1.525   1.980 -1.8169 -1.2972  3.0414
 2109TIP3   OH227817   6.255   1.409  15.361 -0.1560 -0.3353 -0.1099
 2109TIP3    H127818   6.197   1.417  15.436  0.4693  0.5266  0.2967
 2109TIP3    H227819   6.338   1.378  15.399 -0.1658 -0.9796 -0.6005
 2110TIP3   OH227820   6.123   4.144   1.361  0.2319  0.0582 -0.0349
 2110TIP3    H127821   6.033   4.116   1.346 -0.0265  0.0730  1.4019
 2110TIP3    H227822   6.167   4.066   1.396  0.6293  0.2147 -0.1774
 2111TIP3   OH227823   4.719   1.893   1.555  0.3955 -0.1008 -0.0777
 2111TIP3    H127824   4.692   1.805   1.582 -0.1054  0.5597  1.6910
 2111TIP3    H227825   4.815   1.891   1.559  0.3727 -0.4485  0.3322
 2112TIP3   OH227826   3.947   3.129  15.560 -0.6399 -0.3437 -0.4956
 2112TIP3    H127827   3.997   3.177  15.626  1.4700 -2.5532 -0.3449
 2112TIP3    H227828   3.984   3.157  15.476 -1.5206  0.5045 -0.6224
 2113TIP3   OH227829   1.556   4.543   3.714 -0.2311 -0.3525 -0.3721
 2113TIP3    H127830   1.526   4.515   3.801  1.2464 -0.5054  0.1116
 2113TIP3    H227831   1.478   4.535   3.658 -2.1753  2.7736  1.5501
 2114TIP3   OH227832   5.600   2.371  14.030  0.4870  0.1201  0.5135
 2114TIP3    H127833   5.579   2.367  13.937  1.2963  0.8201  0.2954
 2114TIP3    H227834   5.584   2.282  14.062  0.5882 -0.2253 -0.3729
 2115TIP3   OH227835   5.458   4.110   4.214  0.3597 -0.0461  0.0258
 2115TIP3    H127836   5.444   4.055   4.290  0.0391 -1.2648 -0.8903
 2115TIP3    H227837   5.518   4.178   4.245 -1.1769  0.5824  1.8496
 2116TIP3   OH227838   2.721   0.532  17.113 -0.5542 -0.0784 -0.6739
 2116TIP3    H127839   2.770   0.528  17.195 -0.5203  0.4241 -0.6671
 2116TIP3    H227840   2.698   0.441  17.094 -2.1787 -0.0340  0.8686
 2117TIP3   OH227841   5.271   4.010  11.043  0.4175  0.3819  0.6676
 2117TIP3    H127842   5.240   3.992  10.954  0.3839 -0.4232  0.8409
 2117TIP3    H227843   5.366   3.999  11.038  0.4846  0.9439  0.5953
 2118TIP3   OH227844   4.646   3.242   4.693  0.6677 -0.0794 -0.1534
 2118TIP3    H127845   4.721   3.243   4.753  0.8223 -0.0941 -0.3457
 2118TIP3    H227846   4.607   3.156   4.705  0.2886  0.1644  0.4304
 2119TIP3   OH227847   2.562   6.190   4.662  0.1394  0.2368 -0.0011
 2119TIP3    H127848   2.602   6.276   4.674  0.4534  0.2124 -0.8683
 2119TIP3    H227849   2.499   6.183   4.734  1.9222  0.1105  1.6292
 2120TIP3   OH227850   3.223   6.399   1.194  0.3294  0.2680 -0.3319
 2120TIP3    H127851   3.306   6.358   1.169 -0.0068 -0.8689  0.3395
 2120TIP3    H227852   3.166   6.384   1.119  0.9593  1.8614 -1.1875
 2121TIP3   OH227853   5.266   2.097   1.234  0.0707 -0.2142  0.4922
 2121TIP3    H127854   5.244   2.039   1.161  1.2119  0.6955 -0.6296
 2121TIP3    H227855   5.197   2.081   1.299 -1.0410 -0.9873 -0.8128
 2122TIP3   OH227856   2.834   4.595  14.451 -0.4093  0.1029 -0.0823
 2122TIP3    H127857   2.924   4.569  14.430  0.2864  2.0050  0.2847
 2122TIP3    H227858   2.790   4.513  14.473  1.3630 -0.8386  0.1841
 2123TIP3   OH227859   0.543   4.592  11.244 -0.2017  0.2194 -0.5031
 2123TIP3    H127860   0.631   4.578  11.209 -0.9628  0.7478 -2.8108
 2123TIP3    H227861   0.549   4.676  11.291  0.6211  0.0070 -0.2065
 2124TIP3   OH227862   4.091   3.192   1.825  0.0564  0.0332 -0.3251
 2124TIP3    H127863   4.141   3.158   1.751  0.7108 -0.6196  0.3985
 2124TIP3    H227864   4.008   3.145   1.821  0.5373 -0.8814  0.0240
 2125TIP3   OH227865   2.619   0.399   3.789  0.3096  0.9492  0.1584
 2125TIP3    H127866   2.708   0.392   3.824  0.2882  1.3184  0.2821
 2125TIP3    H227867   2.563   0.368   3.860  0.3947 -0.2957 -0.2751
 2126TIP3   OH227868   4.002   1.143  16.967 -0.3575 -0.4787  0.0827
 2126TIP3    H127869   4.041   1.220  17.008  0.4544 -1.1532  0.5982
 2126TIP3    H227870   4.066   1.073  16.979 -0.2447 -0.8112 -1.9804
 2127TIP3   OH227871   5.785   0.407  12.416  0.1421 -0.3078  0.4848
 2127TIP3    H127872   5.765   0.377  12.327  0.0809 -0.5906  0.5949
 2127TIP3    H227873   5.836   0.337  12.455  0.4240 -0.0554  0.5757
 2128TIP3   OH227874   5.530   1.282  15.936 -0.2159 -0.1656  0.3156
 2128TIP3    H127875   5.438   1.262  15.955 -0.4627  2.4239  2.3920
 2128TIP3    H227876   5.527   1.362  15.883  0.7939  0.9408  1.8307
 2129TIP3   OH227877   1.005   2.515   6.344 -0.0920 -0.6040  0.6400
 2129TIP3    H127878   0.967   2.601   6.357  0.0901 -0.6611  1.5830
 2129TIP3    H227879   1.066   2.526   6.271  1.5467  0.5909  2.1277
 2130TIP3   OH227880   6.483   1.575  12.526  0.6805 -0.2350 -0.2872
 2130TIP3    H127881   6.571   1.596  12.557  0.2376  1.1966  0.0592
 2130TIP3    H227882   6.425   1.621  12.586 -0.2629  0.0710 -1.4001
 2131TIP3   OH227883   1.950   0.361   2.998 -0.2435 -0.3267 -0.0145
 2131TIP3    H127884   2.027   0.401   3.039 -0.6665  1.0559 -0.5004
 2131TIP3    H227885   1.983   0.280   2.959  0.7934 -0.1533  0.4656
 2132TIP3   OH227886   4.310   6.225   0.385 -0.3909 -0.3030  0.2261
 2132TIP3    H127887   4.299   6.287   0.457 -3.0400 -1.5010  0.9886
 2132TIP3    H227888   4.403   6.202   0.387 -0.4404 -0.8000  3.7557
 2133TIP3   OH227889   4.212   5.841  17.081 -0.0871  0.7631  0.1284
 2133TIP3    H127890   4.230   5.778  17.010  0.7381  1.1780 -0.0348
 2133TIP3    H227891   4.223   5.790  17.161 -2.6725 -0.1761  0.0012
 2134TIP3   OH227892   0.811   3.965  14.691  0.2143 -0.2195  0.4839
 2134TIP3    H127893   0.867   3.890  14.670  0.0430  0.4149 -2.8040
 2134TIP3    H227894   0.722   3.935  14.671 -0.4002 -0.3712  3.1345
 2135TIP3   OH227895   4.577   2.952  12.649  0.2486  0.1213  0.8054
 2135TIP3    H127896   4.504   2.892  12.636 -1.0943  1.3586  2.2416
 2135TIP3    H227897   4.586   2.998  12.565  1.4316 -2.1146 -0.3858
 2136TIP3   OH227898   5.702   1.637  13.206  0.3055 -0.4024  0.3131
 2136TIP3    H127899   5.691   1.719  13.157 -0.0239 -0.4644  0.2772
 2136TIP3    H227900   5.612   1.609  13.225  0.3992 -1.0136 -0.1074
 2137TIP3   OH227901   0.391   2.609  11.967 -0.0548  0.2717  0.4601
 2137TIP3    H127902   0.314   2.632  12.019  1.0607  2.0354  1.4108
 2137TIP3    H227903   0.443   2.689  11.965  2.5504 -1.2938  1.2262
 2138TIP3   OH227904   4.394   4.603  14.876  0.3177 -0.0230 -0.1777
 2138TIP3    H127905   4.314   4.651  14.858  0.2574 -0.8557 -2.4189
 2138TIP3    H227906   4.373   4.512  14.855  1.9056 -0.2058 -1.1560
 2139TIP3   OH227907   4.893   0.850  13.280  0.0846  0.4200  0.2430
 2139TIP3    H127908   4.896   0.805  13.364  0.1481  1.2012  0.6720
 2139TIP3    H227909   4.817   0.813  13.236  0.4889 -0.5400  0.3211
 2140TIP3   OH227910   2.244   2.703  11.762 -0.3190  0.0562 -0.0805
 2140TIP3    H127911   2.232   2.788  11.804 -0.9167  0.5996 -1.3083
 2140TIP3    H227912   2.182   2.703  11.689 -0.7928 -1.7003  0.2695
 2141TIP3   OH227913   2.081   5.509   2.227 -0.0956 -0.2555 -0.4091
 2141TIP3    H127914   2.071   5.604   2.218 -0.7789 -0.2834 -0.0165
 2141TIP3    H227915   2.170   5.497   2.260  0.2582  0.1993 -1.1801
 2142TIP3   OH227916   5.634   1.497   0.086  0.1867  0.6493 -0.3056
 2142TIP3    H127917   5.678   1.560   0.028 -1.1938  1.7512 -0.2270
 2142TIP3    H227918   5.702   1.464   0.143  1.0589  1.6441 -0.7463
 2143TIP3   OH227919   4.594   6.417   0.636 -0.1975 -0.4079 -0.1435
 2143TIP3    H127920   4.521   6.375   0.589  0.4793 -0.6851 -0.9722
 2143TIP3    H227921   4.601   6.368   0.718  1.5902 -3.0564 -1.7458
 2144TIP3   OH227922   2.155   6.053  15.090 -0.1941  0.0231  0.1936
 2144TIP3    H127923   2.189   5.970  15.122  1.6126 -0.1490 -1.9549
 2144TIP3    H227924   2.082   6.028  15.033 -0.5302  0.0185  0.6220
 2145TIP3   OH227925   2.311   0.122   2.902 -0.0456  0.1950  0.3887
 2145TIP3    H127926   2.360   0.167   2.971  0.9439  0.3479 -0.3869
 2145TIP3    H227927   2.317   0.181   2.826  1.5219 -1.2972 -0.7454
 2146TIP3   OH227928   0.855   2.325  11.022 -0.2082 -0.2539  0.6500
 2146TIP3    H127929   0.836   2.254  10.960 -0.7832  0.0092  0.5133
 2146TIP3    H227930   0.939   2.361  10.992  0.3478 -1.2160  1.0437
 2147TIP3   OH227931   2.899   2.316  13.679  0.3174 -0.1550  0.2734
 2147TIP3    H127932   2.866   2.352  13.761  1.3543  3.6122 -0.7812
 2147TIP3    H227933   2.987   2.286  13.701  0.5267  0.6669  0.6132
 2148TIP3   OH227934   3.988   5.305  11.579  0.1727  0.1778 -0.9527
 2148TIP3    H127935   4.072   5.346  11.558  0.4273  0.6719  0.8964
 2148TIP3    H227936   3.996   5.215  11.546  1.6429  0.0498 -0.3135
 2149TIP3   OH227937   2.937   5.076  12.399  0.6898 -0.5824  0.5580
 2149TIP3    H127938   2.863   5.108  12.347  1.5441  1.4384  0.4756
 2149TIP3    H227939   2.976   5.007  12.346 -0.5477 -1.0230  0.1729
 2150TIP3   OH227940   1.761   1.433  14.143 -1.0573 -0.4742  0.3238
 2150TIP3    H127941   1.790   1.347  14.175  0.0521 -0.6652 -1.0583
 2150TIP3    H227942   1.767   1.425  14.048  1.5776  1.9032  0.1558
 2151TIP3   OH227943   6.419   3.834  13.889 -0.0815 -0.4977  0.0749
 2151TIP3    H127944   6.439   3.881  13.970  1.6005 -1.9652  0.5508
 2151TIP3    H227945   6.326   3.813  13.896 -0.7819  2.1486  0.0999
 2152TIP3   OH227946   5.398   3.980  14.432 -0.1497 -0.3883  0.6316
 2152TIP3    H127947   5.493   3.973  14.441 -0.0905  0.6257  0.8894
 2152TIP3    H227948   5.374   4.052  14.490 -1.0797 -0.6234  0.5496
 2153TIP3   OH227949   5.337   0.003   3.333  0.1492  0.0503  0.6639
 2153TIP3    H127950   5.386   0.071   3.287  0.3022 -0.3727  0.2007
 2153TIP3    H227951   5.245   0.026   3.318  0.1801 -0.5473 -0.5771
 2154TIP3   OH227952   2.459   3.543   0.314 -0.2922 -0.5287  0.6631
 2154TIP3    H127953   2.422   3.564   0.228  0.0906 -1.9071  0.1216
 2154TIP3    H227954   2.383   3.524   0.369 -0.5084 -0.9200  0.2444
 2155TIP3   OH227955   6.242   0.055  10.624 -0.2461  0.3678 -0.1411
 2155TIP3    H127956   6.313   0.021  10.570  0.9054  2.5604 -0.1222
 2155TIP3    H227957   6.234  -0.009  10.696  1.6637  0.0093 -0.1929
 2156TIP3   OH227958   5.525   3.145   4.564  0.3926  0.5296 -0.5107
 2156TIP3    H127959   5.495   3.221   4.515  1.4605  2.6179  1.8587
 2156TIP3    H227960   5.566   3.181   4.642 -0.4632 -2.5592  1.5518
 2157TIP3   OH227961   4.567   4.330  10.874  0.2247 -0.0737 -0.1370
 2157TIP3    H127962   4.479   4.294  10.859  0.0703  0.9460 -2.0304
 2157TIP3    H227963   4.622   4.288  10.808  0.5902  1.1624 -0.6539
 2158TIP3   OH227964   0.618   1.265  15.161 -0.3220 -0.3047 -0.4476
 2158TIP3    H127965   0.619   1.359  15.143  0.8459 -0.3613 -0.7581
 2158TIP3    H227966   0.705   1.234  15.135  0.9914 -0.7040  3.6503
 2159TIP3   OH227967   5.134   1.534   3.651  0.0875  0.4458  0.1285
 2159TIP3    H127968   5.145   1.522   3.557  0.4792 -0.3707  0.2729
 2159TIP3    H227969   5.062   1.598   3.659 -0.7711 -0.3948 -0.7052
 2160TIP3   OH227970   2.749   3.198   5.833 -0.3675 -0.1367 -0.1418
 2160TIP3    H127971   2.784   3.140   5.901 -1.2463 -0.6378 -0.1098
 2160TIP3    H227972   2.761   3.149   5.751 -0.3388 -0.0046 -0.2177
 2161TIP3   OH227973   0.781   0.629  16.515 -0.0275 -0.3841 -0.2385
 2161TIP3    H127974   0.743   0.643  16.428 -0.2750 -2.5878 -0.5470
 2161TIP3    H227975   0.705   0.618  16.573  0.1216 -1.2348 -0.1920
 2162TIP3   OH227976   6.600   6.073  16.492  0.2504 -0.4211 -0.1646
 2162TIP3    H127977   6.650   6.047  16.415  2.2090  1.3046  0.4460
 2162TIP3    H227978   6.609   6.168  16.496 -2.2889 -0.1210  0.5811
 2163TIP3   OH227979   0.672   1.938  14.928 -0.0057 -0.4867  0.4527
 2163TIP3    H127980   0.585   1.923  14.892  0.8715 -0.4107 -1.8692
 2163TIP3    H227981   0.670   2.028  14.959 -0.4157 -0.0719 -0.7217
 2164TIP3   OH227982   5.315   4.783   0.731 -0.3304  0.1802  0.1505
 2164TIP3    H127983   5.292   4.711   0.673  0.8736  0.8256 -1.1714
 2164TIP3    H227984   5.242   4.787   0.793 -0.4310 -2.1445  0.2747
 2165TIP3   OH227985   5.345   6.764  12.581  0.6434 -0.1496  0.5284
 2165TIP3    H127986   5.313   6.728  12.498 -0.7131 -0.8992  1.3155
 2165TIP3    H227987   5.364   6.686  12.634  0.1034  0.2948  1.3999
 2166TIP3   OH227988   6.223   4.624  14.184  0.1978  0.9306  0.3996
 2166TIP3    H127989   6.182   4.684  14.123  1.0727 -1.1480 -2.4503
 2166TIP3    H227990   6.152   4.594  14.241 -0.7334  2.6258  0.1700
 2167TIP3   OH227991   5.858   0.618  15.744 -0.1387 -0.2473 -0.0134
 2167TIP3    H127992   5.942   0.662  15.731 -0.3826  0.0999 -0.4473
 2167TIP3    H227993   5.861   0.586  15.834  0.7759 -0.9266 -0.2761
 2168TIP3   OH227994   4.737   1.557   5.268  0.0742 -0.0909 -0.4405
 2168TIP3    H127995   4.661   1.589   5.317 -0.2159  0.4622 -1.2255
 2168TIP3    H227996   4.707   1.555   5.177  1.3915  1.4292 -0.9652
 2169TIP3   OH227997   2.774   0.063   3.037 -0.2047  0.8595  0.4015
 2169TIP3    H127998   2.785   0.003   2.963 -2.4762 -0.9439  1.3920
 2169TIP3    H227999   2.860   0.065   3.079  0.4497 -0.1417 -0.8146
 2170TIP3   OH228000   2.048   6.379  13.011  0.2255  0.1697 -0.2868
 2170TIP3    H128001   2.090   6.383  12.925  0.7779  0.7212  0.0084
 2170TIP3    H228002   1.956   6.398  12.993  0.0058 -1.3885 -0.9785
 2171TIP3   OH228003   5.812   5.410  10.622 -0.1258 -0.1216  0.0388
 2171TIP3    H128004   5.746   5.354  10.581  1.1959 -0.4084 -1.8061
 2171TIP3    H228005   5.888   5.405  10.564  0.4613  2.6563  0.4023
 2172TIP3   OH228006   5.081   0.540   5.285  0.6796  0.7363  0.5288
 2172TIP3    H128007   5.111   0.459   5.244 -0.2569  0.9470 -0.6257
 2172TIP3    H228008   5.128   0.609   5.238  0.1842  0.9449  0.3352
 2173TIP3   OH228009   3.246   1.223  15.593 -0.1164 -0.0085 -0.1469
 2173TIP3    H128010   3.225   1.158  15.527  0.3852  0.9538 -1.2906
 2173TIP3    H228011   3.220   1.183  15.676  0.3971 -1.7425 -0.7889
 2174TIP3   OH228012   2.531   2.460   1.217 -0.1688 -0.7715  0.3889
 2174TIP3    H128013   2.469   2.503   1.275  1.4720  0.9266  0.9989
 2174TIP3    H228014   2.533   2.514   1.139  1.9466  0.4102  1.1772
 2175TIP3   OH228015   5.992   5.050  11.566  0.3716 -0.0883 -0.2722
 2175TIP3    H128016   5.923   4.996  11.605  0.1444  0.0612 -0.4646
 2175TIP3    H228017   6.064   4.988  11.548 -0.3045 -0.5605 -1.5322
 2176TIP3   OH228018   3.899   0.503  15.585 -0.1298  0.7457  0.2697
 2176TIP3    H128019   3.848   0.535  15.510  0.4527  1.1834  0.0492
 2176TIP3    H228020   3.942   0.582  15.620 -0.3146  0.5306  1.0050
 2177TIP3   OH228021   0.708   4.809   1.339 -0.4335  0.9807 -0.0859
 2177TIP3    H128022   0.735   4.899   1.322  0.4968  0.8259  0.5166
 2177TIP3    H228023   0.789   4.761   1.354 -1.0130  0.5008  1.7886
 2178TIP3   OH228024   5.227   4.374   0.312 -0.0956  0.0042 -0.9363
 2178TIP3    H128025   5.317   4.402   0.327 -0.4500  0.0960  1.3842
 2178TIP3    H228026   5.227   4.281   0.332 -0.4735 -0.0497 -1.1766
 2179TIP3   OH228027   6.027   2.132  12.673  0.3421 -0.0879  0.0289
 2179TIP3    H128028   6.003   2.210  12.622  0.9315  0.3624  0.4212
 2179TIP3    H228029   6.111   2.155  12.712 -0.1750 -0.3510  1.3439
 2180TIP3   OH228030   0.190   4.793  13.990 -0.9423  0.3347  0.0635
 2180TIP3    H128031   0.243   4.741  13.929  0.5435  0.4724  1.1826
 2180TIP3    H228032   0.143   4.728  14.041  1.5954 -0.0820  2.0732
 2181TIP3   OH228033   0.247   3.251   1.647 -0.0774 -0.0864  0.2861
 2181TIP3    H128034   0.193   3.289   1.717  0.0606  1.3698 -0.3426
 2181TIP3    H228035   0.314   3.201   1.693  0.5991  1.6373  1.2740
 2182TIP3   OH228036   4.302   5.462  13.445  0.0291 -0.6804  0.1346
 2182TIP3    H128037   4.284   5.368  13.445 -1.8108 -0.4759 -3.1227
 2182TIP3    H228038   4.334   5.481  13.357  0.2182  1.8038  0.6488
 2183TIP3   OH228039   1.859   5.515   0.783 -0.3702 -0.4669  0.0992
 2183TIP3    H128040   1.784   5.551   0.737 -0.8499 -0.1273  1.1079
 2183TIP3    H228041   1.920   5.589   0.791 -0.4424 -0.4286  0.3109
 2184TIP3   OH228042   5.697   5.120   3.814  0.4008  0.3244 -0.6464
 2184TIP3    H128043   5.775   5.169   3.788  0.8870 -0.6957 -1.1486
 2184TIP3    H228044   5.647   5.182   3.868  1.8064  0.8350  0.1312
 2185TIP3   OH228045   5.695   5.735   2.658  0.0195 -0.2272  0.1434
 2185TIP3    H128046   5.683   5.709   2.567 -1.1659 -0.1825  0.2737
 2185TIP3    H228047   5.702   5.652   2.706 -1.0911 -0.3029  0.2138
 2186TIP3   OH228048   3.374   1.972  15.494  0.2598 -0.5035  0.2469
 2186TIP3    H128049   3.345   2.015  15.414 -0.8549 -0.3945  0.6883
 2186TIP3    H228050   3.339   1.883  15.486 -0.2146 -0.3693  0.7951
 2187TIP3   OH228051   5.243   1.821   2.573  0.1144  0.5458 -0.1627
 2187TIP3    H128052   5.182   1.893   2.592  0.1720  1.0454 -1.7410
 2187TIP3    H228053   5.328   1.853   2.602 -0.2905 -0.0845  1.8891
 2188TIP3   OH228054   5.554   2.043  13.080  0.0798 -0.0903 -0.0420
 2188TIP3    H128055   5.471   2.060  13.124  0.8058 -0.0201  1.3838
 2188TIP3    H228056   5.531   2.028  12.988 -1.3341  1.4650  0.0149
 2189TIP3   OH228057   5.413   4.502   0.972  0.2133 -0.1841  0.1950
 2189TIP3    H128058   5.405   4.532   0.882 -1.8820 -0.8289  0.1163
 2189TIP3    H228059   5.370   4.570   1.024  1.5882  0.2868  0.7696
 2190TIP3   OH228060   0.158   5.475  16.933 -0.1544 -0.0120 -0.0190
 2190TIP3    H128061   0.100   5.462  16.859 -0.3288 -0.2410  0.1553
 2190TIP3    H228062   0.172   5.569  16.937  0.9376 -0.0955 -1.1602
 2191TIP3   OH228063   6.639   5.608  15.770  0.0243 -0.1458 -0.1224
 2191TIP3    H128064   6.726   5.631  15.736 -0.2820  2.0868  0.4337
 2191TIP3    H228065   6.580   5.622  15.697  0.1952 -2.9305 -0.9044
 2192TIP3   OH228066   2.857   6.119  17.102  0.5541 -0.5000  0.1109
 2192TIP3    H128067   2.893   6.187  17.044 -0.3959 -0.1482 -0.0969
 2192TIP3    H228068   2.825   6.167  17.178 -0.6800 -0.6092 -0.3058
 2193TIP3   OH228069   5.075   0.401  10.952  0.3794  0.6208  0.1458
 2193TIP3    H128070   5.125   0.403  10.870 -0.7194 -0.0823 -0.5685
 2193TIP3    H228071   4.992   0.443  10.931 -0.4324 -0.7401  0.5247
 2194TIP3   OH228072   1.305   4.519   5.452  1.1307 -0.3300  0.2182
 2194TIP3    H128073   1.303   4.473   5.368 -0.8299  2.0156 -1.1362
 2194TIP3    H228074   1.316   4.611   5.429  1.6078  0.2766  2.6304
 2195TIP3   OH228075   0.947   3.553   5.260 -0.8408  0.4490 -0.3459
 2195TIP3    H128076   0.905   3.480   5.304  0.7296 -0.5835 -0.4638
 2195TIP3    H228077   0.888   3.574   5.188 -1.4379 -0.5703 -0.1828
 2196TIP3   OH228078   1.997   4.082  16.000  0.1731 -0.2455  0.3174
 2196TIP3    H128079   2.045   4.134  16.064 -0.0731  2.0055 -1.2220
 2196TIP3    H228080   2.054   4.078  15.924 -0.7974 -0.2039 -0.4349
 2197TIP3   OH228081   6.370   0.823  15.765 -0.4596  0.5022  0.0374
 2197TIP3    H128082   6.451   0.791  15.805 -0.6918  0.2827  0.3398
 2197TIP3    H228083   6.394   0.906  15.726  0.1314  0.0121 -0.6741
 2198TIP3   OH228084   2.533   0.716   4.862  0.3719 -0.0957  0.1393
 2198TIP3    H128085   2.584   0.644   4.898 -0.3266 -0.1074  1.1537
 2198TIP3    H228086   2.470   0.737   4.930 -0.2839  0.6192 -0.6607
 2199TIP3   OH228087   2.173   2.333  12.687 -0.4996 -0.0280  0.1571
 2199TIP3    H128088   2.226   2.387  12.746 -0.3417  1.2815 -1.1467
 2199TIP3    H228089   2.236   2.292  12.628 -0.8009  0.0986 -0.2557
 2200TIP3   OH228090   5.073   2.986  10.965 -0.0459 -0.3265 -0.1917
 2200TIP3    H128091   5.135   2.951  10.900  1.5329 -2.8465  2.3761
 2200TIP3    H228092   5.017   3.045  10.916  2.5054 -0.2127 -3.3308
 2201TIP3   OH228093   4.251   3.602  13.932 -0.0963 -0.6057 -0.3804
 2201TIP3    H128094   4.305   3.627  13.857  1.2997 -1.5158  0.2674
 2201TIP3    H228095   4.293   3.645  14.007 -0.7725 -0.6554  0.0339
 2202TIP3   OH228096   0.149   4.533  12.975 -0.1907  0.2610 -0.0934
 2202TIP3    H128097   0.092   4.514  13.049  0.4942  0.8296  0.5997
 2202TIP3    H228098   0.217   4.589  13.012  0.0464  0.7157 -1.2049
 2203TIP3   OH228099   3.432   5.751   3.104  0.1457  1.1409 -0.0864
 2203TIP3    H128100   3.522   5.763   3.075  0.5263 -1.8123 -0.4468
 2203TIP3    H228101   3.382   5.743   3.022  0.0727 -0.1245  0.0618
 2204TIP3   OH228102   1.115   4.555   4.894  0.0152 -0.0881  0.1930
 2204TIP3    H128103   1.201   4.546   4.935 -0.1940  2.0764  1.2166
 2204TIP3    H228104   1.128   4.621   4.826 -0.2251 -1.8488 -1.6699
 2205TIP3   OH228105   1.271   5.499  14.617 -0.4576 -0.1138 -0.2523
 2205TIP3    H128106   1.218   5.419  14.618 -1.4746  0.5416 -0.4742
 2205TIP3    H228107   1.207   5.570  14.611  0.4582  0.6941 -0.7095
 2206TIP3   OH228108   3.866   4.801  12.278  0.3763 -0.3834  0.1881
 2206TIP3    H128109   3.901   4.854  12.207  1.0133  0.9240  1.4366
 2206TIP3    H228110   3.854   4.714  12.239 -2.7237  1.0425 -2.5488
 2207TIP3   OH228111   2.784   5.384  11.968 -0.4136 -0.0737 -0.2780
 2207TIP3    H128112   2.761   5.313  12.028  0.7776  0.1185  0.4150
 2207TIP3    H228113   2.878   5.395  11.977 -0.6731  2.2312  0.3370
 2208TIP3   OH228114   2.672   5.009  11.797  0.0930  0.2017 -0.1881
 2208TIP3    H128115   2.611   5.083  11.786 -2.2182 -1.5974 -0.2179
 2208TIP3    H228116   2.686   4.976  11.709  3.1263  1.9707 -0.5134
 2209TIP3   OH228117   6.357   2.864  13.352  0.3170 -0.1176 -0.3277
 2209TIP3    H128118   6.315   2.904  13.276  0.7587 -0.1938 -0.6099
 2209TIP3    H228119   6.285   2.850  13.414 -0.2003 -0.8516 -1.0662
 2210TIP3   OH228120   3.449   2.748  13.274 -0.0828  0.4461  0.0997
 2210TIP3    H128121   3.532   2.701  13.274 -0.3226 -0.0078  1.1495
 2210TIP3    H228122   3.383   2.679  13.275 -0.5031  0.7955 -1.2168
 2211TIP3   OH228123   1.555   0.743  11.710 -0.3147  0.2016  0.5002
 2211TIP3    H128124   1.477   0.703  11.672 -1.7318  2.8510  0.3916
 2211TIP3    H228125   1.572   0.692  11.789 -3.0705  0.4075  1.3274
 2212TIP3   OH228126   6.782   2.848   1.375 -0.4091 -0.0438 -0.6019
 2212TIP3    H128127   6.771   2.756   1.351  0.3395 -1.2794  3.1599
 2212TIP3    H228128   6.876   2.863   1.370 -0.2058 -0.3922  1.3825
 2213TIP3   OH228129   0.103   1.470   3.891 -0.8734 -0.4347  0.3812
 2213TIP3    H128130   0.106   1.388   3.843  3.5183 -0.4187  0.2518
 2213TIP3    H228131   0.095   1.444   3.982  0.5942 -1.0875  0.3524
 2214TIP3   OH228132   1.838   2.038  11.648  0.1053  0.1493 -0.0157
 2214TIP3    H128133   1.789   2.070  11.572 -1.3099  0.1751  0.8819
 2214TIP3    H228134   1.774   1.990  11.700  1.5672 -1.8314  0.0575
 2215TIP3   OH228135   5.353   1.214  17.094 -0.0571  0.3186 -0.1411
 2215TIP3    H128136   5.328   1.157  17.022 -2.5442  1.5332 -0.3403
 2215TIP3    H228137   5.350   1.302  17.057 -0.6073  0.9126  1.2377
 2216TIP3   OH228138   2.641   1.444  16.567  0.5290  0.5795  0.4825
 2216TIP3    H128139   2.672   1.435  16.477 -0.1407 -0.0566  0.3073
 2216TIP3    H228140   2.715   1.416  16.621  0.6517  0.1615  0.1041
 2217TIP3   OH228141   5.462   5.874   3.448  0.2999 -0.4462 -0.2121
 2217TIP3    H128142   5.548   5.887   3.407  1.3814 -0.5910  1.8886
 2217TIP3    H228143   5.465   5.927   3.528 -2.3189  1.1055 -0.9917
 2218TIP3   OH228144   1.953   2.002  11.974 -0.3267 -0.0436 -0.5107
 2218TIP3    H128145   1.893   1.971  11.906 -1.6611  2.4757 -0.5846
 2218TIP3    H228146   1.906   1.989  12.056 -0.5658  0.9431 -0.4762
 2219TIP3   OH228147   3.744   3.032  11.433 -0.2960 -0.9509 -0.0587
 2219TIP3    H128148   3.765   3.093  11.362 -0.1039  0.3491  1.0899
 2219TIP3    H228149   3.787   2.951  11.407 -1.3953 -0.9682 -2.1251
 2220TIP3   OH228150   3.525   0.875   0.754  0.2465  0.4045 -0.8100
 2220TIP3    H128151   3.592   0.848   0.816 -0.6089  2.3670  1.0904
 2220TIP3    H228152   3.570   0.877   0.670  1.9809 -0.3695  0.0362
 2221TIP3   OH228153   5.044   5.541   4.940  0.1115  0.1507 -0.4043
 2221TIP3    H128154   5.009   5.515   5.025  0.6627 -2.3061 -0.8508
 2221TIP3    H228155   5.139   5.534   4.951  0.3347  2.5392 -0.4523
 2222TIP3   OH228156   5.125   2.468   2.030 -0.2179  0.1420 -0.0332
 2222TIP3    H128157   5.168   2.384   2.014  1.0120  0.4896  1.2741
 2222TIP3    H228158   5.147   2.522   1.955  2.9007  0.7640  1.1916
 2223TIP3   OH228159   6.339   0.113  16.797 -0.4306 -0.1590  0.1330
 2223TIP3    H128160   6.434   0.118  16.792 -0.3304 -0.5085  1.2913
 2223TIP3    H228161   6.315   0.177  16.864 -1.0267 -0.0229 -0.1989
 2224TIP3   OH228162   6.767   6.153   1.523 -0.1423 -0.5788  0.4667
 2224TIP3    H128163   6.694   6.176   1.581 -0.2520  1.3690 -0.3707
 2224TIP3    H228164   6.837   6.215   1.547  0.2523 -0.5920 -0.6147
 2225TIP3   OH228165   1.058   4.488  12.424 -0.1239  0.6160  0.2185
 2225TIP3    H128166   1.114   4.421  12.464 -1.0302 -0.2200  0.1084
 2225TIP3    H228167   1.113   4.526  12.355  0.3660 -0.0711  0.2180
 2226TIP3   OH228168   1.621   4.986  13.533 -0.1197  0.1471 -0.9132
 2226TIP3    H128169   1.619   4.976  13.438  1.6413  1.2509 -1.1104
 2226TIP3    H228170   1.581   5.071  13.549  0.6081  0.4722 -0.7833
 2227TIP3   OH228171   2.982   2.838  16.146  0.0474  0.0946  0.1338
 2227TIP3    H128172   2.943   2.784  16.077 -0.8864  1.4974 -0.4820
 2227TIP3    H228173   3.075   2.841  16.123  0.0338 -0.8593 -0.0815
 2228TIP3   OH228174   1.217   0.812   6.567  0.2255  0.2804 -0.2430
 2228TIP3    H128175   1.267   0.877   6.518  0.0848  1.7125  1.4333
 2228TIP3    H228176   1.205   0.851   6.654  0.6407 -2.2546  1.0351
 2229TIP3   OH228177   0.415   2.724  13.709  0.2367  0.1588  0.0482
 2229TIP3    H128178   0.386   2.696  13.797 -0.1955 -1.3561 -0.5379
 2229TIP3    H228179   0.333   2.737  13.661  0.4874 -0.0520 -0.4336
 2230TIP3   OH228180   3.403   0.614   5.511  0.3247 -0.1080  0.0177
 2230TIP3    H128181   3.450   0.530   5.519 -0.4840 -0.4061  3.8495
 2230TIP3    H228182   3.313   0.589   5.490 -0.2170 -0.4688  2.3930
 2231TIP3   OH228183   0.552   0.698   3.725 -0.0501 -0.2084  0.2551
 2231TIP3    H128184   0.607   0.750   3.666  0.2386 -0.9642 -0.1615
 2231TIP3    H228185   0.612   0.633   3.762 -0.5819 -0.8018  0.0835
 2232TIP3   OH228186   3.310   5.907   1.467 -0.9097  0.4356  0.4170
 2232TIP3    H128187   3.334   5.817   1.486 -1.7993 -0.0224 -0.5293
 2232TIP3    H228188   3.334   5.956   1.546 -0.2029 -0.5777  0.8464
 2233TIP3   OH228189   2.099   1.253   1.625 -0.0146 -0.2476  0.6453
 2233TIP3    H128190   2.099   1.161   1.650 -0.2866  0.2332  2.6077
 2233TIP3    H228191   2.115   1.300   1.707  2.3327  1.3968 -0.6461
 2234TIP3   OH228192   2.387   5.277   0.069  0.5158 -0.0610  0.1570
 2234TIP3    H128193   2.394   5.316  -0.019 -0.2300  0.7640  0.4401
 2234TIP3    H228194   2.312   5.322   0.108  0.2854 -1.0665  0.8943
 2235TIP3   OH228195   1.448   4.577   1.392 -0.1274 -0.0008 -0.0170
 2235TIP3    H128196   1.359   4.578   1.427  0.3939  0.5785  1.3714
 2235TIP3    H228197   1.499   4.530   1.458  0.8086  0.6742 -0.2336
 2236TIP3   OH228198   2.145   1.095   0.159 -0.3942  0.2377 -0.6995
 2236TIP3    H128199   2.057   1.059   0.153 -0.9579  1.0628  1.8083
 2236TIP3    H228200   2.202   1.019   0.168 -1.1957 -0.1966  0.8550
 2237TIP3   OH228201   6.302   0.591   2.036  0.4133 -0.4250 -0.3163
 2237TIP3    H128202   6.215   0.590   1.994 -0.2123  1.0911  0.8531
 2237TIP3    H228203   6.357   0.638   1.974 -0.2424  0.8429  0.0243
 2238TIP3   OH228204   0.477   0.131   3.172 -0.1724  0.0115 -0.1699
 2238TIP3    H128205   0.503   0.214   3.131  1.3863 -0.4300 -0.1766
 2238TIP3    H228206   0.480   0.148   3.266 -0.4874  0.1428 -0.1854
 2239TIP3   OH228207   2.978   1.677   3.834  0.2085 -0.0876 -0.0806
 2239TIP3    H128208   3.018   1.658   3.920  0.3830 -1.4911 -0.4501
 2239TIP3    H228209   3.012   1.764   3.811  0.9438 -0.1140  0.8218
 2240TIP3   OH228210   3.232   3.186  17.175 -0.1552  0.4640  0.1627
 2240TIP3    H128211   3.243   3.218  17.085 -0.5468 -0.2785 -0.1570
 2240TIP3    H228212   3.138   3.193  17.192 -0.0974  0.4942  0.4813
 2241TIP3   OH228213   3.202   5.230  13.605 -0.1049 -0.0023  0.2557
 2241TIP3    H128214   3.225   5.297  13.670 -1.7515 -0.5125  1.4462
 2241TIP3    H228215   3.125   5.264  13.561 -0.5687 -0.8183  0.4160
 2242TIP3   OH228216   4.185   3.809  16.552  0.3352 -0.5455  0.3351
 2242TIP3    H128217   4.159   3.862  16.627  0.2806  0.6181 -0.4793
 2242TIP3    H228218   4.102   3.776  16.516  0.3978 -1.6069  1.1178
 2243TIP3   OH228219   3.775   1.090   4.029  1.1778 -0.1329 -0.0446
 2243TIP3    H128220   3.842   1.149   3.994 -0.0217  1.8852  0.8626
 2243TIP3    H228221   3.741   1.136   4.106 -0.8134 -1.3803 -0.1107
 2244TIP3   OH228222   5.437   1.865   6.229 -0.1559 -0.0462 -0.0400
 2244TIP3    H128223   5.358   1.906   6.266 -1.1324 -2.6224  0.9341
 2244TIP3    H228224   5.450   1.786   6.281  1.5009 -1.1024 -1.9225
 2245TIP3   OH228225   3.846   3.653  14.997  0.2744 -0.3661  0.3112
 2245TIP3    H128226   3.754   3.629  14.985  0.9338 -2.2395 -1.4933
 2245TIP3    H228227   3.886   3.575  15.035  1.2058  0.3447  0.8278
 2246TIP3   OH228228   0.217   2.290   4.611  0.4369 -0.4794 -0.0135
 2246TIP3    H128229   0.243   2.206   4.574  1.2687 -0.5087  0.6243
 2246TIP3    H228230   0.292   2.347   4.596  1.3385 -0.8255  2.7023
 2247TIP3   OH228231   0.846   0.489  15.614 -0.4741 -0.1333  0.4266
 2247TIP3    H128232   0.770   0.541  15.638  1.3079  2.1550  1.5262
 2247TIP3    H228233   0.911   0.508  15.682  1.2128 -1.6906 -0.6356
 2248TIP3   OH228234   4.598   6.572  16.594  0.2526 -0.4973  0.8597
 2248TIP3    H128235   4.672   6.511  16.603  1.7803  0.8461 -1.6007
 2248TIP3    H228236   4.631   6.655  16.628  1.3042  1.0165 -3.2272
 2249TIP3   OH228237   0.420   2.873   3.680 -0.2442  0.1020 -0.0505
 2249TIP3    H128238   0.394   2.799   3.625 -0.3574 -0.9698  1.3681
 2249TIP3    H228239   0.337   2.911   3.709 -0.1916  0.3490 -0.2290
 2250TIP3   OH228240   3.662   0.900  14.416 -0.2578  0.3702  0.1883
 2250TIP3    H128241   3.721   0.879  14.344  0.4667  1.3726  0.4673
 2250TIP3    H228242   3.611   0.820  14.429  1.5507 -0.8188  0.4309
 2251TIP3   OH228243   1.123   0.527   1.116  0.2731 -0.0166  0.1439
 2251TIP3    H128244   1.157   0.459   1.174 -0.0285 -0.3389 -0.0488
 2251TIP3    H228245   1.177   0.604   1.134  0.8832 -0.4197  0.0841
 2252TIP3   OH228246   1.867   4.225  15.504 -0.3613 -0.2058 -0.1330
 2252TIP3    H128247   1.849   4.310  15.463 -3.4296 -0.1958  0.9957
 2252TIP3    H228248   1.937   4.243  15.567  0.4835  0.9866 -1.3435
 2253TIP3   OH228249   6.799   5.321  13.003  0.2704  0.2724  0.1255
 2253TIP3    H128250   6.842   5.239  12.977  0.0714  0.2960 -0.2918
 2253TIP3    H228251   6.743   5.343  12.928 -2.1303 -0.8794  1.4361
 2254TIP3   OH228252   5.232   2.583  16.531  0.3976  0.0732  0.0153
 2254TIP3    H128253   5.241   2.674  16.558  1.1572 -0.1447  0.5571
 2254TIP3    H228254   5.168   2.584  16.460 -0.6014  0.8499  0.9143
 2255TIP3   OH228255   1.566   2.600  14.731  0.1248  0.8720  0.3450
 2255TIP3    H128256   1.526   2.685  14.715 -3.1915 -0.8991 -1.8973
 2255TIP3    H228257   1.561   2.589  14.826 -0.4662  2.6916  0.5660
 2256TIP3   OH228258   3.331   4.928  16.781 -0.2936  0.0016  0.3150
 2256TIP3    H128259   3.279   4.925  16.861  0.0765 -0.5185  0.5380
 2256TIP3    H228260   3.395   4.998  16.797 -0.6605  0.3698  0.1961
 2257TIP3   OH228261   6.550   3.862  17.214  0.2929 -0.1062  0.6298
 2257TIP3    H128262   6.461   3.889  17.235  0.3572  0.2221  0.4767
 2257TIP3    H228263   6.563   3.888  17.123  0.4212 -0.4795  0.5385
 2258TIP3   OH228264   4.017   2.051   1.695  0.3299 -0.1080 -0.3748
 2258TIP3    H128265   4.008   2.013   1.608  0.5290 -1.7743  0.3031
 2258TIP3    H228266   4.109   2.079   1.700  0.6180 -1.0292 -0.3229
 2259TIP3   OH228267   4.779   4.665   5.685  0.1073 -0.4049 -0.1848
 2259TIP3    H128268   4.852   4.605   5.674  0.7749  0.6720 -2.2224
 2259TIP3    H228269   4.786   4.695   5.776  1.7039 -0.9526 -0.0906
 2260TIP3   OH228270   0.306   1.201   3.005 -0.0749  0.4262 -0.5442
 2260TIP3    H128271   0.341   1.136   3.067  0.5934  0.2969 -1.0488
 2260TIP3    H228272   0.238   1.246   3.055 -0.8309 -0.9134 -0.2911
 2261TIP3   OH228273   2.219   5.397   3.793 -0.6249 -0.5997  0.1927
 2261TIP3    H128274   2.130   5.393   3.830 -0.0429  0.6567  1.8747
 2261TIP3    H228275   2.209   5.366   3.703 -2.4843 -1.9515  0.8022
 2262TIP3   OH228276   1.640   3.874   0.716 -0.3989  0.0002  0.1752
 2262TIP3    H128277   1.693   3.950   0.691  0.1198  0.3113  2.0108
 2262TIP3    H228278   1.594   3.849   0.637  1.0176  0.9444 -1.0010
 2263TIP3   OH228279   5.964   4.862  15.851 -0.1061  0.7416 -0.0432
 2263TIP3    H128280   6.029   4.793  15.842  0.1846  1.1994 -1.9617
 2263TIP3    H228281   5.880   4.819  15.836 -0.0899  0.5042  0.5161
 2264TIP3   OH228282   1.647   1.379  15.566  0.1601  0.1459 -0.0670
 2264TIP3    H128283   1.592   1.313  15.608  0.7891 -0.1804  0.2751
 2264TIP3    H228284   1.684   1.429  15.639  2.0902 -1.0918 -0.1272
 2265TIP3   OH228285   4.076   4.870   4.631  0.0218 -0.2859  0.4207
 2265TIP3    H128286   3.988   4.837   4.649 -1.1597  1.0220 -2.4374
 2265TIP3    H228287   4.082   4.951   4.683 -1.4243  0.8349 -1.0367
 2266TIP3   OH228288   1.709   1.950   4.994 -0.5244 -0.5699 -0.1273
 2266TIP3    H128289   1.667   2.024   5.038 -0.7028 -0.6848 -0.1007
 2266TIP3    H228290   1.792   1.938   5.039 -1.5779 -2.0069  1.5616
 2267TIP3   OH228291   6.341   6.178   6.385 -0.4873  0.1995 -0.0385
 2267TIP3    H128292   6.342   6.163   6.290 -0.3081  0.6708 -0.1177
 2267TIP3    H228293   6.271   6.242   6.398  0.8880  1.8078 -0.1459
 2268TIP3   OH228294   5.484   4.447   1.713  0.0725  0.0088 -0.2400
 2268TIP3    H128295   5.534   4.370   1.738 -0.4106 -0.8558 -1.7696
 2268TIP3    H228296   5.549   4.517   1.705  0.4570 -0.0822  1.6081
 2269TIP3   OH228297   4.616   4.420  17.091  0.5381 -0.1605  0.0864
 2269TIP3    H128298   4.635   4.329  17.067  2.2032  0.4339 -1.0421
 2269TIP3    H228299   4.632   4.469  17.010  0.8897  1.2811  1.0076
 2270TIP3   OH228300   5.255   0.423   5.021  0.0826  0.2007 -0.0988
 2270TIP3    H128301   5.196   0.498   5.013 -1.9009 -1.1819  0.8455
 2270TIP3    H228302   5.227   0.362   4.953 -0.4393 -0.9898  1.1382
 2271TIP3   OH228303   3.882   1.046   1.552 -0.2330  0.0476  0.2645
 2271TIP3    H128304   3.846   1.133   1.531  0.4401  0.3609  0.3676
 2271TIP3    H228305   3.973   1.050   1.521  0.5949  0.2878  2.5569
 2272TIP3   OH228306   5.248   6.025  12.796  0.4551 -0.0767  0.1544
 2272TIP3    H128307   5.292   5.948  12.833  1.0689  0.7871  1.2682
 2272TIP3    H228308   5.289   6.036  12.709  0.7275 -0.7029  0.1989
 2273TIP3   OH228309   3.381   6.146  12.023  0.1613  0.0565  0.4067
 2273TIP3    H128310   3.401   6.204  11.949 -0.7373  1.3798  1.1683
 2273TIP3    H228311   3.446   6.076  12.017  2.0239  1.7351  0.1184
 2274TIP3   OH228312   5.792   4.059   0.472  0.9982  0.1466  0.1522
 2274TIP3    H128313   5.861   4.046   0.537  0.7495  0.3461  0.4658
 2274TIP3    H228314   5.754   4.144   0.495 -0.6995 -0.8405  1.2767
 2275TIP3   OH228315   5.201   1.609   1.685 -0.4993 -0.3111  0.0394
 2275TIP3    H128316   5.236   1.698   1.676 -0.7467 -0.0119  1.7963
 2275TIP3    H228317   5.198   1.576   1.595  0.6417  1.0460 -0.5350
 2276TIP3   OH228318   6.723   5.070   3.835 -0.0632 -0.2736 -0.4523
 2276TIP3    H128319   6.816   5.075   3.857 -0.5529  0.6396  1.6454
 2276TIP3    H228320   6.707   5.145   3.779  0.5465 -0.7450 -1.2842
 2277TIP3   OH228321   2.774   0.936   1.534 -0.1024  0.3449 -0.0242
 2277TIP3    H128322   2.692   0.887   1.533  1.2952 -2.2271  1.0072
 2277TIP3    H228323   2.808   0.929   1.445  0.0070 -0.4963  0.0759
 2278TIP3   OH228324   3.051   1.797   1.311  0.5507  0.1176  0.0128
 2278TIP3    H128325   3.018   1.858   1.245  2.1760  0.9939 -0.0372
 2278TIP3    H228326   3.144   1.787   1.291  0.5123 -1.7646  0.5315
 2279TIP3   OH228327   3.606   5.303   0.922 -0.7016 -0.1003  0.4969
 2279TIP3    H128328   3.640   5.245   0.990  0.8164  0.0684 -0.0739
 2279TIP3    H228329   3.612   5.390   0.961  0.7773  0.0695 -0.0308
 2280TIP3   OH228330   2.962   4.581   2.108 -0.0372 -0.4657 -0.1315
 2280TIP3    H128331   2.974   4.600   2.201 -0.3795 -2.3852  0.3470
 2280TIP3    H228332   3.036   4.523   2.086  1.1254  1.4500 -1.5703
 2281TIP3   OH228333   1.942   0.172   1.019  0.0012 -0.1889  0.2708
 2281TIP3    H128334   1.851   0.152   0.997 -0.8208 -0.4958  3.4951
 2281TIP3    H228335   1.990   0.092   0.997 -0.4998 -0.1203 -1.2004
 2282TIP3   OH228336   2.572   6.337  13.361 -0.3804 -0.0355 -0.2802
 2282TIP3    H128337   2.619   6.391  13.425 -2.0574  3.0692 -1.4651
 2282TIP3    H228338   2.634   6.326  13.289 -0.3133  1.1688 -0.4237
 2283TIP3   OH228339   2.473   4.097  11.320  0.0785  0.1110 -0.0747
 2283TIP3    H128340   2.467   4.002  11.328  1.3230  0.0909  0.8899
 2283TIP3    H228341   2.507   4.126  11.405  0.9885  1.3000 -0.8228
 2284TIP3   OH228342   2.443   5.790   0.461 -0.1285  0.3340 -0.1233
 2284TIP3    H128343   2.460   5.738   0.539  1.3302  0.0556 -0.5974
 2284TIP3    H228344   2.376   5.853   0.488  0.0609 -0.0111  1.2210
 2285TIP3   OH228345   2.458   5.487  15.393  0.1254  0.0325  0.1116
 2285TIP3    H128346   2.532   5.531  15.434  0.6911 -1.8158  1.2049
 2285TIP3    H228347   2.418   5.553  15.337  0.1244  2.3039  2.6141
 2286TIP3   OH228348   6.718   5.748  10.844 -0.0943  0.4564 -0.3911
 2286TIP3    H128349   6.792   5.739  10.784  0.1776  0.3445 -0.0414
 2286TIP3    H228350   6.647   5.783  10.789  0.6173  1.9224 -0.4325
 2287TIP3   OH228351   4.259   0.944  12.964  0.1067  0.8217  0.2319
 2287TIP3    H128352   4.242   1.014  12.902 -2.1993  2.3976  2.4373
 2287TIP3    H228353   4.260   0.988  13.050  0.5167 -1.5733  1.5465
 2288TIP3   OH228354   1.802   1.194   5.716  0.1151  0.1911  0.2827
 2288TIP3    H128355   1.805   1.257   5.788  0.6761  0.3641  0.1150
 2288TIP3    H228356   1.835   1.243   5.640 -0.1311 -0.0923 -0.0089
 2289TIP3   OH228357   3.641   6.114  15.281  0.0413 -0.4183 -0.3425
 2289TIP3    H128358   3.603   6.028  15.263  0.4643 -1.0248  1.4234
 2289TIP3    H228359   3.690   6.101  15.362 -0.9794  1.8210  0.7019
 2290TIP3   OH228360   3.747   6.156  14.306  0.4552  0.3170 -0.8052
 2290TIP3    H128361   3.670   6.104  14.287  1.2338 -0.9930 -0.4946
 2290TIP3    H228362   3.713   6.237  14.345 -0.6933 -0.9256  0.8917
 2291TIP3   OH228363   2.396   4.979  14.284 -0.3469 -0.2597  0.2680
 2291TIP3    H128364   2.353   4.977  14.369 -3.6674 -0.1918 -1.2268
 2291TIP3    H228365   2.406   4.887  14.259 -2.5745 -0.3361 -0.6010
 2292TIP3   OH228366   3.974   4.787  14.303 -0.3203  0.3227  0.3344
 2292TIP3    H128367   4.020   4.807  14.385  1.3049 -1.6965  0.0198
 2292TIP3    H228368   4.029   4.720  14.261 -3.3053 -1.9126 -0.3487
 2293TIP3   OH228369   1.499   3.054  12.534  0.0384 -0.3853 -0.0028
 2293TIP3    H128370   1.575   3.111  12.523  0.8700 -1.3797  0.3165
 2293TIP3    H228371   1.500   3.030  12.627 -0.3171 -0.8759 -0.1193
 2294TIP3   OH228372   0.734   5.706  16.764  0.8317 -0.3516  0.5901
 2294TIP3    H128373   0.706   5.733  16.677  1.7079 -0.9825  0.0949
 2294TIP3    H228374   0.659   5.658  16.800  0.0425  0.8868  0.6555
 2295TIP3   OH228375   4.052   3.175   4.846  0.3585  0.2120 -0.3445
 2295TIP3    H128376   4.116   3.144   4.911 -0.0140  0.6289  0.2294
 2295TIP3    H228377   4.105   3.215   4.777  0.7234  3.6313  1.6648
 2296TIP3   OH228378   6.437   6.252  12.861  0.1769  0.1561 -0.2518
 2296TIP3    H128379   6.347   6.221  12.866  0.3091 -0.2603 -0.4161
 2296TIP3    H228380   6.487   6.190  12.915  0.6061 -0.5546 -1.4232
 2297TIP3   OH228381   1.476   1.746  11.933  0.7295  0.3537 -0.4301
 2297TIP3    H128382   1.498   1.767  12.023  0.9686  0.3598 -0.4884
 2297TIP3    H228383   1.381   1.737  11.932  0.6271  1.3265 -0.3815
 2298TIP3   OH228384   3.242   4.003   5.407 -0.0152  0.3131  0.3149
 2298TIP3    H128385   3.318   4.054   5.436 -1.0251  0.7379  2.3704
 2298TIP3    H228386   3.191   3.988   5.486 -1.1748 -1.5434 -0.7095
 2299TIP3   OH228387   4.773   2.431  15.081  0.0752 -0.1613  0.2457
 2299TIP3    H128388   4.748   2.480  15.159 -0.4405  2.2677 -1.3090
 2299TIP3    H228389   4.691   2.405  15.040  0.3395 -1.5403  0.5536
 2300TIP3   OH228390   5.170   6.525   6.379  0.5841  0.9443 -0.0054
 2300TIP3    H128391   5.233   6.453   6.372 -0.4704 -0.0654  0.5311
 2300TIP3    H228392   5.203   6.577   6.453 -0.7683 -1.2783  2.3326
 2301TIP3   OH228393   6.382   6.090   5.958 -0.2400 -0.5258 -0.1197
 2301TIP3    H128394   6.372   6.126   5.870 -1.0403 -1.7850 -0.5663
 2301TIP3    H228395   6.304   6.119   6.006 -1.7813 -2.9373 -0.9777
 2302TIP3   OH228396   6.450   0.254   3.246  0.7346  0.0679  0.4696
 2302TIP3    H128397   6.509   0.218   3.179  2.0316 -0.0870  1.6433
 2302TIP3    H228398   6.368   0.206   3.234  1.0409 -0.1790 -0.7935
 2303TIP3   OH228399   5.513   2.303  17.165 -0.4602  0.2149  0.0463
 2303TIP3    H128400   5.598   2.274  17.133 -0.9142  1.1726 -2.2174
 2303TIP3    H228401   5.490   2.240  17.234  0.4032 -2.3284 -1.8382
 2304TIP3   OH228402   1.418   1.465  11.480 -0.0875  0.1594 -0.3868
 2304TIP3    H128403   1.431   1.498  11.569  0.8421  0.6171 -0.6902
 2304TIP3    H228404   1.480   1.514  11.426  2.4551 -3.0724 -0.6423
 2305TIP3   OH228405   6.212   5.164   1.995 -0.6937  0.5746  0.0688
 2305TIP3    H128406   6.285   5.106   1.972 -1.7639 -1.2179  0.9656
 2305TIP3    H228407   6.227   5.243   1.944  0.8770 -0.4614 -1.1676
 2306TIP3   OH228408   1.833   5.825   1.807  0.2349  0.2818 -0.1040
 2306TIP3    H128409   1.925   5.851   1.800  0.1264  0.4525 -1.2794
 2306TIP3    H228410   1.792   5.866   1.730 -0.4806 -1.1784 -0.5340
 2307TIP3   OH228411   3.083   1.528  14.516  0.1275 -0.4666  0.0722
 2307TIP3    H128412   3.110   1.587  14.446 -1.0607 -1.4511 -1.2908
 2307TIP3    H228413   3.163   1.483  14.543  0.3772 -1.1872 -1.7632
 2308TIP3   OH228414   6.709   4.930   5.227  0.6603 -0.1247  0.0911
 2308TIP3    H128415   6.761   4.905   5.303  1.3235 -2.7055 -1.1136
 2308TIP3    H228416   6.736   5.020   5.208 -0.2267  0.9951  3.3977
 2309TIP3   OH228417   6.582   2.225  13.916  0.1010  0.5367  0.0366
 2309TIP3    H128418   6.556   2.243  13.825  1.9611  0.1543 -0.6131
 2309TIP3    H228419   6.677   2.239  13.917  0.3385 -0.9212  1.5663
 2310TIP3   OH228420   5.632   0.657  11.381 -0.2018 -0.0936 -0.0338
 2310TIP3    H128421   5.578   0.736  11.387 -2.6266 -1.5101 -1.4240
 2310TIP3    H228422   5.617   0.611  11.463 -0.5079 -0.0889 -0.0833
 2311TIP3   OH228423   6.267   0.245  17.242 -0.7954 -0.4330  0.7039
 2311TIP3    H128424   6.241   0.293  17.321  0.5036  0.1337  0.8137
 2311TIP3    H228425   6.337   0.298  17.204 -1.7191 -0.4350 -1.1105
 2312TIP3   OH228426   0.128   1.503  17.039  0.0009  0.4671  0.2132
 2312TIP3    H128427   0.218   1.526  17.059 -0.1677  1.3361  0.0342
 2312TIP3    H228428   0.117   1.529  16.947 -0.1274 -0.6038 -0.0851
 2313TIP3   OH228429   3.850   1.729  14.835 -0.0055  0.4843 -0.5441
 2313TIP3    H128430   3.812   1.701  14.918  0.1877  0.4937 -0.4546
 2313TIP3    H228431   3.943   1.738  14.852  0.0329  0.4995 -0.7585
 2314TIP3   OH228432   2.538   3.362  13.716  0.4441 -0.4935 -0.3765
 2314TIP3    H128433   2.613   3.309  13.688  0.4784 -2.2991  2.6146
 2314TIP3    H228434   2.571   3.413  13.791 -0.9086 -0.1711  0.0318
 2315TIP3   OH228435   3.705   0.844  10.320  0.5720 -0.2575  0.0349
 2315TIP3    H128436   3.640   0.912  10.304 -0.1019 -1.4202 -2.8837
 2315TIP3    H228437   3.652   0.765  10.337  1.2955 -0.5307  1.0681
 2316TIP3   OH228438   4.188   6.126  15.691 -0.0364 -0.2754 -0.2982
 2316TIP3    H128439   4.121   6.117  15.758 -0.0193 -0.6445 -0.3277
 2316TIP3    H228440   4.141   6.157  15.614  0.3118  2.6676  0.5554
 2317TIP3   OH228441   4.095   1.977   1.954 -0.5175 -0.3198 -0.4838
 2317TIP3    H128442   4.031   2.043   1.982  1.1321  1.5041 -0.7968
 2317TIP3    H228443   4.042   1.899   1.936 -2.2406 -0.0383  2.6704
 2318TIP3   OH228444   0.156   0.263   1.937  0.3902  0.1439  0.6567
 2318TIP3    H128445   0.194   0.305   2.014  2.0438 -0.4565  0.2250
 2318TIP3    H228446   0.204   0.181   1.929 -1.9061 -1.2980  0.7715
 2319TIP3   OH228447   0.575   0.911  11.125  0.2344 -0.3392  0.5460
 2319TIP3    H128448   0.619   0.881  11.205  0.3592  0.8620  0.9526
 2319TIP3    H228449   0.581   0.837  11.065  1.1028 -0.8839  1.2713
 2320TIP3   OH228450   1.563   2.702  12.005 -0.9141 -0.4231 -0.2753
 2320TIP3    H128451   1.630   2.725  12.069 -1.4184 -0.5801  0.3104
 2320TIP3    H228452   1.587   2.614  11.975  0.9631  0.7168 -2.4413
 2321TIP3   OH228453   0.278   5.611   2.025  0.2120  0.2977 -0.1869
 2321TIP3    H128454   0.349   5.590   1.964  0.0958  1.3016 -0.6830
 2321TIP3    H228455   0.294   5.553   2.100  0.7892 -0.4252 -0.8424
 2322TIP3   OH228456   0.493   1.940   4.238 -0.4184  0.4519 -0.6698
 2322TIP3    H128457   0.581   1.904   4.236 -1.4072 -2.7970  2.6482
 2322TIP3    H228458   0.454   1.913   4.154  1.3605  1.1557 -1.7858
 2323TIP3   OH228459   1.710   3.715  16.409 -0.0058 -0.3221  0.2539
 2323TIP3    H128460   1.746   3.788  16.360  0.7403 -0.6465  0.3085
 2323TIP3    H228461   1.638   3.753  16.460  3.1243  1.4388  3.8664
 2324TIP3   OH228462   0.950   5.126  11.406 -0.2798  0.1329  0.2404
 2324TIP3    H128463   0.943   5.115  11.311  0.1014 -1.6344  0.3831
 2324TIP3    H228464   0.938   5.038  11.441  0.3304  0.6392  1.7936
 2325TIP3   OH228465   0.962   4.248  15.969  0.6956 -0.0267  0.5795
 2325TIP3    H128466   0.867   4.239  15.965  0.7301 -0.4752  0.7355
 2325TIP3    H228467   0.983   4.307  15.897  0.5800 -2.2549 -1.4056
 2326TIP3   OH228468   0.324   5.029  14.025 -0.2475 -0.2733  0.2108
 2326TIP3    H128469   0.361   5.043  13.937  2.0431  0.8253  1.2489
 2326TIP3    H228470   0.281   4.944  14.020 -1.3596  0.3438 -2.3181
 2327TIP3   OH228471   4.492   6.395  15.589  0.3718  0.4521 -0.0022
 2327TIP3    H128472   4.563   6.422  15.648  0.1613  0.6687  0.1555
 2327TIP3    H228473   4.531   6.328  15.534  0.6250  0.3778  0.2632
 2328TIP3   OH228474   0.915   3.028   4.058 -0.4172 -0.6510  0.9202
 2328TIP3    H128475   0.864   3.106   4.034 -0.3559 -0.3437  1.7879
 2328TIP3    H228476   0.971   3.013   3.982 -0.6700 -0.0549  0.6063
 2329TIP3   OH228477   5.903   2.185   2.411  0.3930  0.2504 -0.4921
 2329TIP3    H128478   5.871   2.221   2.328 -0.5619  3.1909  1.0136
 2329TIP3    H228479   5.980   2.239   2.432 -1.4534  2.1153  2.1546
 2330TIP3   OH228480   0.320   5.404  15.309  0.1038  0.1640 -0.0729
 2330TIP3    H128481   0.265   5.447  15.374 -0.8503  0.1172 -0.8266
 2330TIP3    H228482   0.407   5.442  15.321 -0.3639  1.1222  0.3314
 2331TIP3   OH228483   2.307   4.368   6.165  0.0473  0.4108 -0.7129
 2331TIP3    H128484   2.213   4.386   6.157  0.2688  1.8338 -0.3426
 2331TIP3    H228485   2.336   4.353   6.075 -0.3570  0.9279 -0.9347
 2332TIP3   OH228486   4.256   5.984   5.945  0.5723 -0.1768  0.3558
 2332TIP3    H128487   4.289   6.059   5.995  1.0117 -0.2039  0.1151
 2332TIP3    H228488   4.193   6.021   5.884  2.4820  0.3755 -1.3889
 2333TIP3   OH228489   2.208   0.173   4.311 -0.7981 -0.8475 -0.1847
 2333TIP3    H128490   2.122   0.182   4.350 -0.7057  2.0166 -0.4135
 2333TIP3    H228491   2.257   0.249   4.342  1.0209 -1.3625 -1.5867
 2334TIP3   OH228492   5.859   1.071   4.157  0.3087  0.4179  0.3000
 2334TIP3    H128493   5.855   1.120   4.239 -0.0509  1.3598 -0.2658
 2334TIP3    H228494   5.872   1.138   4.090 -0.2983 -0.2471 -0.5029
 2335TIP3   OH228495   4.725   1.162   5.151  0.1176 -0.1135 -0.1021
 2335TIP3    H128496   4.773   1.192   5.074 -2.6423 -0.8567 -2.2297
 2335TIP3    H228497   4.794   1.126   5.208  2.4459  1.9311 -1.3958
 2336TIP3   OH228498   5.121   5.487   5.241 -0.3261  0.0580  0.4829
 2336TIP3    H128499   5.102   5.398   5.211 -2.4342  0.3325  0.8788
 2336TIP3    H228500   5.144   5.477   5.333 -0.1398 -0.1132  0.4183
 2337TIP3   OH228501   5.220   4.893  10.686  0.2420  0.2934 -0.0823
 2337TIP3    H128502   5.126   4.907  10.702  0.1949  0.6922 -0.6752
 2337TIP3    H228503   5.225   4.872  10.593  0.7571  0.4220 -0.0828
 2338TIP3   OH228504   4.992   0.901  12.671 -0.3787  0.3098  0.0781
 2338TIP3    H128505   4.914   0.948  12.640 -1.2232 -0.8348  0.3887
 2338TIP3    H228506   5.036   0.871  12.592 -1.4017 -0.8118 -0.1024
 2339TIP3   OH228507   0.270   6.567  14.241 -0.4224  0.1906 -0.1320
 2339TIP3    H128508   0.350   6.523  14.212 -0.8217 -1.3075  0.8950
 2339TIP3    H228509   0.290   6.660  14.233  1.0868 -0.1524 -0.7829
 2340TIP3   OH228510   3.306   1.473   2.997  0.2825  0.0694  0.0625
 2340TIP3    H128511   3.370   1.479   3.068 -0.5125 -0.8349  0.8857
 2340TIP3    H228512   3.336   1.398   2.944 -0.3500 -0.6629  0.7268
 2341TIP3   OH228513   3.001   6.586   4.874 -0.0489 -0.0130  0.6992
 2341TIP3    H128514   3.006   6.679   4.850  0.6498 -0.1263  0.4092
 2341TIP3    H228515   3.075   6.572   4.933  0.5517 -0.6555 -0.1789
 2342TIP3   OH228516   3.491   1.960  14.731  0.3114 -0.3701 -0.5503
 2342TIP3    H128517   3.565   2.016  14.709  0.2021 -0.3597 -0.8825
 2342TIP3    H228518   3.425   2.019  14.767  0.7185 -0.4617  0.3984
 2343TIP3   OH228519   5.392   6.172   1.106  0.2089  0.0944 -0.2000
 2343TIP3    H128520   5.461   6.213   1.158  1.3670  0.9495 -2.2699
 2343TIP3    H228521   5.439   6.110   1.050 -1.0648 -1.2707  0.1965
 2344TIP3   OH228522   6.114   1.991  15.620  0.1129  0.1042  0.3252
 2344TIP3    H128523   6.074   2.017  15.537 -1.7799  2.6119  1.8769
 2344TIP3    H228524   6.048   1.936  15.661  0.6068 -0.2747  0.6208
 2345TIP3   OH228525   2.336   4.495   0.088 -0.3415  0.5968 -0.4541
 2345TIP3    H128526   2.410   4.535   0.042 -0.8883 -0.3001 -2.2191
 2345TIP3    H228527   2.259   4.538   0.050 -0.8232 -0.4016 -0.6471
 2346TIP3   OH228528   5.000   2.164  12.105 -0.1546  0.2599 -0.3812
 2346TIP3    H128529   5.083   2.201  12.076 -0.6001  0.6337 -1.2338
 2346TIP3    H228530   4.937   2.193  12.039 -0.9020 -0.2905  0.0746
 2347TIP3   OH228531   0.253   5.321   4.035  0.2198  0.4121  0.6403
 2347TIP3    H128532   0.320   5.363   4.089 -0.2800 -0.5504  2.0496
 2347TIP3    H228533   0.183   5.387   4.028  0.6560  0.8579  0.4237
 2348TIP3   OH228534   6.343   4.837  16.651  0.7238 -0.0938 -0.1410
 2348TIP3    H128535   6.294   4.777  16.706  1.1781 -0.5837 -0.2661
 2348TIP3    H228536   6.434   4.809  16.659  1.3111  2.0180  1.6788
 2349TIP3   OH228537   0.703   1.375  16.614  0.5779  0.3131  0.0405
 2349TIP3    H128538   0.643   1.440  16.578  1.7408 -0.4119 -3.6115
 2349TIP3    H228539   0.761   1.425  16.671 -0.7260  1.8074  0.1290
 2350TIP3   OH228540   0.333   1.050   0.659 -0.1549 -0.2421 -0.1215
 2350TIP3    H128541   0.243   1.068   0.687 -0.4046 -2.3041  0.5931
 2350TIP3    H228542   0.379   1.027   0.739  1.2848  1.6210 -0.3533
 2351TIP3   OH228543   6.038   3.620  17.040  0.5561  0.3574  0.0215
 2351TIP3    H128544   5.981   3.545  17.058  1.6947 -0.1491  1.7069
 2351TIP3    H228545   6.080   3.639  17.123  0.8626  2.4279 -0.5456
 2352TIP3   OH228546   5.869   0.449   3.727  0.4215  0.2740  0.1482
 2352TIP3    H128547   5.851   0.491   3.643  0.6259 -1.3121 -0.7227
 2352TIP3    H228548   5.959   0.474   3.747  0.9974 -0.7761 -1.0150
 2353TIP3   OH228549   3.199   0.783  14.038 -0.0041 -0.0101  0.1355
 2353TIP3    H128550   3.280   0.739  14.010 -0.1072  1.1870 -2.2831
 2353TIP3    H228551   3.223   0.875  14.047 -0.9629  0.2627 -0.0054
 2354TIP3   OH228552   3.826   0.891  13.800 -0.4502  0.0719 -0.1327
 2354TIP3    H128553   3.801   0.863  13.711  1.7107  0.1787 -0.8150
 2354TIP3    H228554   3.782   0.976  13.811 -0.4088  0.2588 -1.2621
 2355TIP3   OH228555   4.049   0.426  11.044 -0.1082  0.1464  0.0656
 2355TIP3    H128556   4.003   0.502  11.009  0.1964  0.5753  0.5817
 2355TIP3    H228557   4.039   0.434  11.139  0.7996  0.0974  0.1724
 2356TIP3   OH228558   5.889   5.253  12.173 -0.6064 -0.4683 -0.2755
 2356TIP3    H128559   5.894   5.165  12.211  2.1023 -0.1819  0.2355
 2356TIP3    H228560   5.978   5.270  12.140 -1.4568  1.4898 -1.7640
 2357TIP3   OH228561   2.831   4.820  12.524  0.5112 -0.4762  0.2516
 2357TIP3    H128562   2.827   4.893  12.463 -1.8958 -1.5411 -0.9887
 2357TIP3    H228563   2.810   4.743  12.471  0.0441 -1.6853  2.0953
 2358TIP3   OH228564   6.246   5.437  15.189  0.0256  0.3312  0.7944
 2358TIP3    H128565   6.215   5.364  15.243 -0.0211 -0.3997 -0.2116
 2358TIP3    H228566   6.332   5.458  15.225 -0.7458  1.0808  2.3306
 2359TIP3   OH228567   0.940   4.972   3.677 -0.1729 -0.1760 -0.2946
 2359TIP3    H128568   0.901   4.887   3.700 -2.3452  0.3517 -1.7705
 2359TIP3    H228569   0.904   5.032   3.742 -0.7346  0.0786 -0.8425
 2360TIP3   OH228570   3.560   6.225   3.855  0.6208 -0.0552 -0.1494
 2360TIP3    H128571   3.572   6.132   3.837 -0.6948 -0.5797  1.3994
 2360TIP3    H228572   3.495   6.253   3.790  0.4736 -0.3964 -0.1521
 2361TIP3   OH228573   2.536   4.687  10.884 -0.8487 -0.2222  0.3500
 2361TIP3    H128574   2.595   4.684  10.809  0.4069  0.6965  1.2638
 2361TIP3    H228575   2.484   4.766  10.869  1.0455  1.3453  1.5740
 2362TIP3   OH228576   4.514   5.345  14.281  0.6228  0.4914 -0.4524
 2362TIP3    H128577   4.548   5.282  14.345 -0.2940  0.6835  0.2352
 2362TIP3    H228578   4.508   5.428  14.329 -1.1552  0.3787 -0.4180
 2363TIP3   OH228579   5.439   5.999  15.092 -0.1621 -0.0932  0.4778
 2363TIP3    H128580   5.483   6.058  15.153  0.9072 -1.6030  1.2135
 2363TIP3    H228581   5.410   6.056  15.020  1.2110  1.2492  0.9436
 2364TIP3   OH228582   0.068   4.649   3.987 -0.3675 -0.2562  0.2003
 2364TIP3    H128583   0.075   4.677   4.078  0.7543 -1.3480  0.4905
 2364TIP3    H228584   0.155   4.616   3.966  0.6589  3.5620 -2.5747
 2365TIP3   OH228585   2.365   3.153  16.025  0.5550  0.1262  0.4807
 2365TIP3    H128586   2.324   3.160  15.939 -0.5770 -1.4654  0.8488
 2365TIP3    H228587   2.457   3.132  16.007  0.4974  0.5304 -0.3221
 2366TIP3   OH228588   1.626   4.707  16.460 -0.2313 -0.1796 -0.3047
 2366TIP3    H128589   1.687   4.634  16.469  0.0233  0.0552 -0.1185
 2366TIP3    H228590   1.645   4.744  16.374 -0.2713 -0.2490 -0.3435
 2367TIP3   OH228591   2.591   0.581  16.787 -0.5442  0.4217 -0.0693
 2367TIP3    H128592   2.624   0.577  16.877 -1.8452  1.1595  0.4693
 2367TIP3    H228593   2.670   0.589  16.733  0.1859  2.5454  1.1941
 2368TIP3   OH228594   0.155   2.165   5.277  0.3739 -0.1000 -0.2016
 2368TIP3    H128595   0.191   2.099   5.218 -0.6456 -0.3705 -0.5509
 2368TIP3    H228596   0.192   2.144   5.363  1.1928 -0.2289 -0.5827
 2369TIP3   OH228597   2.098   2.131  16.854  0.1047  0.4380  0.1802
 2369TIP3    H128598   2.168   2.069  16.832 -0.0623  0.5742 -0.8098
 2369TIP3    H228599   2.144   2.210  16.882  0.6306  1.9800 -4.1802
 2370TIP3   OH228600   3.666   2.962   4.948  0.7366  0.2443 -0.5364
 2370TIP3    H128601   3.718   3.007   5.014 -0.6102  1.4698 -0.2590
 2370TIP3    H228602   3.654   3.026   4.878  1.4654 -0.7709 -1.6229
 2371TIP3   OH228603   4.753   6.343  10.442  0.1054  0.0095  0.3808
 2371TIP3    H128604   4.785   6.433  10.446  0.9181 -0.1871 -0.9771
 2371TIP3    H228605   4.800   6.297  10.511  1.6500  0.0829 -0.5731
 2372TIP3   OH228606   0.025   4.411   2.848 -0.6726  0.1989  0.1281
 2372TIP3    H128607   0.025   4.422   2.753 -0.0204 -0.7061  0.0013
 2372TIP3    H228608   0.118   4.402   2.871 -0.6435  2.3533  1.1244
 2373TIP3   OH228609   0.828   2.490  13.582 -0.0144 -0.3455 -0.3633
 2373TIP3    H128610   0.752   2.526  13.535  0.1300 -0.4425 -0.6701
 2373TIP3    H228611   0.791   2.455  13.663 -0.1959  0.2554 -0.1826
 2374TIP3   OH228612   6.484   4.145   5.210 -0.2350  0.2688 -0.0603
 2374TIP3    H128613   6.432   4.199   5.269 -0.3917  1.0859 -0.9271
 2374TIP3    H228614   6.498   4.200   5.133  1.7975  0.0253  0.0830
 2375TIP3   OH228615   2.117   4.817  11.482 -0.3612  0.3505  0.4429
 2375TIP3    H128616   2.176   4.752  11.521 -0.8474  0.5333  1.5175
 2375TIP3    H228617   2.088   4.777  11.400 -1.7617 -1.4674  1.7301
 2376TIP3   OH228618   5.650   0.090   2.577  0.4472  0.7236 -0.0069
 2376TIP3    H128619   5.573   0.062   2.626 -1.6839  0.9668 -2.9722
 2376TIP3    H228620   5.709   0.015   2.580 -2.2032 -1.6464 -2.0255
 2377TIP3   OH228621   2.369   3.280   2.653  0.0989 -0.4934  0.4741
 2377TIP3    H128622   2.352   3.227   2.576  0.4935  0.8811 -0.5912
 2377TIP3    H228623   2.284   3.317   2.676  0.2960  0.5993 -0.4720
 2378TIP3   OH228624   6.341   6.743  17.230  0.1827  0.0893 -0.7148
 2378TIP3    H128625   6.310   6.833  17.237 -0.4754 -0.1563 -0.4093
 2378TIP3    H228626   6.423   6.742  17.280  0.8413  0.7981 -1.7194
 2379TIP3   OH228627   1.765   1.937  13.118  0.6862 -0.4633 -0.0644
 2379TIP3    H128628   1.691   1.960  13.175  1.2463 -0.4159  0.6465
 2379TIP3    H228629   1.782   2.016  13.067  0.1230 -0.5376 -0.3913
 2380TIP3   OH228630   3.329   0.971   2.106 -0.4803 -0.0612 -0.3244
 2380TIP3    H128631   3.309   0.941   2.018  1.3206  0.1253 -0.8398
 2380TIP3    H228632   3.354   0.892   2.154 -0.9850 -0.0927 -0.0997
 2381TIP3   OH228633   5.049   0.611   2.088 -0.3264  0.2512 -0.2089
 2381TIP3    H128634   5.012   0.530   2.054  1.1107 -0.5195 -0.0081
 2381TIP3    H228635   5.026   0.611   2.181 -0.0742 -0.0895 -0.1431
 2382TIP3   OH228636   3.871   3.015   3.878  0.4888 -0.1826  0.1022
 2382TIP3    H128637   3.890   3.108   3.888  1.3878 -0.3019 -0.3836
 2382TIP3    H228638   3.951   2.971   3.907 -0.5267 -0.8915  1.9877
 2383TIP3   OH228639   0.205   5.062  16.600  0.5648 -0.5753  0.4162
 2383TIP3    H128640   0.129   5.058  16.543  0.7496 -1.9963  0.2162
 2383TIP3    H228641   0.173   5.030  16.685  0.5479  0.4689  0.8160
 2384TIP3   OH228642   1.888   5.008   3.629 -0.0368  0.1662  0.5581
 2384TIP3    H128643   1.877   5.061   3.551  1.7877  0.4821  0.4862
 2384TIP3    H228644   1.901   4.919   3.597  0.6983  0.2935  0.5039
 2385TIP3   OH228645   0.437   2.403  10.763  0.4660  0.7208  0.4904
 2385TIP3    H128646   0.437   2.347  10.685 -2.1502  2.1676 -0.6813
 2385TIP3    H228647   0.463   2.344  10.834 -0.0739 -1.4484 -0.9967
 2386TIP3   OH228648   2.072   5.385  12.809 -0.2438 -0.4853 -0.3212
 2386TIP3    H128649   2.101   5.310  12.757 -2.6501 -0.4803 -1.8141
 2386TIP3    H228650   2.065   5.351  12.899  1.0612 -1.3304 -0.5142
 2387TIP3   OH228651   0.413   4.586   2.531  0.3721  0.2818  0.2798
 2387TIP3    H128652   0.446   4.585   2.441 -1.2878  1.1405 -0.3733
 2387TIP3    H228653   0.321   4.608   2.522 -0.2448 -1.3837  2.0927
 2388TIP3   OH228654   1.267   0.397   2.588 -0.4466 -0.4157 -0.3015
 2388TIP3    H128655   1.258   0.425   2.679 -2.4243 -0.8725 -0.3222
 2388TIP3    H228656   1.307   0.311   2.593 -1.8496 -1.0579  0.2449
 2389TIP3   OH228657   3.988   6.306   2.893 -0.1530  0.3876 -0.4064
 2389TIP3    H128658   3.931   6.243   2.938 -0.7019  1.3797  0.3214
 2389TIP3    H228659   4.065   6.312   2.949  0.7576 -1.0051 -1.4247
 2390TIP3   OH228660   4.917   4.762  16.320  0.1506 -0.4399  0.2181
 2390TIP3    H128661   4.918   4.808  16.404  2.7491 -0.3289  0.2022
 2390TIP3    H228662   4.942   4.672  16.342  1.1529 -0.3381 -0.4348
 2391TIP3   OH228663   1.691   3.623  13.386 -0.0492 -0.0050  0.1453
 2391TIP3    H128664   1.612   3.629  13.440  1.1394 -0.3247  2.0136
 2391TIP3    H228665   1.714   3.530  13.386  0.4286  0.1053 -0.2409
 2392TIP3   OH228666   0.222   1.971   5.078 -0.2796 -0.5475 -0.0028
 2392TIP3    H128667   0.247   1.995   4.989 -0.2460  0.1120  0.1807
 2392TIP3    H228668   0.157   1.902   5.067 -1.1460  0.3407 -0.5692
 2393TIP3   OH228669   2.323   0.808   4.395  0.5202 -0.5002  0.3802
 2393TIP3    H128670   2.283   0.833   4.477 -0.2773 -0.5854  0.0232
 2393TIP3    H228671   2.277   0.859   4.328 -0.4255 -2.0880 -0.2509
 2394TIP3   OH228672   6.530   1.143  16.067 -0.3442  0.9044 -0.1546
 2394TIP3    H128673   6.587   1.089  16.014 -0.0193  0.1664  0.9069
 2394TIP3    H228674   6.528   1.228  16.023  0.5674  0.5590 -0.8779
 2395TIP3   OH228675   0.459   3.176   0.641  0.5886  0.4582  0.2581
 2395TIP3    H128676   0.413   3.248   0.598  1.8438  0.0938 -1.8441
 2395TIP3    H228677   0.427   3.097   0.597 -0.8575 -0.3390  2.6056
 2396TIP3   OH228678   2.481   6.192  12.616 -0.1259  0.4173 -0.1159
 2396TIP3    H128679   2.553   6.233  12.569  0.1766  0.3643  0.2993
 2396TIP3    H228680   2.430   6.148  12.548  0.0450  0.7343 -0.4519
 2397TIP3   OH228681   4.858   2.931   4.331 -0.2343 -0.5897  0.3659
 2397TIP3    H128682   4.881   2.986   4.257  1.0335 -2.7635 -0.9623
 2397TIP3    H228683   4.776   2.889   4.305 -0.7044 -0.0708  0.9702
 2398TIP3   OH228684   0.740   3.748   1.835 -0.7665 -0.1719  0.5832
 2398TIP3    H128685   0.733   3.657   1.862 -0.9011 -0.3247  0.0535
 2398TIP3    H228686   0.675   3.758   1.765 -0.7526  0.3257  0.6333
 2399TIP3   OH228687   0.144   6.251  16.704 -0.2323  0.3010 -0.0001
 2399TIP3    H128688   0.164   6.163  16.673 -1.9085  0.4422 -1.5920
 2399TIP3    H228689   0.112   6.298  16.627 -0.4804  1.9669  1.0625
 2400TIP3   OH228690   3.254   0.038   2.751  0.0353 -0.1418  0.2075
 2400TIP3    H128691   3.159   0.028   2.750 -0.0379 -0.3306  2.5252
 2400TIP3    H228692   3.287  -0.043   2.712 -0.7714 -1.0506  1.3370
 2401TIP3   OH228693   4.116   3.910   5.882  0.0862 -0.6654 -0.5007
 2401TIP3    H128694   4.021   3.908   5.871  0.2596 -2.4582 -2.1932
 2401TIP3    H228695   4.150   3.933   5.795  1.2243 -0.0734  0.0708
 2402TIP3   OH228696   1.616   0.869   3.719 -0.2190 -0.2040 -0.0489
 2402TIP3    H128697   1.703   0.877   3.758  0.0710  0.3523 -0.7834
 2402TIP3    H228698   1.562   0.832   3.789  0.7673 -1.2713  0.1881
 2403TIP3   OH228699   3.960   0.128  11.389  0.2590  0.3626 -0.2678
 2403TIP3    H128700   4.001   0.070  11.454 -1.1018 -0.6826 -0.3043
 2403TIP3    H228701   3.891   0.173  11.438 -0.5514 -0.1777 -0.8762
 2404TIP3   OH228702   5.417   1.484   3.438 -0.0795 -0.1918 -0.1036
 2404TIP3    H128703   5.403   1.446   3.525 -0.6356 -0.9744 -0.5205
 2404TIP3    H228704   5.329   1.506   3.407 -0.1941 -2.2909 -1.4942
 2405TIP3   OH228705   0.574   5.284  12.633 -0.2412 -0.2152 -0.5410
 2405TIP3    H128706   0.583   5.264  12.539 -0.0909  1.6917 -0.9631
 2405TIP3    H228707   0.612   5.371  12.643 -1.5679  0.2375  1.0274
 2406TIP3   OH228708   4.661   2.251  10.953 -0.0311  0.3666 -0.0619
 2406TIP3    H128709   4.631   2.217  10.869  0.3963 -1.1279  0.3507
 2406TIP3    H228710   4.725   2.319  10.931 -1.8907  1.9360 -0.9264
 2407TIP3   OH228711   4.402   0.172   0.276  0.3352 -0.2355  0.7749
 2407TIP3    H128712   4.381   0.222   0.197 -0.7412  0.0965  1.2442
 2407TIP3    H228713   4.446   0.093   0.244  2.5499  1.1968  0.0447
 2408TIP3   OH228714   0.991   0.825   5.575  0.6353 -0.0060  0.8771
 2408TIP3    H128715   0.949   0.773   5.507  2.1903  0.7545 -0.7632
 2408TIP3    H228716   1.053   0.766   5.616  3.1040  0.6344 -1.6341
 2409TIP3   OH228717   5.721   2.774   5.777  0.6856 -0.2164 -0.1757
 2409TIP3    H128718   5.755   2.791   5.865  1.3088  0.5801 -0.5630
 2409TIP3    H228719   5.736   2.855   5.729  0.7552 -0.7856 -1.1422
 2410TIP3   OH228720   6.282   2.004  16.417  0.6183  0.1465 -0.0780
 2410TIP3    H128721   6.277   1.911  16.393  2.9609 -0.3568  1.1271
 2410TIP3    H228722   6.280   2.050  16.333  1.2491 -1.1069 -0.8161
 2411TIP3   OH228723   1.090   1.992  12.651 -0.2782 -0.5508 -0.1420
 2411TIP3    H128724   1.113   1.925  12.588 -1.2090 -0.9331 -0.0870
 2411TIP3    H228725   1.019   1.954  12.703 -0.9399  0.5160 -0.2187
 2412TIP3   OH228726   4.177   3.860   4.287 -0.0067 -0.1171  1.0622
 2412TIP3    H128727   4.176   3.896   4.375 -0.9415  0.3456  0.8775
 2412TIP3    H228728   4.103   3.903   4.243  0.0072 -0.8734  0.2778
 2413TIP3   OH228729   5.744   1.391  16.709 -0.0038 -0.1689 -0.1476
 2413TIP3    H128730   5.791   1.428  16.635 -1.0217 -0.0033 -0.7319
 2413TIP3    H228731   5.689   1.322  16.670  0.2111 -0.7816  0.6039
 2414TIP3   OH228732   1.024   1.154  13.230 -0.1018 -0.2783  0.2718
 2414TIP3    H128733   1.086   1.224  13.211 -1.3645  0.8744  0.2152
 2414TIP3    H228734   1.045   1.085  13.167  2.3542 -0.7600  1.5105
 2415TIP3   OH228735   1.350   6.649  15.214 -0.3375 -0.1084  0.3641
 2415TIP3    H128736   1.289   6.587  15.175 -0.3028 -0.6051  1.0822
 2415TIP3    H228737   1.423   6.595  15.245  0.6472  0.5066 -0.7889
 2416TIP3   OH228738   0.099   2.228   0.659 -0.4586 -1.0681 -0.5796
 2416TIP3    H128739   0.045   2.306   0.643 -0.8141 -1.6512 -2.4376
 2416TIP3    H228740   0.188   2.255   0.636 -0.5289 -1.1121 -0.9054
 2417TIP3   OH228741   3.927   3.189  13.919  0.1690 -0.1619  0.1189
 2417TIP3    H128742   3.861   3.122  13.902 -0.7875  0.6559  0.4826
 2417TIP3    H228743   3.986   3.149  13.984  0.0951 -0.9347 -0.2798
 2418TIP3   OH228744   1.278   6.221  14.343  0.1971  0.4211 -0.3975
 2418TIP3    H128745   1.260   6.147  14.401  1.3758  0.7342  0.4195
 2418TIP3    H228746   1.201   6.277  14.351 -0.4752 -0.4457 -0.6174
 2419TIP3   OH228747   0.836   5.286  16.410  0.0246 -0.0784 -0.6074
 2419TIP3    H128748   0.803   5.375  16.424  0.0577 -0.3204  1.2154
 2419TIP3    H228749   0.844   5.250  16.497 -0.2781 -2.0039 -1.3346
 2420TIP3   OH228750   0.027   3.317  12.905  0.5589  0.4286  0.2530
 2420TIP3    H128751   0.046   3.364  12.987  0.3725  3.1046 -1.1276
 2420TIP3    H228752   0.110   3.277  12.880  0.9433  0.6994  1.0621
 2421TIP3   OH228753   0.538   2.055  15.411  0.3027 -0.2807 -0.2479
 2421TIP3    H128754   0.542   2.105  15.493  0.8386  1.6442 -1.3679
 2421TIP3    H228755   0.623   2.011  15.407  0.3699 -0.1933  0.1103
 2422TIP3   OH228756   1.135   1.225   2.354  0.0325 -0.8272  0.0140
 2422TIP3    H128757   1.223   1.203   2.325  0.4592  0.1043  0.5657
 2422TIP3    H228758   1.132   1.320   2.351 -0.1869 -0.7098  2.1369
 2423TIP3   OH228759   5.338   2.121  12.081  0.0788 -0.2493  0.5496
 2423TIP3    H128760   5.313   2.213  12.083 -0.9550 -0.4962 -0.3956
 2423TIP3    H228761   5.420   2.118  12.132 -0.0570  1.1154  0.8964
 2424TIP3   OH228762   1.274   1.994   3.189  0.6703  0.2897  0.6527
 2424TIP3    H128763   1.264   1.924   3.253  0.7948  0.4193  0.8156
 2424TIP3    H228764   1.185   2.025   3.171  0.7365  1.3374  1.9763
 2425TIP3   OH228765   3.008   4.356  14.089  0.1769  0.1891 -0.0930
 2425TIP3    H128766   2.960   4.409  14.025  0.4462  0.1722 -0.3095
 2425TIP3    H228767   2.950   4.283  14.108 -0.1328  0.4787  0.0901
 2426TIP3   OH228768   4.024   1.471   5.537 -0.0637  0.0483 -0.1451
 2426TIP3    H128769   4.076   1.392   5.531  0.9077  0.7251 -1.1020
 2426TIP3    H228770   4.080   1.535   5.581 -0.3136  0.5852 -0.5753
 2427TIP3   OH228771   1.359   5.535   3.460 -0.0809  0.7930 -0.1424
 2427TIP3    H128772   1.414   5.610   3.439  0.4737  0.5046  0.2510
 2427TIP3    H228773   1.415   5.459   3.442  0.3537  0.5247  2.1049
 2428TIP3   OH228774   3.338   4.182   5.994 -0.3357  0.7308 -0.0227
 2428TIP3    H128775   3.420   4.225   5.968  0.1219 -1.0238 -1.7274
 2428TIP3    H228776   3.348   4.091   5.964 -2.0816 -0.0646  1.5936
 2429TIP3   OH228777   2.296   2.411   0.956 -0.2421  0.2654  0.1951
 2429TIP3    H128778   2.362   2.360   0.908  0.2417  1.1570 -0.1043
 2429TIP3    H228779   2.296   2.372   1.043  0.1745 -0.2051 -0.0049
 2430TIP3   OH228780   3.719   0.071   5.375  0.2848 -0.0626  0.3480
 2430TIP3    H128781   3.664  -0.006   5.387  1.2011 -0.8763 -0.4942
 2430TIP3    H228782   3.678   0.120   5.304 -0.0817  0.0358  0.6240
 2431TIP3   OH228783   1.162   2.674   0.701 -0.6064  0.2133  0.2399
 2431TIP3    H128784   1.153   2.765   0.730  0.4644  1.3074 -2.5470
 2431TIP3    H228785   1.073   2.645   0.685 -1.0784  0.2206  2.4983
 2432TIP3   OH228786   1.439   3.189  16.484  0.1408  0.5523  0.6663
 2432TIP3    H128787   1.475   3.274  16.508  2.5411 -0.4390  0.8812
 2432TIP3    H228788   1.426   3.193  16.389  1.5016  0.7407  0.4774
 2433TIP3   OH228789   2.654   0.838   1.822  0.2950  0.4564  0.2660
 2433TIP3    H128790   2.688   0.900   1.757  0.9248 -1.4036 -1.2958
 2433TIP3    H228791   2.566   0.817   1.791  0.9077 -1.0877 -0.5691
 2434TIP3   OH228792   5.833   4.979   0.563  0.0094  0.2967  0.3949
 2434TIP3    H128793   5.867   5.015   0.481  0.6917  1.9916  1.3806
 2434TIP3    H228794   5.816   4.887   0.543  0.5950  0.5571 -1.5086
 2435TIP3   OH228795   1.120   0.992  16.621  0.0459  0.0116 -0.4971
 2435TIP3    H128796   1.045   0.977  16.563  0.6806 -0.2669 -1.2642
 2435TIP3    H228797   1.106   1.080  16.656 -1.0389 -0.3462 -0.0053
 2436TIP3   OH228798   2.213   4.213  13.602  0.3288  0.1978  0.1134
 2436TIP3    H128799   2.126   4.174  13.599 -0.1136  1.1856 -0.4915
 2436TIP3    H228800   2.270   4.143  13.633 -0.3466 -1.0727 -1.3879
 2437TIP3   OH228801   6.213   0.661  15.423  0.1069 -0.4766 -0.8733
 2437TIP3    H128802   6.204   0.704  15.338 -0.1990 -0.2170 -0.7117
 2437TIP3    H228803   6.291   0.607  15.414  1.4474  1.3090 -0.5924
 2438TIP3   OH228804   0.361   0.246   2.768  0.2900 -0.1270 -0.2744
 2438TIP3    H128805   0.412   0.195   2.832  0.1772 -0.2017 -0.2448
 2438TIP3    H228806   0.346   0.330   2.811  1.1826  0.2376 -0.6415
 2439TIP3   OH228807   0.588   1.687   2.185 -0.1267  0.4840 -0.2561
 2439TIP3    H128808   0.588   1.592   2.174 -2.3494  0.2194  1.3025
 2439TIP3    H228809   0.532   1.720   2.115 -0.5154  0.4896  0.0537
 2440TIP3   OH228810   1.956   2.267   0.358  0.3385 -0.2623  0.0804
 2440TIP3    H128811   2.004   2.350   0.358  1.0821 -0.6832 -0.5218
 2440TIP3    H228812   1.872   2.288   0.399  0.5674  0.7606  0.0458
 2441TIP3   OH228813   4.532   1.950   1.885 -0.6942 -0.2584 -0.0800
 2441TIP3    H128814   4.478   1.885   1.929  1.3370 -1.7762  0.3434
 2441TIP3    H228815   4.587   1.986   1.954  0.6191 -0.6762 -0.8562
 2442TIP3   OH228816   5.367   4.487   4.442  0.1242  0.3234 -0.3592
 2442TIP3    H128817   5.310   4.557   4.412 -0.2966  0.4651  0.7257
 2442TIP3    H228818   5.436   4.531   4.492  0.5418  0.0560 -0.6877
 2443TIP3   OH228819   4.911   6.472  14.600 -0.1703  0.1343 -0.2755
 2443TIP3    H128820   4.851   6.501  14.669  0.8803  1.1500  0.2463
 2443TIP3    H228821   4.856   6.421  14.541 -1.2201 -0.2761  1.0003
 2444TIP3   OH228822   3.213   4.862   0.857  0.1014  0.2661  0.3476
 2444TIP3    H128823   3.149   4.863   0.786  0.5515 -0.1596 -0.0723
 2444TIP3    H228824   3.263   4.781   0.843  0.0203  0.0399  1.3059
 2445TIP3   OH228825   3.311   4.664  11.202 -0.4222 -0.0333  0.4577
 2445TIP3    H128826   3.287   4.721  11.129  1.6718  1.0517  0.5399
 2445TIP3    H228827   3.337   4.581  11.161 -0.6710  0.0641  0.0994
 2446TIP3   OH228828   5.659   0.563   0.071  0.1479  0.5685 -0.2762
 2446TIP3    H128829   5.601   0.553   0.146 -0.6117  0.2797 -0.8826
 2446TIP3    H228830   5.640   0.650   0.036  0.2179  0.5478 -0.3679
 2447TIP3   OH228831   1.367   2.016   5.433 -0.0865 -0.7190  0.0280
 2447TIP3    H128832   1.455   2.052   5.445 -0.1835 -0.1741 -0.8151
 2447TIP3    H228833   1.379   1.921   5.438  0.9156 -0.7613 -2.2193
 2448TIP3   OH228834   0.447   4.329  11.219  0.2261 -0.8274  0.2795
 2448TIP3    H128835   0.484   4.306  11.133  0.0271  0.4197 -0.1688
 2448TIP3    H228836   0.478   4.418  11.235  0.6078 -1.1933  1.7158
 2449TIP3   OH228837   2.128   0.825  15.543 -0.1077 -0.5106  0.0046
 2449TIP3    H128838   2.085   0.798  15.462 -0.0560 -0.9156  0.1111
 2449TIP3    H228839   2.204   0.877  15.514 -0.8940  0.5703 -0.1765
 2450TIP3   OH228840   5.951   4.955   0.834  0.2350 -0.0856 -0.0663
 2450TIP3    H128841   6.037   4.996   0.834 -1.2100  3.4108 -1.4248
 2450TIP3    H228842   5.924   4.954   0.742 -0.7819 -2.1513  0.1896
 2451TIP3   OH228843   3.443   4.784  13.883 -0.1941  0.1949 -0.4199
 2451TIP3    H128844   3.505   4.718  13.913  0.3104  0.4547 -0.8951
 2451TIP3    H228845   3.483   4.823  13.806 -0.7546  0.6557 -0.4883
 2452TIP3   OH228846   5.577   0.811   1.193 -0.0507 -0.0664  0.8796
 2452TIP3    H128847   5.609   0.901   1.183 -0.1949  0.0941  1.7482
 2452TIP3    H228848   5.572   0.798   1.288 -2.2624 -0.1823  0.7850
 2453TIP3   OH228849   0.864   0.801   4.041 -0.1487  0.7627 -0.4770
 2453TIP3    H128850   0.887   0.866   3.974  1.1231  1.7349  0.8476
 2453TIP3    H228851   0.947   0.782   4.085 -0.4798 -1.7600 -0.7733
 2454TIP3   OH228852   2.048   2.343   4.971  0.4852  0.0159 -0.6361
 2454TIP3    H128853   2.011   2.417   4.923  1.5684  0.6099 -0.5798
 2454TIP3    H228854   2.037   2.367   5.063  0.6680  0.0248 -0.6161
 2455TIP3   OH228855   1.128   3.272   1.204 -0.1418 -0.0640 -0.4822
 2455TIP3    H128856   1.158   3.278   1.294  0.4003 -2.6317 -0.4027
 2455TIP3    H228857   1.052   3.329   1.199  0.2263  0.6436  1.4055
 2456TIP3   OH228858   1.380   4.472   4.999  0.4404 -0.6576  0.7150
 2456TIP3    H128859   1.450   4.460   4.935  0.3138 -0.7413  0.5915
 2456TIP3    H228860   1.394   4.560   5.034 -0.5538  0.1165 -0.7238
 2457TIP3   OH228861   2.506   6.116   0.469 -0.4756 -0.2985  0.2506
 2457TIP3    H128862   2.430   6.140   0.416 -0.2179 -0.9757 -0.4337
 2457TIP3    H228863   2.530   6.029   0.439  0.0503 -0.4408  1.0650
 2458TIP3   OH228864   3.160   0.299  17.169  0.8041 -0.2099 -0.1701
 2458TIP3    H128865   3.216   0.231  17.207 -0.4267 -0.3628  1.5021
 2458TIP3    H228866   3.199   0.318  17.084  3.7008  0.0356  1.0713
 2459TIP3   OH228867   4.580   2.143  16.974 -0.7500  0.2004  1.0559
 2459TIP3    H128868   4.504   2.157  17.030 -1.6604  1.0784 -0.3212
 2459TIP3    H228869   4.543   2.124  16.887  0.5687  1.0200  0.2701
 2460TIP3   OH228870   6.307   4.893   0.422 -0.0703  0.3229  0.3152
 2460TIP3    H128871   6.382   4.898   0.363 -0.6137  0.2559 -0.4023
 2460TIP3    H228872   6.345   4.877   0.509  0.6813 -0.8397 -0.2074
 2461TIP3   OH228873   3.899   4.332   4.164  0.1852  0.4143 -0.1024
 2461TIP3    H128874   3.829   4.345   4.227  0.3018 -0.6966  0.2783
 2461TIP3    H228875   3.976   4.311   4.217  0.1252 -1.2109 -0.6213
 2462TIP3   OH228876   3.854   3.816  13.472 -0.2966  0.0362 -0.3884
 2462TIP3    H128877   3.789   3.879  13.504 -0.0300 -0.7794  1.9601
 2462TIP3    H228878   3.938   3.848  13.506  0.3977  0.3621 -2.2816
 2463TIP3   OH228879   3.829   3.959  13.058 -0.0419 -0.5124 -0.4597
 2463TIP3    H128880   3.876   4.040  13.078  0.9658 -1.2258  0.1583
 2463TIP3    H228881   3.897   3.892  13.052 -0.9314 -1.5149  0.1257
 2464TIP3   OH228882   3.801   1.587  12.653  0.1777  0.2808 -0.5336
 2464TIP3    H128883   3.771   1.678  12.639 -0.2013  0.2613  0.1193
 2464TIP3    H228884   3.720   1.536  12.656  0.0976  0.4258  2.8388
 2465TIP3   OH228885   2.344   2.871   6.191  0.0648 -0.5822 -0.4469
 2465TIP3    H128886   2.339   2.896   6.283  0.5337 -0.8851 -0.3319
 2465TIP3    H228887   2.331   2.952   6.143 -1.2770 -0.5926 -0.1380
 2466TIP3   OH228888   2.597   6.669  13.753 -0.7330  0.0803 -0.3272
 2466TIP3    H128889   2.575   6.578  13.732 -2.1430  0.1622  0.6635
 2466TIP3    H228890   2.513   6.713  13.760 -0.2021  0.8981  1.5703
 2467TIP3   OH228891   2.317   4.353  13.242  0.3071 -0.1410 -0.5413
 2467TIP3    H128892   2.392   4.296  13.261  2.1754  1.8232 -1.6055
 2467TIP3    H228893   2.339   4.437  13.282  0.3222  1.4820 -3.6326
 2468TIP3   OH228894   4.435   6.792   5.464  0.4087 -0.3025  0.2824
 2468TIP3    H128895   4.380   6.808   5.540 -0.5933 -0.6042 -0.3595
 2468TIP3    H228896   4.380   6.817   5.389  0.9097 -1.2367 -0.4126
 2469TIP3   OH228897   0.388   2.345  15.613  0.2094  0.3213  0.2498
 2469TIP3    H128898   0.356   2.348  15.522  0.8381 -1.1757 -0.0531
 2469TIP3    H228899   0.317   2.302  15.661  0.0986  0.6295  0.3606
 2470TIP3   OH228900   3.174   2.306   5.498  0.3805  0.4019  0.1494
 2470TIP3    H128901   3.111   2.323   5.428 -0.2994  0.5790  0.7853
 2470TIP3    H228902   3.147   2.365   5.569  1.7122  1.0265  0.1720
 2471TIP3   OH228903   3.727   1.629   5.733  0.0179  0.0889  0.3771
 2471TIP3    H128904   3.800   1.599   5.679  0.4059  2.0618 -0.2605
 2471TIP3    H228905   3.649   1.595   5.687  0.3834  1.0198 -1.0136
 2472TIP3   OH228906   1.941   5.188   6.415  0.0953 -0.6665  0.2569
 2472TIP3    H128907   1.855   5.215   6.383 -0.7191 -1.5304  1.6084
 2472TIP3    H228908   1.923   5.115   6.474  1.9698 -2.3840 -1.1634
 2473TIP3   OH228909   3.320   1.927   0.323 -0.1134  0.6704 -0.0939
 2473TIP3    H128910   3.292   1.856   0.265 -1.8144  0.1537  1.2694
 2473TIP3    H228911   3.413   1.909   0.340 -0.1193 -0.3372 -0.9968
 2474TIP3   OH228912   3.556   6.661   5.342 -1.0534  0.0553  0.1306
 2474TIP3    H128913   3.487   6.627   5.399 -0.1432 -0.7571  0.7739
 2474TIP3    H228914   3.547   6.611   5.261 -1.7825  0.5886 -0.1257
 2475TIP3   OH228915   4.499   2.127   0.847 -0.9635 -0.1960 -0.2455
 2475TIP3    H128916   4.535   2.113   0.935 -1.1507 -0.4793 -0.2151
 2475TIP3    H228917   4.525   2.217   0.825  0.0026 -0.4887 -0.3404
 2476TIP3   OH228918   1.058   1.470   6.141 -0.2875  0.7726  0.1439
 2476TIP3    H128919   0.977   1.514   6.167  0.1356  2.1769 -0.8496
 2476TIP3    H228920   1.049   1.456   6.047  0.5250  0.6945  0.0751
 2477TIP3   OH228921   2.227   2.386  11.849 -0.5866 -0.3718  0.6092
 2477TIP3    H128922   2.305   2.377  11.793 -0.3976  0.9630  0.6177
 2477TIP3    H228923   2.183   2.302  11.842 -0.0530 -0.5690 -0.7883
 2478TIP3   OH228924   1.519   2.856  15.396  0.0582 -0.3275  0.4745
 2478TIP3    H128925   1.431   2.874  15.365  1.1576  1.7513 -1.8545
 2478TIP3    H228926   1.555   2.796  15.331  0.9925  0.5161  0.1847
 2479TIP3   OH228927   6.742   5.278   5.462  0.6143 -0.2955 -0.1950
 2479TIP3    H128928   6.743   5.337   5.387 -0.5625  0.3446  0.2635
 2479TIP3    H228929   6.834   5.270   5.488  0.9583  0.0188 -1.2698
 2480TIP3   OH228930   2.631   5.454  16.190  0.1674  0.1951  0.1453
 2480TIP3    H128931   2.645   5.549  16.197  1.4628  0.0918 -0.7641
 2480TIP3    H228932   2.719   5.418  16.179 -0.2183 -1.2145  1.3735
 2481TIP3   OH228933   4.367   5.487   3.925 -0.1146 -0.6731 -0.5666
 2481TIP3    H128934   4.405   5.420   3.981  2.3568  0.8200 -0.2758
 2481TIP3    H228935   4.417   5.566   3.945 -3.4326  1.5393 -0.2714
 2482TIP3   OH228936   2.616   4.108  14.843  0.2464  0.2310 -0.6190
 2482TIP3    H128937   2.711   4.115  14.829  0.1678  0.5398 -1.0264
 2482TIP3    H228938   2.600   4.014  14.846  0.7837  0.1582  1.1022
 2483TIP3   OH228939   3.262   1.200  12.063 -0.2325 -0.0566  0.2453
 2483TIP3    H128940   3.281   1.283  12.020 -1.6289  0.2220  0.1163
 2483TIP3    H228941   3.175   1.212  12.101  0.1826 -0.9424  1.5516
 2484TIP3   OH228942   2.848   0.838   6.451 -0.1229  0.0193  0.7426
 2484TIP3    H128943   2.822   0.911   6.506  0.7886 -0.7378  2.2395
 2484TIP3    H228944   2.942   0.852   6.436  0.4158 -1.5977  2.3163
 2485TIP3   OH228945   6.797   6.032  15.996 -0.2305 -0.5528 -0.3660
 2485TIP3    H128946   6.852   5.957  15.974  1.6868  0.7256 -0.1341
 2485TIP3    H228947   6.821   6.054  16.086  1.7013  2.2731 -1.4246
 2486TIP3   OH228948   6.681   6.054   1.285 -0.6500  0.1883  0.0975
 2486TIP3    H128949   6.712   6.104   1.361  0.1046 -0.7409  0.4274
 2486TIP3    H228950   6.626   5.985   1.322 -1.8114  0.8422 -0.3653
 2487TIP3   OH228951   4.551   2.536  15.647  0.3404 -0.5076 -0.5012
 2487TIP3    H128952   4.591   2.603  15.591 -0.3050 -0.5140 -0.9876
 2487TIP3    H228953   4.461   2.567  15.660  0.3784 -0.6998  0.2285
 2488TIP3   OH228954   1.616   5.283  16.375  0.9709 -0.1988  0.1153
 2488TIP3    H128955   1.598   5.357  16.433  0.4354 -1.2930  1.4130
 2488TIP3    H228956   1.585   5.311  16.289 -0.2788  0.6669  0.8226
 2489TIP3   OH228957   0.921   5.532  15.784  0.4500  0.4033 -0.1793
 2489TIP3    H128958   0.954   5.461  15.729 -0.4459 -1.4152  1.4808
 2489TIP3    H228959   0.985   5.539  15.855 -0.4058 -0.0714  0.6638
 2490TIP3   OH228960   3.680   2.129  14.630 -0.0629 -0.4077  0.0307
 2490TIP3    H128961   3.695   2.216  14.592  1.3865  0.6857  2.7960
 2490TIP3    H228962   3.764   2.084  14.623 -0.4796 -1.1586 -0.3172
 2491TIP3   OH228963   4.241   1.660  15.786  0.2538 -0.0624 -0.3300
 2491TIP3    H128964   4.266   1.634  15.697 -0.2126  0.6365 -0.6703
 2491TIP3    H228965   4.163   1.608  15.804  1.0473 -1.1349  0.1657
 2492TIP3   OH228966   4.285   5.972  12.271 -0.1139  0.2815 -0.4757
 2492TIP3    H128967   4.275   6.006  12.182  0.2567 -2.3634 -1.6039
 2492TIP3    H228968   4.239   5.888  12.271 -0.2629  0.2796  1.9112
 2493TIP3   OH228969   2.914   4.469   4.946  0.2173 -0.0145  0.2311
 2493TIP3    H128970   2.854   4.529   4.902 -0.8998 -0.6931  0.8029
 2493TIP3    H228971   2.859   4.416   5.003  1.2570 -1.1733  0.2180
 2494TIP3   OH228972   0.500   0.576  15.836  0.2144 -0.0517  0.3708
 2494TIP3    H128973   0.449   0.514  15.783  0.5026  0.2791 -0.3144
 2494TIP3    H228974   0.434   0.625  15.886 -0.3262  1.3525 -1.5522
 2495TIP3   OH228975   5.393   0.831  12.803 -1.0465 -0.3674 -0.6169
 2495TIP3    H128976   5.316   0.786  12.770 -0.2843 -1.2565 -1.2395
 2495TIP3    H228977   5.450   0.761  12.835  1.1219 -0.1445 -3.5622
 2496TIP3   OH228978   2.274   2.477   3.557  0.8394  0.4378 -0.3262
 2496TIP3    H128979   2.297   2.409   3.493 -0.5560  0.0429 -0.4338
 2496TIP3    H228980   2.193   2.515   3.524  0.5208  0.7635  0.7878
 2497TIP3   OH228981   6.696   1.066  15.825 -0.1253 -0.6073  0.7165
 2497TIP3    H128982   6.700   1.044  15.731  0.5538 -1.8646  1.0173
 2497TIP3    H228983   6.716   1.160  15.828 -0.8640 -0.3870 -0.4494
 2498TIP3   OH228984   0.955   4.366  13.400 -0.1056 -0.2944  0.3055
 2498TIP3    H128985   0.969   4.358  13.494  0.2607 -0.8852  0.2087
 2498TIP3    H228986   0.941   4.276  13.370  1.2101 -0.2926 -0.4065
 2499TIP3   OH228987   6.578   5.019  13.330  0.3838 -0.4940 -0.0689
 2499TIP3    H128988   6.553   5.060  13.413  2.3052 -0.0023  0.3146
 2499TIP3    H228989   6.643   4.953  13.354  0.2308 -1.0382 -1.0939
 2500TIP3   OH228990   3.129   4.892   3.911  0.0325  0.2729 -0.7885
 2500TIP3    H128991   3.124   4.967   3.851 -1.3971 -0.3083 -1.4553
 2500TIP3    H228992   3.218   4.895   3.945 -0.0484  2.4022 -0.6158
 2501TIP3   OH228993   2.903   2.042  14.325 -0.8120  0.1350 -0.7266
 2501TIP3    H128994   2.927   2.068  14.236 -0.6916 -1.8080 -1.3083
 2501TIP3    H228995   2.815   2.005  14.316 -1.1436  0.6911  0.1231
 2502TIP3   OH228996   2.744   5.417  16.985  0.2034 -0.2224 -0.1350
 2502TIP3    H128997   2.763   5.510  16.994 -0.6406 -0.1288  0.8517
 2502TIP3    H228998   2.690   5.411  16.907  1.0677 -0.0270 -0.7722
 2503TIP3   OH228999   1.136   5.499  11.445 -0.2909 -0.4915  0.3269
 2503TIP3    H129000   1.177   5.573  11.400 -0.8058 -1.1701 -1.3693
 2503TIP3    H229001   1.055   5.536  11.482 -0.5702 -0.1978 -0.5476
 2504TIP3   OH229002   4.903   4.061   0.602 -0.3133 -0.3517 -0.7106
 2504TIP3    H129003   4.930   4.102   0.684 -1.2043 -0.3821 -0.3964
 2504TIP3    H229004   4.859   3.981   0.628  0.0833 -0.7636 -1.2620
 2505TIP3   OH229005   2.207   5.043   3.509  0.4012 -0.6690  0.5727
 2505TIP3    H129006   2.184   5.041   3.601 -3.0363 -0.4077 -0.1371
 2505TIP3    H229007   2.250   4.960   3.492 -0.3662 -1.4033  2.0852
 2506TIP3   OH229008   5.407   0.111  10.933  0.2311  0.1091  0.0124
 2506TIP3    H129009   5.498   0.089  10.952 -0.0258 -0.2265  0.8821
 2506TIP3    H229010   5.389   0.188  10.987 -0.1957 -0.2199  0.3404
 2507TIP3   OH229011   6.290   3.197  16.498 -0.1661 -0.2625 -0.0300
 2507TIP3    H129012   6.370   3.144  16.495 -0.2585 -0.5809  1.9046
 2507TIP3    H229013   6.311   3.273  16.443  1.2764 -0.5847  0.0148
 2508TIP3   OH229014   1.664   6.220   1.109  0.1947  0.1921  0.0981
 2508TIP3    H129015   1.729   6.178   1.053 -1.2643 -0.7654 -0.9765
 2508TIP3    H229016   1.602   6.260   1.047 -3.5725 -4.0135  0.5543
 2509TIP3   OH229017   5.034   2.472  11.645  0.9590 -0.3347  0.0673
 2509TIP3    H129018   5.123   2.494  11.671  1.0816  1.0246 -1.3305
 2509TIP3    H229019   5.041   2.445  11.553  0.2396 -2.6539  0.6391
 2510TIP3   OH229020   1.569   3.734   1.719  0.6041  0.0537  0.0977
 2510TIP3    H129021   1.526   3.799   1.775  1.3601 -1.9548  3.2773
 2510TIP3    H229022   1.498   3.678   1.688  0.0463  1.7955 -2.0389
 2511TIP3   OH229023   1.504   0.844  15.427 -0.1799 -0.4046 -0.1001
 2511TIP3    H129024   1.480   0.934  15.407 -2.0376 -0.7530  0.3411
 2511TIP3    H229025   1.427   0.793  15.400  0.3478 -1.7133  0.7881
 2512TIP3   OH229026   2.936   6.345  12.792  0.2718 -0.0798  0.0592
 2512TIP3    H129027   2.919   6.358  12.698  1.1186 -2.6075 -0.5086
 2512TIP3    H229028   2.965   6.431  12.822 -0.1442  0.8380 -1.9519
 2513TIP3   OH229029   6.653   1.065  13.680  0.2889 -0.0634 -0.1576
 2513TIP3    H129030   6.572   1.091  13.725  0.9268  0.1300  0.9203
 2513TIP3    H229031   6.638   1.087  13.588 -0.5561  0.7730  0.1658
 2514TIP3   OH229032   6.547   2.589   3.358  0.3065  0.0167  0.0359
 2514TIP3    H129033   6.537   2.672   3.310  1.8863 -0.2531 -0.8075
 2514TIP3    H229034   6.528   2.612   3.449 -0.4549  1.0390 -0.3516
 2515TIP3   OH229035   6.291   5.901  14.418  0.2733  0.3805 -0.1748
 2515TIP3    H129036   6.369   5.846  14.408  0.0772  0.1384 -0.3649
 2515TIP3    H229037   6.279   5.941  14.332  0.2311  0.4771 -0.1239
 2516TIP3   OH229038   6.137   5.712  17.290  0.3378 -0.3459 -0.1387
 2516TIP3    H129039   6.213   5.765  17.268  1.3185 -1.5467  0.2234
 2516TIP3    H229040   6.161   5.623  17.262 -0.2202 -1.0639  1.5095
 2517TIP3   OH229041   4.227   2.574  14.584 -0.6205 -0.0817 -0.0688
 2517TIP3    H129042   4.296   2.608  14.526 -0.0257 -2.1146 -0.6509
 2517TIP3    H229043   4.156   2.550  14.524 -0.6480 -0.7131  0.2148
 2518TIP3   OH229044   5.292   3.841   5.692 -0.1351  0.6491  0.1141
 2518TIP3    H129045   5.207   3.884   5.691  0.7662  2.5143  0.3576
 2518TIP3    H229046   5.337   3.874   5.613  0.1666 -0.7685 -0.3411
 2519TIP3   OH229047   1.527   0.223  17.122  0.0336 -0.5240 -0.0500
 2519TIP3    H129048   1.553   0.133  17.142 -2.8293 -1.6828 -1.0915
 2519TIP3    H229049   1.553   0.273  17.199  3.2423 -1.8266 -0.1326
 2520TIP3   OH229050   1.563   4.085   0.321  0.1513 -0.1803 -0.3561
 2520TIP3    H129051   1.492   4.059   0.379  0.4501 -1.7606 -0.6604
 2520TIP3    H229052   1.529   4.161   0.273 -0.9724 -0.3601  0.1446
 2521TIP3   OH229053   6.596   0.290   5.154 -0.4625  0.5984  0.0824
 2521TIP3    H129054   6.556   0.341   5.083 -3.3632 -0.9516  0.4690
 2521TIP3    H229055   6.598   0.200   5.121  0.7517  0.2772  0.9484
 2522TIP3   OH229056   4.235   4.801  12.064 -0.5031  0.0707  0.7787
 2522TIP3    H129057   4.202   4.793  11.975  0.3380  1.9520  0.2411
 2522TIP3    H229058   4.200   4.885  12.094 -0.2439 -0.2415  2.0012
 2523TIP3   OH229059   0.834   1.858   2.714  0.0889 -0.0310 -0.5279
 2523TIP3    H129060   0.841   1.923   2.784  1.0157 -0.9076  0.2318
 2523TIP3    H229061   0.859   1.905   2.634  1.0444  0.4747  0.0520
 2524TIP3   OH229062   1.361   1.467   2.251  0.0553 -0.5475  0.4943
 2524TIP3    H129063   1.399   1.541   2.203 -1.2745  0.0235  0.2594
 2524TIP3    H229064   1.372   1.491   2.343 -2.5963  1.2790  0.4793
 2525TIP3   OH229065   5.614   3.522   0.944 -0.2788  0.5138  0.3839
 2525TIP3    H129066   5.570   3.552   0.864  1.0171 -0.4295 -0.7248
 2525TIP3    H229067   5.592   3.429   0.951  1.6793 -0.0481 -0.3508
 2526TIP3   OH229068   4.747   0.519  14.936 -0.0273 -0.1797 -0.2514
 2526TIP3    H129069   4.654   0.521  14.916 -0.2901 -0.1039  0.9441
 2526TIP3    H229070   4.786   0.583  14.876 -1.0491  1.4541  0.7405
 2527TIP3   OH229071   1.618   0.779  15.793  0.3081 -0.2749  0.6879
 2527TIP3    H129072   1.668   0.815  15.866 -1.1681  0.3079  1.4542
 2527TIP3    H229073   1.545   0.732  15.835  0.0455 -0.8706 -0.3920
 2528TIP3   OH229074   4.299   4.287  16.165 -0.1258  0.2298 -0.1461
 2528TIP3    H129075   4.393   4.266  16.163 -0.0069  0.2441  2.4133
 2528TIP3    H229076   4.262   4.223  16.226 -1.0747  2.5497  1.8565
 2529TIP3   OH229077   5.150   2.438   4.148 -0.2286  0.2578  0.0302
 2529TIP3    H129078   5.071   2.385   4.137 -0.7777  0.8046  1.2389
 2529TIP3    H229079   5.146   2.502   4.076  0.7115 -1.5866 -1.7636
 2530TIP3   OH229080   0.168   3.108   0.874  0.0366  0.1765  0.0410
 2530TIP3    H129081   0.116   3.073   0.946  0.0594 -1.7439 -0.8348
 2530TIP3    H229082   0.251   3.133   0.914 -0.9236  1.8204  1.1563
 2531TIP3   OH229083   6.102   2.692  14.949 -0.0045 -0.5213 -0.6629
 2531TIP3    H129084   6.173   2.647  14.995  0.2044 -0.0856 -0.5467
 2531TIP3    H229085   6.123   2.682  14.856  1.3430  1.3353 -0.6178
 2532TIP3   OH229086   0.132   3.929   1.937 -0.3421  0.2118 -0.1097
 2532TIP3    H129087   0.216   3.884   1.939 -0.2478  0.3348 -1.0034
 2532TIP3    H229088   0.085   3.894   2.014  0.3192 -0.2344  0.1056
 2533TIP3   OH229089   0.819   3.983   3.616  0.1556  0.1480 -0.2254
 2533TIP3    H129090   0.891   3.923   3.633 -0.3994 -0.2488  0.7809
 2533TIP3    H229091   0.788   4.010   3.702 -0.8474  0.3789 -0.6411
 2534TIP3   OH229092   4.508   1.870   5.174  0.6134 -0.1495 -0.7414
 2534TIP3    H129093   4.464   1.913   5.101  0.7704  0.5618 -0.4229
 2534TIP3    H229094   4.507   1.777   5.151 -1.5074 -0.2254 -0.5127
 2535TIP3   OH229095   2.313   1.007  15.452  0.1482 -0.6017 -0.0726
 2535TIP3    H129096   2.323   1.076  15.386 -1.2431  0.4940  0.8027
 2535TIP3    H229097   2.361   1.040  15.529 -1.4120 -0.0575  0.7083
 2536TIP3   OH229098   1.737   1.844   0.726 -0.6455  0.5047  0.3737
 2536TIP3    H129099   1.679   1.806   0.660  1.8924 -0.2912 -1.5506
 2536TIP3    H229100   1.743   1.937   0.702 -0.0813  0.3099 -0.2389
 2537TIP3   OH229101   4.606   3.985   5.429 -0.1572 -0.1988  0.0470
 2537TIP3    H129102   4.692   4.025   5.424  0.3094 -1.3509 -2.5872
 2537TIP3    H229103   4.613   3.922   5.502  1.0940 -0.0114  0.1097
 2538TIP3   OH229104   0.323   2.628  13.396  0.1837 -0.7440  0.1180
 2538TIP3    H129105   0.353   2.587  13.315 -2.3521 -1.3433 -0.5947
 2538TIP3    H229106   0.240   2.586  13.415 -0.9965  1.8232  1.1198
 2539TIP3   OH229107   2.294   3.188   3.042  0.0747  0.0103  0.0500
 2539TIP3    H129108   2.257   3.105   3.012 -0.7751  1.1798 -2.3612
 2539TIP3    H229109   2.340   3.223   2.966  1.7540  1.0701  1.4711
 2540TIP3   OH229110   1.261   4.051   4.138 -0.3564  0.6760 -0.3374
 2540TIP3    H129111   1.253   4.110   4.213 -0.9844 -0.5245  0.5774
 2540TIP3    H229112   1.333   3.993   4.161 -0.4152  0.4346 -0.7527
 2541TIP3   OH229113   4.845   6.483  11.090  0.3036 -0.1359 -0.0396
 2541TIP3    H129114   4.918   6.545  11.097 -0.7125  1.0303  0.7201
 2541TIP3    H229115   4.792   6.517  11.018  0.0202 -0.4396  0.0267
 2542TIP3   OH229116   6.433   2.402  13.251  0.0839 -0.2243 -0.5036
 2542TIP3    H129117   6.419   2.312  13.220 -1.0332 -0.9114  1.7318
 2542TIP3    H229118   6.484   2.391  13.331 -0.6228  1.0698  0.1502
 2543TIP3   OH229119   4.220   2.313   0.743  0.2953  0.0754  0.0322
 2543TIP3    H129120   4.205   2.263   0.663 -1.0427  0.7967 -0.1996
 2543TIP3    H229121   4.218   2.248   0.813 -0.6714 -0.3098 -0.3327
 2544TIP3   OH229122   1.671   2.828  16.057 -0.4948 -0.1763 -0.2922
 2544TIP3    H129123   1.643   2.774  15.982  2.1391 -1.1426 -0.6887
 2544TIP3    H229124   1.688   2.765  16.127 -0.0119  0.4177  0.1327
 2545TIP3   OH229125   4.104   3.658  15.335 -0.0228 -0.1644  0.1279
 2545TIP3    H129126   4.168   3.678  15.266  1.0061 -0.0758  1.0815
 2545TIP3    H229127   4.026   3.709  15.311  1.0162  1.4828  0.1225
 2546TIP3   OH229128   0.769   1.148   2.823  0.3190  0.2303 -0.3285
 2546TIP3    H129129   0.818   1.129   2.743  1.2198  0.1944  0.2215
 2546TIP3    H229130   0.833   1.190   2.881 -0.5810  1.2164 -0.0053
 2547TIP3   OH229131   2.333   6.741   5.120  0.3731 -0.1595 -0.2213
 2547TIP3    H129132   2.319   6.818   5.064  2.0785 -0.7987 -1.6011
 2547TIP3    H229133   2.424   6.749   5.149  1.6348 -3.0977 -2.8232
 2548TIP3   OH229134   3.631   3.397   2.017 -0.4250  0.7230 -0.4760
 2548TIP3    H129135   3.627   3.307   1.983 -0.2856  0.1993  0.8328
 2548TIP3    H229136   3.574   3.396   2.094  1.6379  1.0190  1.1267
 2549TIP3   OH229137   3.437   5.053   4.435 -0.8226  0.1315 -0.6689
 2549TIP3    H129138   3.451   5.047   4.530  1.7536  2.5260 -0.7867
 2549TIP3    H229139   3.367   4.989   4.418  0.1163 -2.0135  2.4842
 2550TIP3   OH229140   4.276   2.902  12.097  0.8153  0.4201  0.1979
 2550TIP3    H129141   4.186   2.904  12.129  0.1999 -0.1053 -1.4106
 2550TIP3    H229142   4.283   2.979  12.040  0.7569 -0.5681 -1.2005
 2551TIP3   OH229143   5.059   3.670  16.695  0.0651  0.1770  0.0019
 2551TIP3    H129144   4.990   3.694  16.756 -0.2180 -0.9094  0.1279
 2551TIP3    H229145   5.137   3.717  16.727 -0.5462  1.2522 -0.0315
 2552TIP3   OH229146   3.825   4.053   5.160 -0.1606 -0.6171  0.0483
 2552TIP3    H129147   3.739   4.065   5.200  0.1093 -1.2861  0.8457
 2552TIP3    H229148   3.808   3.999   5.083 -0.7505  1.0885 -1.0705
 2553TIP3   OH229149   2.660   1.639  11.974  0.2465  0.3896 -0.6743
 2553TIP3    H129150   2.654   1.608  12.064 -1.9542  0.1444 -0.8340
 2553TIP3    H229151   2.569   1.648  11.946  0.8692  0.9204 -2.7245
 2554TIP3   OH229152   5.580   4.939  12.205 -0.2653  0.3506  0.1162
 2554TIP3    H129153   5.571   4.844  12.211  0.4258  0.2226 -0.6731
 2554TIP3    H229154   5.492   4.969  12.180 -0.1434 -0.2392 -1.1045
 2555TIP3   OH229155   4.667   3.327  12.143 -0.2230 -0.7474 -0.7905
 2555TIP3    H129156   4.622   3.395  12.192  1.9264  0.2459 -0.0629
 2555TIP3    H229157   4.687   3.367  12.058  1.1484 -0.3564 -0.3191
 2556TIP3   OH229158   2.105   0.918   5.197  0.1551  0.1779 -0.0998
 2556TIP3    H129159   2.035   0.893   5.136 -0.2731 -0.0166  0.4657
 2556TIP3    H229160   2.146   0.994   5.156 -2.0474  1.9455  0.7969
 2557TIP3   OH229161   3.234   6.621  12.728  0.4040  0.0379  0.1028
 2557TIP3    H129162   3.287   6.583  12.657  0.0356 -0.3437  0.0284
 2557TIP3    H229163   3.199   6.701  12.691 -0.2005 -0.4158 -0.3294
 2558TIP3   OH229164   4.298   4.350  14.559 -0.5693  0.0569 -0.7059
 2558TIP3    H129165   4.299   4.406  14.482 -1.9451  0.0657 -0.7429
 2558TIP3    H229166   4.206   4.349  14.587 -0.1053  0.0924  0.9539
 2559TIP3   OH229167   4.851   4.436  13.230 -0.0128 -0.2885 -0.3794
 2559TIP3    H129168   4.756   4.447  13.217  0.1131  1.4746 -0.0016
 2559TIP3    H229169   4.889   4.457  13.145  0.1101  0.2042 -0.2044
 2560TIP3   OH229170   2.983   3.686   0.370 -0.0274 -0.3381  0.7271
 2560TIP3    H129171   2.901   3.712   0.328  0.1054  0.8131  1.1420
 2560TIP3    H229172   3.016   3.766   0.409  1.5689 -0.6649  0.1323
 2561TIP3   OH229173   5.376   0.207   1.924 -0.0115 -0.5711 -0.3310
 2561TIP3    H129174   5.294   0.181   1.882 -0.5191  0.0875  0.2398
 2561TIP3    H229175   5.412   0.275   1.866 -1.0846  0.8831  0.6348
 2562TIP3   OH229176   0.038   5.441   6.302 -0.1942 -0.6739  0.2159
 2562TIP3    H129177   0.119   5.430   6.353  1.4678  0.7312 -1.8955
 2562TIP3    H229178   0.027   5.536   6.296 -0.7884 -0.8093 -1.2690
 2563TIP3   OH229179   1.790   2.900   4.285  0.5903 -0.0886  0.5048
 2563TIP3    H129180   1.882   2.914   4.306  0.5320 -1.4285  1.8226
 2563TIP3    H229181   1.789   2.883   4.191  1.5711  0.6669  0.3401
 2564TIP3   OH229182   1.457   4.936   4.249 -0.2721  0.3517 -0.4267
 2564TIP3    H129183   1.395   5.004   4.225 -2.1173 -0.3000  2.0870
 2564TIP3    H229184   1.446   4.868   4.184  0.3491  1.6532 -1.9636
 2565TIP3   OH229185   2.219   3.732  15.922 -0.0415 -0.2223 -0.0652
 2565TIP3    H129186   2.261   3.791  15.859 -1.0003  0.5627  0.0050
 2565TIP3    H229187   2.143   3.698  15.876  0.1092 -0.8528  0.1463
 2566TIP3   OH229188   2.806   3.809  14.613 -0.5690 -0.5390 -0.1577
 2566TIP3    H129189   2.807   3.831  14.520  0.3367 -1.9982 -0.5180
 2566TIP3    H229190   2.735   3.746  14.622 -1.3044  0.3343  0.3473
 2567TIP3   OH229191   4.549   4.552  15.873  0.1275  0.0490  0.3370
 2567TIP3    H129192   4.541   4.639  15.834  0.7558 -0.5706 -1.2453
 2567TIP3    H229193   4.525   4.565  15.965  0.3842  1.9168  0.1766
 2568TIP3   OH229194   5.551   4.827   1.693  0.2257  0.1089 -0.2628
 2568TIP3    H129195   5.628   4.818   1.636  0.3098  1.2822 -0.3587
 2568TIP3    H229196   5.478   4.830   1.632  0.2842  0.9960 -0.2991
 2569TIP3   OH229197   2.959   2.202   0.421 -0.6410 -0.8275  0.5403
 2569TIP3    H129198   3.025   2.271   0.419 -0.3764 -1.0409 -2.3961
 2569TIP3    H229199   2.989   2.142   0.489  1.2042  0.0028  0.5199
 2570TIP3   OH229200   2.224   0.404   0.877 -0.1276 -0.4598 -0.4471
 2570TIP3    H129201   2.184   0.478   0.832 -1.0571 -0.2450  0.6731
 2570TIP3    H229202   2.164   0.385   0.950  1.2767 -0.8085  0.6741
 2571TIP3   OH229203   3.734   6.371   1.790 -0.6280 -0.6232 -0.2238
 2571TIP3    H129204   3.804   6.361   1.855 -0.5442 -0.8249 -0.3454
 2571TIP3    H229205   3.780   6.375   1.706 -0.6996  0.1532 -0.2311
 2572TIP3   OH229206   0.256   1.447  14.162  0.5667 -0.2224 -0.2599
 2572TIP3    H129207   0.276   1.430  14.255  0.0723 -0.8215 -0.2566
 2572TIP3    H229208   0.221   1.364  14.130  0.4849  0.0644 -0.9184
 2573TIP3   OH229209   5.351   1.244  15.004 -0.0444  0.3767 -0.4125
 2573TIP3    H129210   5.422   1.215  15.062  0.2076  1.6816 -0.0369
 2573TIP3    H229211   5.394   1.261  14.920  0.4442  2.7321  0.2505
 2574TIP3   OH229212   5.380   6.418   4.169 -0.1322 -0.3942  0.0349
 2574TIP3    H129213   5.341   6.505   4.180  2.5991  1.0044 -0.3694
 2574TIP3    H229214   5.388   6.407   4.074  0.2320 -0.7231  0.0994
 2575TIP3   OH229215   3.015   5.737   4.654  0.3924 -0.2908 -0.2166
 2575TIP3    H129216   2.980   5.714   4.568 -0.1016 -2.0682  0.4021
 2575TIP3    H229217   3.097   5.781   4.635  0.0504 -0.1942 -1.6106
 2576TIP3   OH229218   0.702   1.250   4.255  0.4489 -0.2620  0.3734
 2576TIP3    H129219   0.617   1.278   4.290  0.3928  0.1105 -0.0429
 2576TIP3    H229220   0.682   1.221   4.166  0.9712  1.1980 -0.2465
 2577TIP3   OH229221   3.077   6.083  15.512  0.2186  0.2502 -0.4778
 2577TIP3    H129222   2.983   6.098  15.530 -0.3109 -1.5540 -1.5717
 2577TIP3    H229223   3.078   6.032  15.432  2.0857 -1.0521  0.3189
 2578TIP3   OH229224   6.005   3.112   1.186  0.3740 -0.3976 -0.2707
 2578TIP3    H129225   6.019   3.147   1.274 -0.9845  0.6006 -0.4126
 2578TIP3    H229226   6.079   3.053   1.171  0.6007 -0.6184  1.5496
 2579TIP3   OH229227   5.460   3.364   1.389  0.5085 -0.4019 -0.3735
 2579TIP3    H129228   5.511   3.283   1.391 -0.9704 -1.3815 -0.2678
 2579TIP3    H229229   5.478   3.405   1.474 -1.6927 -2.6277  1.3264
 2580TIP3   OH229230   2.960   5.870   2.843  0.1992  0.0078 -0.6300
 2580TIP3    H129231   2.985   5.963   2.847  0.2290 -0.0437  0.6559
 2580TIP3    H229232   2.918   5.852   2.927  2.9291 -1.9121  0.4486
 2581TIP3   OH229233   5.042   4.665   6.553  0.0395  0.1342  0.0295
 2581TIP3    H129234   5.116   4.659   6.613 -0.2255 -0.9399  0.2841
 2581TIP3    H229235   5.044   4.755   6.521  1.3961  0.1493  0.0948
 2582TIP3   OH229236   5.217   6.696  10.962  0.6491 -0.7963 -0.2298
 2582TIP3    H129237   5.237   6.642  10.886 -1.3732  0.9200 -2.1107
 2582TIP3    H229238   5.276   6.770  10.956  0.0005 -0.2962 -0.5762
 2583TIP3   OH229239   4.136   3.938   2.203 -0.0732  0.2042  0.5737
 2583TIP3    H129240   4.091   4.023   2.193  0.3518  0.3104 -0.4998
 2583TIP3    H229241   4.153   3.932   2.297  1.5158  2.1651  0.4793
 2584TIP3   OH229242   2.457   5.131   2.595  0.1255 -0.0068 -0.5705
 2584TIP3    H129243   2.467   5.200   2.530  0.7587 -0.2198 -0.7111
 2584TIP3    H229244   2.507   5.057   2.560  0.1854 -0.2405 -0.0158
 2585TIP3   OH229245   4.084   5.969   3.891 -0.2026 -0.2321  0.1733
 2585TIP3    H129246   4.129   5.994   3.972  1.1635  2.1306 -1.2099
 2585TIP3    H229247   3.994   5.997   3.904 -0.1696 -0.5334  1.1182
 2586TIP3   OH229248   2.107   4.281  12.527 -0.3298  0.5593  0.3723
 2586TIP3    H129249   2.174   4.325  12.475 -1.6583  2.3231  0.0585
 2586TIP3    H229250   2.028   4.335  12.515 -1.7943 -1.3820  0.7831
 2587TIP3   OH229251   3.095   6.540  12.399 -0.3765 -0.1971 -0.0927
 2587TIP3    H129252   3.190   6.535  12.412 -0.4416 -1.4787  0.0272
 2587TIP3    H229253   3.073   6.633  12.414  0.7584 -0.0136  0.5321
 2588TIP3   OH229254   2.296   3.137  13.728 -0.1528  0.1576 -0.6751
 2588TIP3    H129255   2.379   3.091  13.715 -0.5581 -0.7967  0.0319
 2588TIP3    H229256   2.295   3.159  13.821 -0.2323  1.0854 -0.8874
 2589TIP3   OH229257   0.759   2.420  14.577  0.5692 -0.5966 -0.2346
 2589TIP3    H129258   0.694   2.445  14.512 -1.3559 -0.6638  1.5400
 2589TIP3    H229259   0.836   2.396  14.526 -0.4839  0.3458 -2.4021
 2590TIP3   OH229260   1.261   1.047   3.669 -0.1127  0.8038 -0.4733
 2590TIP3    H129261   1.313   1.095   3.603 -0.3676  0.4401 -0.9433
 2590TIP3    H229262   1.206   0.988   3.618  1.9572 -1.8489  0.1403
 2591TIP3   OH229263   3.558   2.137   0.953 -0.4104  0.2935  0.1062
 2591TIP3    H129264   3.636   2.188   0.934 -0.0249 -0.8436 -1.5910
 2591TIP3    H229265   3.590   2.059   0.997 -0.2919 -1.0518 -2.2042
 2592TIP3   OH229266   2.968   2.942  14.763 -0.4357  0.4382 -0.0869
 2592TIP3    H129267   2.875   2.965  14.769 -0.1124  1.4344  2.3594
 2592TIP3    H229268   2.979   2.869  14.825  0.2867 -0.1599 -0.9029
 2593TIP3   OH229269   3.043   1.739   6.798  0.1459  0.5019 -0.2555
 2593TIP3    H129270   3.128   1.709   6.766 -0.1252  0.2695 -0.7691
 2593TIP3    H229271   3.007   1.663   6.844  0.1491  0.5517 -0.1708
 2594TIP3   OH229272   2.668   4.625  11.595  0.4701  0.0860 -0.2545
 2594TIP3    H129273   2.635   4.536  11.597 -0.3991  0.4051  0.0566
 2594TIP3    H229274   2.749   4.622  11.647  1.7282 -0.9763 -2.1348
 2595TIP3   OH229275   2.843   6.771  16.843 -0.7155 -0.0024 -0.0222
 2595TIP3    H129276   2.769   6.827  16.818 -0.2864  1.6362  2.1834
 2595TIP3    H229277   2.919   6.812  16.804 -0.5098  0.4579  0.8535
 2596TIP3   OH229278   1.449   4.906  12.549  0.0372 -0.4891  0.6386
 2596TIP3    H129279   1.460   4.838  12.482  0.1529  0.8070 -0.7261
 2596TIP3    H229280   1.380   4.963  12.514 -1.6008 -1.0583  2.7674
 2597TIP3   OH229281   6.434   0.940   6.244 -0.0387 -0.1787  0.6673
 2597TIP3    H129282   6.482   0.922   6.325 -2.0739  1.0404  2.2313
 2597TIP3    H229283   6.467   1.025   6.216 -0.0572 -0.1360  0.7743
 2598TIP3   OH229284   1.135   3.793  16.073  0.0568 -0.4068  0.7031
 2598TIP3    H129285   1.096   3.873  16.108 -1.6805 -0.7400 -0.3960
 2598TIP3    H229286   1.195   3.824  16.005  0.4593  0.0113  1.2292
 2599TIP3   OH229287   5.454   4.981  16.956  0.0111  0.2912 -0.2287
 2599TIP3    H129288   5.359   4.990  16.947 -0.0720 -0.6207 -0.3697
 2599TIP3    H229289   5.469   4.886  16.952  0.8442  0.3738  0.5963
 2600TIP3   OH229290   5.639   3.167  14.241  0.1007 -0.2063  0.2577
 2600TIP3    H129291   5.637   3.256  14.275 -0.8333 -0.0886 -0.0805
 2600TIP3    H229292   5.563   3.124  14.280 -0.2798 -0.4354 -0.6954
 2601TIP3   OH229293   0.085   3.681  15.697 -0.2477  0.2828 -0.2768
 2601TIP3    H129294   0.159   3.727  15.658 -1.6705  0.6457 -2.7082
 2601TIP3    H229295   0.021   3.750  15.716 -1.5581 -0.3689 -2.0225
 2602TIP3   OH229296   4.197   1.896  12.833 -0.2100  0.1026 -0.1873
 2602TIP3    H129297   4.108   1.874  12.805 -0.2545  1.9829 -1.8142
 2602TIP3    H229298   4.190   1.987  12.863  1.0173 -0.0082  0.5002
 2603TIP3   OH229299   4.644   4.470   3.776 -0.3662  0.1124 -0.5172
 2603TIP3    H129300   4.574   4.432   3.829 -2.1743  1.1053 -2.0519
 2603TIP3    H229301   4.700   4.396   3.753 -2.0193 -1.0777 -0.8738
 2604TIP3   OH229302   3.774   0.964  13.522 -0.1460 -0.1783  0.1872
 2604TIP3    H129303   3.862   1.003  13.524 -0.7056  1.3088 -1.4546
 2604TIP3    H229304   3.726   1.012  13.590 -0.7948  2.1106 -1.7355
 2605TIP3   OH229305   5.767   4.295  13.308  0.3153  0.0404 -0.0576
 2605TIP3    H129306   5.845   4.285  13.253 -0.3303  2.4348 -1.5213
 2605TIP3    H229307   5.695   4.306  13.247 -0.6959  1.0797  1.2534
 2606TIP3   OH229308   4.029   6.116   5.112  0.5744 -0.0965  0.4856
 2606TIP3    H129309   3.971   6.044   5.088  1.2140 -0.0048 -1.5464
 2606TIP3    H229310   4.110   6.073   5.139  0.2612 -0.1709  1.3320
 2607TIP3   OH229311   4.080   4.589  14.146 -0.2058  0.0317 -0.0403
 2607TIP3    H129312   4.089   4.552  14.058 -0.9648  0.5086 -0.3259
 2607TIP3    H229313   3.991   4.566  14.173  0.8240 -2.3984  1.6888
 2608TIP3   OH229314   6.387   3.722  10.622 -0.1508 -0.1791  0.3979
 2608TIP3    H129315   6.414   3.667  10.695 -0.2497 -0.0794  0.5123
 2608TIP3    H229316   6.377   3.809  10.660 -1.2388 -0.3321  0.5089
 2609TIP3   OH229317   3.270   2.841   4.321  0.8042 -0.4016  0.6193
 2609TIP3    H129318   3.233   2.870   4.237 -1.2613  0.9821  1.9237
 2609TIP3    H229319   3.352   2.890   4.328  0.1448  0.8000  0.1807
 2610TIP3   OH229320   5.656   2.557  10.505  0.0827 -0.2556  0.0472
 2610TIP3    H129321   5.622   2.542  10.594 -1.6588 -0.4145 -0.6083
 2610TIP3    H229322   5.652   2.472  10.463  3.4332 -0.8101  0.5394
 2611TIP3   OH229323   1.287   2.586   4.161 -0.2502 -0.3859  0.4118
 2611TIP3    H129324   1.338   2.601   4.241 -0.1734 -0.7976  0.4398
 2611TIP3    H229325   1.353   2.570   4.094 -0.2966  0.4083  0.1650
 2612TIP3   OH229326   0.933   5.850   4.963  0.4735 -0.1377  0.2081
 2612TIP3    H129327   0.917   5.874   5.054 -2.3562  0.6350 -0.3830
 2612TIP3    H229328   0.896   5.923   4.912  1.6596 -0.7123 -1.5795
 2613TIP3   OH229329   5.528   0.081  17.224 -0.3385 -0.0735  0.0335
 2613TIP3    H129330   5.615   0.110  17.250 -1.1818 -0.3924  3.8502
 2613TIP3    H229331   5.509   0.129  17.143  1.6556  3.4146  1.4263
 2614TIP3   OH229332   6.796   6.392   2.229 -0.0183  0.2100 -0.4160
 2614TIP3    H129333   6.733   6.425   2.165  1.4723 -0.1792 -2.1607
 2614TIP3    H229334   6.753   6.316   2.268 -0.6032 -0.1235 -1.6612
 2615TIP3   OH229335   1.986   6.142   4.617 -0.0330 -0.3151  0.0086
 2615TIP3    H129336   2.026   6.099   4.692  0.8177  2.1533  1.0737
 2615TIP3    H229337   1.893   6.148   4.641  0.3089  0.9370  1.1998
 2616TIP3   OH229338   6.308   4.753   3.645  0.0731 -0.1726 -0.3432
 2616TIP3    H129339   6.258   4.699   3.707  0.3032 -0.1570 -0.1408
 2616TIP3    H229340   6.398   4.749   3.678  0.3169 -0.7020 -1.0456
 2617TIP3   OH229341   0.135   2.302  16.666  0.2922  0.0890 -0.3540
 2617TIP3    H129342   0.167   2.258  16.745 -2.2889 -1.7066 -0.1678
 2617TIP3    H229343   0.055   2.347  16.695  0.6035  1.4202 -1.4750
 2618TIP3   OH229344   0.544   3.597   0.527  0.2174 -0.0150 -0.0093
 2618TIP3    H129345   0.637   3.608   0.507 -0.4198  0.2008 -3.4437
 2618TIP3    H229346   0.524   3.506   0.504 -0.9817  0.7796 -2.5108
 2619TIP3   OH229347   5.206   4.968   1.273 -0.5056  0.2713 -0.6406
 2619TIP3    H129348   5.203   5.064   1.282 -1.7614  0.3279 -1.3713
 2619TIP3    H229349   5.285   4.951   1.222  0.9961  0.7078  1.4087
 2620TIP3   OH229350   2.160   6.720  17.189  0.2825  0.3142 -0.0675
 2620TIP3    H129351   2.146   6.807  17.150  1.0580  0.0859 -0.8972
 2620TIP3    H229352   2.117   6.660  17.129 -0.9224  0.1653  0.9094
 2621TIP3   OH229353   2.728   6.375  15.721  0.2204 -0.3993 -0.5921
 2621TIP3    H129354   2.709   6.283  15.703 -0.3211 -0.5124  0.5176
 2621TIP3    H229355   2.780   6.374  15.802 -1.5865  0.3718  0.6329
 2622TIP3   OH229356   0.275   5.558   1.290  0.1083  0.3399 -0.8314
 2622TIP3    H129357   0.261   5.501   1.365  1.5973 -1.2328 -1.6837
 2622TIP3    H229358   0.368   5.580   1.293 -0.6532  4.1446  0.3546
 2623TIP3   OH229359   4.088   1.176  16.078  0.2449 -0.0379  0.1268
 2623TIP3    H129360   4.176   1.139  16.085 -0.3684 -1.4767  0.4537
 2623TIP3    H229361   4.064   1.200  16.167  0.5064  0.8672 -0.0380
 2624TIP3   OH229362   3.380   2.260   2.197  0.6264  0.2633 -0.3468
 2624TIP3    H129363   3.446   2.327   2.217 -0.5960  2.3472 -2.7401
 2624TIP3    H229364   3.429   2.190   2.154  1.5735  0.7593 -0.1080
 2625TIP3   OH229365   3.145   6.364  11.176 -0.7570 -0.4082  0.0220
 2625TIP3    H129366   3.122   6.398  11.263 -1.9299 -1.8152  0.3005
 2625TIP3    H229367   3.133   6.439  11.117  0.8063  0.7975  1.1242
 2626TIP3   OH229368   5.149   0.989   0.260  0.1733 -0.1650 -0.2507
 2626TIP3    H129369   5.170   0.909   0.211 -2.1577 -2.3127  1.9498
 2626TIP3    H229370   5.092   1.039   0.202 -0.7899 -1.6031 -0.5835
 2627TIP3   OH229371   5.653   6.240  16.140 -0.1597 -1.0785 -0.2253
 2627TIP3    H129372   5.623   6.213  16.053 -0.1225 -0.0585 -0.5729
 2627TIP3    H229373   5.729   6.296  16.123  0.4903 -1.7126  0.5241
 2628TIP3   OH229374   5.691   4.912   5.133  0.1346 -0.4966 -0.0949
 2628TIP3    H129375   5.713   4.829   5.091 -0.1540 -0.3845 -0.4715
 2628TIP3    H229376   5.599   4.904   5.156 -0.2865  0.2387 -1.3928
 2629TIP3   OH229377   3.937   5.944  11.745 -0.1648 -0.2884  0.0796
 2629TIP3    H129378   3.884   5.973  11.672 -0.6174 -0.7355  0.2251
 2629TIP3    H229379   3.963   5.854  11.722  0.1718 -0.2229  0.1990
 2630TIP3   OH229380   4.019   3.304  14.490  0.0696 -0.6260  0.2618
 2630TIP3    H129381   4.034   3.337  14.402 -2.6177  1.3212  0.4271
 2630TIP3    H229382   4.036   3.210  14.483  1.2839 -0.3163 -1.9405
 2631TIP3   OH229383   0.269   1.408   0.974  0.8667 -0.3647  0.2807
 2631TIP3    H129384   0.277   1.338   1.039  1.9052  0.1677  0.7550
 2631TIP3    H229385   0.243   1.485   1.026  1.1267 -0.0691 -0.0263
 2632TIP3   OH229386   0.855   4.080  14.252 -0.4537  0.5636  0.2261
 2632TIP3    H129387   0.780   4.119  14.207  0.5195  0.0319 -2.0341
 2632TIP3    H229388   0.888   4.014  14.190  1.0636 -0.1721  1.7234
 2633TIP3   OH229389   5.828   5.237  14.760  0.4681 -0.2046  0.0773
 2633TIP3    H129390   5.903   5.217  14.817 -0.1636 -1.8333  0.3831
 2633TIP3    H229391   5.780   5.305  14.808  0.6788 -0.5866  0.8459
 2634TIP3   OH229392   5.130   5.826   1.388  0.0958  0.5901 -0.2300
 2634TIP3    H129393   5.149   5.804   1.479 -0.5154  0.5437 -0.1117
 2634TIP3    H229394   5.047   5.782   1.369 -0.6474  1.9542 -0.2931
 2635TIP3   OH229395   2.629   0.254  12.416  0.2115 -0.2079  0.1128
 2635TIP3    H129396   2.673   0.169  12.427 -0.1573 -0.3588  0.4363
 2635TIP3    H229397   2.677   0.296  12.344  2.2627  0.5302  1.8210
 2636TIP3   OH229398   5.191   0.536  15.970 -0.0672  0.0568 -0.1245
 2636TIP3    H129399   5.201   0.529  16.065  1.0890  0.9708 -0.1602
 2636TIP3    H229400   5.247   0.609  15.946 -0.2301 -0.2669 -1.5396
 2637TIP3   OH229401   5.457   3.496  15.394 -0.1755 -0.1538 -0.4031
 2637TIP3    H129402   5.497   3.518  15.477  1.1042  0.0552 -1.0514
 2637TIP3    H229403   5.445   3.401  15.397  3.5460 -0.8143 -1.4485
 2638TIP3   OH229404   0.124   2.566   1.766  0.1814 -0.0376  0.1644
 2638TIP3    H129405   0.103   2.530   1.679  0.6615 -1.1630  0.5004
 2638TIP3    H229406   0.059   2.634   1.780  0.1852  0.2643 -1.1496
 2639TIP3   OH229407   1.055   2.219  11.551 -0.3901  0.0730 -0.3326
 2639TIP3    H129408   0.971   2.191  11.586 -0.0444 -1.7742 -0.8672
 2639TIP3    H229409   1.040   2.231  11.458 -0.5659  1.9720 -0.1005
 2640TIP3   OH229410   3.097   1.815   4.394  0.1311  0.0231 -0.0673
 2640TIP3    H129411   3.011   1.778   4.374  0.5499 -1.6854  1.0051
 2640TIP3    H229412   3.095   1.832   4.488  1.1855 -0.7704  0.1257
 2641TIP3   OH229413   6.476   2.101   6.259  0.6409  0.5383 -0.1031
 2641TIP3    H129414   6.386   2.096   6.227  1.5862  0.4459 -3.0430
 2641TIP3    H229415   6.522   2.030   6.214  1.7959 -0.7972  2.9618
 2642TIP3   OH229416   1.875   4.240   2.919  0.1037 -0.1040  0.0035
 2642TIP3    H129417   1.819   4.282   2.853 -0.0667 -0.9182 -0.3802
 2642TIP3    H229418   1.919   4.313   2.962 -2.0051  0.6475  1.0184
 2643TIP3   OH229419   4.603   4.553  14.490 -0.0044 -0.1584  0.7997
 2643TIP3    H129420   4.696   4.561  14.469 -0.1423 -0.9939 -0.2198
 2643TIP3    H229421   4.576   4.472  14.447 -1.6487  1.0585 -0.5609
 2644TIP3   OH229422   6.129   2.744   0.973  0.5614 -0.1918  0.2284
 2644TIP3    H129423   6.059   2.790   0.926  0.9892 -0.0314 -0.2739
 2644TIP3    H229424   6.089   2.715   1.054  0.1718  0.7373  0.3788
 2645TIP3   OH229425   1.193   2.543   2.527  0.1802 -0.0131  0.1049
 2645TIP3    H129426   1.215   2.585   2.610  1.5031  0.4899 -0.4778
 2645TIP3    H229427   1.128   2.601   2.487 -0.4971 -0.2818  0.7884
 2646TIP3   OH229428   4.279   1.791   1.563 -0.2371  0.3370  0.4235
 2646TIP3    H129429   4.219   1.764   1.493 -0.1321  0.9420  0.0994
 2646TIP3    H229430   4.298   1.883   1.544  2.6876 -0.4249 -0.8664
 2647TIP3   OH229431   2.364   0.407  14.448  0.1433  0.6797 -0.7698
 2647TIP3    H129432   2.304   0.462  14.398  1.1981  1.9924 -0.6405
 2647TIP3    H229433   2.388   0.461  14.524  1.3048  0.0880 -0.6995
 2648TIP3   OH229434   3.632   3.648  13.078  0.5473  0.5564 -0.0813
 2648TIP3    H129435   3.576   3.725  13.085 -0.8086 -0.4325  0.4386
 2648TIP3    H229436   3.711   3.671  13.126 -0.0318  1.4503  0.4715
 2649TIP3   OH229437   3.901   0.918  15.839 -0.4007  0.4272 -0.4192
 2649TIP3    H129438   3.985   0.914  15.793 -0.5785 -0.8647 -0.6606
 2649TIP3    H229439   3.894   0.835  15.885 -0.9815  1.0364  0.6426
 2650TIP3   OH229440   3.595   0.762   5.231  1.0920 -0.4144 -0.8168
 2650TIP3    H129441   3.667   0.764   5.169 -0.9571 -3.2415 -3.6090
 2650TIP3    H229442   3.579   0.668   5.246 -1.9263  0.0943 -0.2903
 2651TIP3   OH229443   4.657   5.003   3.281  0.0614  0.6300 -0.1728
 2651TIP3    H129444   4.568   5.000   3.246 -0.4971  2.0835  1.0176
 2651TIP3    H229445   4.682   4.911   3.290 -0.9167  0.2049 -1.4759
 2652TIP3   OH229446   4.551   3.777  13.474 -0.0538 -0.2440 -0.1069
 2652TIP3    H129447   4.620   3.711  13.481  0.0376  0.0059  2.4748
 2652TIP3    H229448   4.477   3.730  13.435  1.3546 -0.6215 -2.5377
 2653TIP3   OH229449   5.833   0.283  15.715 -0.1691 -0.2502 -0.0584
 2653TIP3    H129450   5.828   0.196  15.677 -1.6484 -0.1258 -0.2227
 2653TIP3    H229451   5.888   0.273  15.792 -0.1387 -1.2815 -0.2051
 2654TIP3   OH229452   6.598   6.216  13.589 -0.1153 -0.0178  0.4039
 2654TIP3    H129453   6.544   6.139  13.607 -0.3604 -0.2409 -1.1461
 2654TIP3    H229454   6.599   6.265  13.672 -1.8513 -0.5217  0.7556
 2655TIP3   OH229455   0.971   3.517  14.862 -0.1507 -0.2502  0.2761
 2655TIP3    H129456   0.927   3.525  14.947  1.4212  0.9883  1.0286
 2655TIP3    H229457   1.064   3.524  14.882  0.2159  2.3332 -1.7328
 2656TIP3   OH229458   2.755   3.743  13.301  0.4198  0.2733  0.0259
 2656TIP3    H129459   2.812   3.812  13.265  0.1437  0.3173 -0.3359
 2656TIP3    H229460   2.759   3.673  13.235  1.7255 -0.6024  0.9952
 2657TIP3   OH229461   4.120   2.769  10.613 -0.4873 -0.3967 -0.1427
 2657TIP3    H129462   4.052   2.750  10.677  0.7706  1.3280  1.8466
 2657TIP3    H229463   4.155   2.684  10.587 -0.4075 -1.1266  2.2173
 2658TIP3   OH229464   0.292   2.182   2.605  0.1107 -0.8127 -0.4624
 2658TIP3    H129465   0.269   2.261   2.556 -0.3469  0.3257  1.4437
 2658TIP3    H229466   0.386   2.171   2.591  0.2560  0.3187 -0.4666
 2659TIP3   OH229467   1.332   5.104   1.025 -0.0803  0.1159  0.4783
 2659TIP3    H129468   1.417   5.077   0.990 -0.5557 -0.4754 -0.2527
 2659TIP3    H229469   1.344   5.101   1.120  0.8732  0.5745  0.3864
 2660TIP3   OH229470   1.980   3.268  13.773 -0.2885  0.3206  0.2760
 2660TIP3    H129471   1.925   3.200  13.812 -0.3114  0.5723  0.6935
 2660TIP3    H229472   2.057   3.271  13.830  0.1145  0.0364 -0.2495
 2661TIP3   OH229473   1.712   6.490   0.912 -0.1859 -0.5596 -0.4532
 2661TIP3    H129474   1.631   6.441   0.926 -0.3955  0.2279  1.3456
 2661TIP3    H229475   1.719   6.547   0.988  0.6156  1.4433 -1.9524
 2662TIP3   OH229476   2.365   5.381   0.833  0.3546 -0.0443  0.3904
 2662TIP3    H129477   2.385   5.404   0.924  0.6955 -0.1923  0.3552
 2662TIP3    H229478   2.295   5.316   0.839 -0.0623  0.4103  0.5207
 2663TIP3   OH229479   1.005   1.154   4.153 -0.1779 -0.1109 -0.1544
 2663TIP3    H129480   1.002   1.072   4.203  0.4983 -0.2096 -0.2688
 2663TIP3    H229481   1.087   1.149   4.105  0.6399  1.3395  1.0232
 2664TIP3   OH229482   4.868   3.743   1.115 -0.0793 -0.5013 -0.1046
 2664TIP3    H129483   4.784   3.737   1.069 -0.6386  1.5721  0.5658
 2664TIP3    H229484   4.920   3.672   1.077 -1.5325 -0.7563 -1.7705
 2665TIP3   OH229485   3.042   6.229  16.122  0.4751  0.3685  0.7412
 2665TIP3    H129486   3.123   6.178  16.126  0.9882  0.8567 -1.5436
 2665TIP3    H229487   3.072   6.320  16.119 -0.1909  0.5886  0.7229
 2666TIP3   OH229488   0.834   2.966  12.387 -0.1244 -0.2615 -0.0841
 2666TIP3    H129489   0.836   3.010  12.302  0.5913 -0.3426 -0.1175
 2666TIP3    H229490   0.747   2.927  12.392 -0.7580  1.0813 -0.0888
 2667TIP3   OH229491   4.420   3.745  10.760  0.1266  0.1629  0.1622
 2667TIP3    H129492   4.340   3.790  10.786 -0.1679 -0.3753  0.2147
 2667TIP3    H229493   4.491   3.806  10.780 -0.3392  1.0616 -0.8153
 2668TIP3   OH229494   3.813   6.685   0.981  0.3811  0.0251 -0.0749
 2668TIP3    H129495   3.777   6.768   0.952 -3.6506 -1.6289 -0.4355
 2668TIP3    H229496   3.880   6.663   0.917  1.4558  2.8263 -0.0348
 2669TIP3   OH229497   2.542   3.856  13.649 -0.7563 -0.0250  0.2708
 2669TIP3    H129498   2.584   3.771  13.634 -0.7020 -0.2552  1.6114
 2669TIP3    H229499   2.555   3.873  13.742 -2.5708  0.4800  0.4735
 2670TIP3   OH229500   0.036   3.595   1.996  0.0838  0.0289 -0.0284
 2670TIP3    H129501   0.020   3.533   2.067 -0.2438 -0.5294 -0.5810
 2670TIP3    H229502   0.123   3.571   1.962  0.4933  0.6614  0.5423
 2671TIP3   OH229503   3.558   2.620   6.360  0.2644  0.3921  0.3132
 2671TIP3    H129504   3.593   2.539   6.395 -0.3897 -0.4526 -0.9133
 2671TIP3    H229505   3.571   2.613   6.265  1.2211  2.2198  0.2642
 2672TIP3   OH229506   3.044   3.485   5.187 -0.1808  0.2469 -0.1530
 2672TIP3    H129507   3.071   3.454   5.273 -2.1476 -2.2103 -0.3071
 2672TIP3    H229508   3.075   3.418   5.126 -3.0301 -0.7045 -0.7146
 2673TIP3   OH229509   1.841   5.602  13.196 -1.0049 -0.2306 -0.0479
 2673TIP3    H129510   1.821   5.558  13.114  2.1129  1.1522 -1.7214
 2673TIP3    H229511   1.869   5.690  13.171  0.3173  0.1708  2.4425
 2674TIP3   OH229512   2.001   4.501   3.664 -0.0978 -0.2526 -0.0020
 2674TIP3    H129513   2.076   4.442   3.668 -0.2067 -0.3606  0.5026
 2674TIP3    H229514   2.031   4.582   3.706 -0.8728 -0.9767  2.0563
 2675TIP3   OH229515   4.452   6.115  16.753 -0.5258  0.1014 -0.0091
 2675TIP3    H129516   4.548   6.118  16.744 -0.5539  0.0450 -0.3428
 2675TIP3    H229517   4.423   6.061  16.680 -0.8884  0.9139 -0.4795
 2676TIP3   OH229518   6.474   4.074  11.993  0.0776 -0.7257 -0.1185
 2676TIP3    H129519   6.510   4.114  11.913  0.0361 -0.7373 -0.1435
 2676TIP3    H229520   6.387   4.113  12.002 -0.4122 -1.6294 -0.7609
 2677TIP3   OH229521   1.237   5.744   6.152 -0.3983  0.1640  0.5211
 2677TIP3    H129522   1.168   5.810   6.148  0.4483  1.0596 -3.3716
 2677TIP3    H229523   1.308   5.787   6.201 -1.1961  0.6625  1.2757
 2678TIP3   OH229524   5.190   0.828  14.511 -0.0180  0.5453  0.3143
 2678TIP3    H129525   5.264   0.857  14.564  0.1421 -1.4378  1.2730
 2678TIP3    H229526   5.140   0.908  14.493  1.9671  1.8311  0.2024
 2679TIP3   OH229527   5.447   1.821  16.697 -0.3495 -0.5841  0.3299
 2679TIP3    H129528   5.381   1.805  16.765 -0.6760 -0.2927  0.0852
 2679TIP3    H229529   5.503   1.743  16.700 -2.2095 -2.0807 -1.2045
 2680TIP3   OH229530   4.145   0.696   1.110 -0.2176 -0.0676 -0.0835
 2680TIP3    H129531   4.098   0.613   1.111  1.1651 -0.8782  1.5796
 2680TIP3    H229532   4.150   0.723   1.201  3.4397 -0.6254  0.0608
 2681TIP3   OH229533   0.043   0.281  13.146  0.3233  0.1187 -0.4691
 2681TIP3    H129534  -0.024   0.241  13.091 -0.4986 -0.6133  1.0042
 2681TIP3    H229535   0.079   0.208  13.197  0.2561  0.9063  0.7649
 2682TIP3   OH229536   6.736   1.158  14.493  0.1926  0.3113  0.8039
 2682TIP3    H129537   6.786   1.124  14.567  2.4772 -0.9224 -1.1689
 2682TIP3    H229538   6.762   1.250  14.486  0.9573  0.0971  0.7800
 2683TIP3   OH229539   6.084   2.454  16.493 -0.0162 -0.0358  0.0364
 2683TIP3    H129540   6.120   2.470  16.405 -2.1268  0.8033 -0.7471
 2683TIP3    H229541   6.046   2.367  16.488  0.1732 -0.1336  0.2554
 2684TIP3   OH229542   1.992   6.641   5.665 -0.0905  0.2295  0.2404
 2684TIP3    H129543   1.897   6.627   5.669 -0.0383 -0.6402 -0.9464
 2684TIP3    H229544   2.006   6.685   5.582  0.7587 -2.0555 -0.9374
 2685TIP3   OH229545   0.046   3.416  11.861  0.6841 -0.1531  0.0876
 2685TIP3    H129546  -0.046   3.391  11.875  0.5785 -0.2425 -0.7222
 2685TIP3    H229547   0.055   3.499  11.907  0.3129 -0.3492  0.5299
 2686TIP3   OH229548   2.657   4.830  14.792  0.5761 -0.6699 -0.3507
 2686TIP3    H129549   2.668   4.864  14.703  0.1851  1.3341  0.3261
 2686TIP3    H229550   2.747   4.811  14.821  0.8230 -0.0928 -0.7166
 2687TIP3   OH229551   2.186   2.228   4.446  0.2577 -0.3962  0.2781
 2687TIP3    H129552   2.116   2.222   4.510 -0.1382  0.2562 -0.0825
 2687TIP3    H229553   2.266   2.232   4.498 -0.0705  0.2820  0.7421
 2688TIP3   OH229554   2.551   2.257  15.342 -0.6081 -0.4036 -0.0183
 2688TIP3    H129555   2.473   2.305  15.314 -1.4693 -1.6675  0.1210
 2688TIP3    H229556   2.575   2.204  15.266 -1.1970 -1.6416  0.6398
 2689TIP3   OH229557   2.785   0.443   2.584 -0.1546 -0.1817  0.0527
 2689TIP3    H129558   2.803   0.367   2.640 -0.6296 -1.4697 -1.4576
 2689TIP3    H229559   2.859   0.446   2.523  0.3107  1.1385  0.6487
 2690TIP3   OH229560   5.472   4.648   4.923  0.0600 -0.3066  0.1706
 2690TIP3    H129561   5.530   4.603   4.985  0.1985 -0.2364  0.0902
 2690TIP3    H229562   5.528   4.711   4.879  0.0508 -0.6375 -0.3217
 2691TIP3   OH229563   4.701   2.170  14.059 -0.1378  0.2805 -0.3309
 2691TIP3    H129564   4.664   2.116  13.989  0.5570 -0.0724 -0.4253
 2691TIP3    H229565   4.625   2.195  14.111 -0.8230  1.4609 -1.8220
 2692TIP3   OH229566   0.586   6.357   0.136  0.1733 -0.7999 -0.6957
 2692TIP3    H129567   0.572   6.422   0.205 -2.4890 -0.4893 -1.4047
 2692TIP3    H229568   0.604   6.275   0.184 -2.5285 -0.8002  0.5093
 2693TIP3   OH229569   5.149   4.025  12.899 -0.0085  0.4381  0.1934
 2693TIP3    H129570   5.127   4.027  12.805  0.6852 -1.1088 -0.0329
 2693TIP3    H229571   5.242   4.004  12.901  0.1989  1.3604  1.2386
 2694TIP3   OH229572   3.478   4.273  13.499  0.6498 -0.2531 -0.2819
 2694TIP3    H129573   3.434   4.311  13.575  2.6804  0.2461  0.7415
 2694TIP3    H229574   3.432   4.310  13.424 -1.2434 -0.5308  0.6692
 2695TIP3   OH229575   4.571   0.987   5.313 -0.0970 -0.3556  0.5730
 2695TIP3    H129576   4.592   1.025   5.228  1.0891  0.2149  1.0824
 2695TIP3    H229577   4.592   0.894   5.303  1.2862 -0.0699  0.5929
 2696TIP3   OH229578   6.329   4.632  16.442 -0.0654  0.3954 -0.5266
 2696TIP3    H129579   6.272   4.695  16.487 -0.1338  0.4279 -0.6584
 2696TIP3    H229580   6.283   4.613  16.361 -0.0690  0.1380 -0.4658
 2697TIP3   OH229581   1.882   3.021  16.876  0.0269  0.0394  0.4935
 2697TIP3    H129582   1.851   3.086  16.939 -2.9689  0.4230 -1.1768
 2697TIP3    H229583   1.820   2.949  16.884 -0.7082  0.2660 -2.1777
 2698TIP3   OH229584   3.887   3.685   5.217 -0.0002  0.2230 -0.2983
 2698TIP3    H129585   3.803   3.700   5.176  0.5248 -0.7375 -1.7833
 2698TIP3    H229586   3.876   3.715   5.307 -1.5934  1.0784 -0.7621
 2699TIP3   OH229587   0.887   4.733  14.939  0.3475  0.5626  0.7946
 2699TIP3    H129588   0.975   4.697  14.930  1.0887  2.1769  1.3921
 2699TIP3    H229589   0.874   4.741  15.034 -0.2368  0.8651  0.6925
 2700TIP3   OH229590   2.266   2.162  16.166  0.1681  0.4019 -0.0404
 2700TIP3    H129591   2.313   2.245  16.160 -3.0378  2.2879 -1.6228
 2700TIP3    H229592   2.307   2.106  16.100  1.1153  1.4173 -0.3377
 2701TIP3   OH229593   0.783   2.412   0.788 -0.4688  0.2739  0.1298
 2701TIP3    H129594   0.849   2.344   0.804 -1.2016 -0.2608  0.9787
 2701TIP3    H229595   0.834   2.492   0.776  0.5519 -0.7069 -3.0194
 2702TIP3   OH229596   5.827   0.913  15.109 -0.1624 -0.3876 -0.5873
 2702TIP3    H129597   5.910   0.959  15.104 -0.0782 -0.5520 -0.7335
 2702TIP3    H229598   5.850   0.826  15.141 -0.2668 -0.4563 -0.6960
 2703TIP3   OH229599   2.301   4.814   4.556  0.0453 -0.4127 -0.2643
 2703TIP3    H129600   2.388   4.781   4.537  0.5180  1.7427 -2.3397
 2703TIP3    H229601   2.256   4.815   4.472 -1.3756  0.1408  0.4549
 2704TIP3   OH229602   6.224   4.239   1.141  0.2348  0.3158  0.6705
 2704TIP3    H129603   6.196   4.330   1.130  1.0747  0.6576  1.2350
 2704TIP3    H229604   6.173   4.207   1.215 -1.7037 -0.4023 -0.8886
 2705TIP3   OH229605   1.491   4.313   1.877 -0.1791  0.6555 -0.1576
 2705TIP3    H129606   1.469   4.228   1.840 -1.4814  1.7238 -2.0271
 2705TIP3    H229607   1.416   4.369   1.855  0.6820  2.3187  0.9001
 2706TIP3   OH229608   0.330   2.904  14.589  0.1383  0.9084 -0.3531
 2706TIP3    H129609   0.371   2.970  14.533  2.1284 -0.9538 -1.2624
 2706TIP3    H229610   0.400   2.840  14.605 -1.8316 -1.3207 -0.1031
 2707TIP3   OH229611   0.187   3.784   5.409 -0.3646  0.1217  0.0289
 2707TIP3    H129612   0.213   3.728   5.482 -0.6536 -1.4022 -0.9930
 2707TIP3    H229613   0.137   3.855   5.450  1.7899  0.8474  1.5796
 2708TIP3   OH229614   0.778   2.951   3.498 -0.1766  0.5613  0.1676
 2708TIP3    H129615   0.684   2.934   3.503  0.2079 -1.5398  1.5855
 2708TIP3    H229616   0.811   2.891   3.431  0.1715  1.3223 -0.3633
 2709TIP3   OH229617   6.006   4.030   5.791 -0.3242 -0.4834  0.4730
 2709TIP3    H129618   6.048   3.977   5.723  0.4481  0.9079 -0.1821
 2709TIP3    H229619   5.921   3.988   5.805  0.0790 -1.6214 -0.3299
 2710TIP3   OH229620   5.765   5.639  15.133  0.0703  0.9167  0.1846
 2710TIP3    H129621   5.802   5.680  15.211  0.4290  2.4127 -0.7164
 2710TIP3    H229622   5.671   5.634  15.150  0.3684 -0.9722  1.6360
 2711TIP3   OH229623   4.859   3.332  17.147  0.6414  0.0564  0.6650
 2711TIP3    H129624   4.868   3.416  17.103 -3.1388  0.3829  0.1540
 2711TIP3    H229625   4.831   3.272  17.078 -1.4822 -0.3777  1.8222
 2712TIP3   OH229626   1.572   3.697  12.213 -0.0235  0.1400  0.4872
 2712TIP3    H129627   1.546   3.767  12.273  1.0603  0.6544  0.3674
 2712TIP3    H229628   1.492   3.676  12.165 -0.2721  1.5636  0.2509
 2713TIP3   OH229629   0.194   6.524  13.711  0.2610  0.8060  0.1269
 2713TIP3    H129630   0.160   6.434  13.709  0.2690  0.8151 -0.7025
 2713TIP3    H229631   0.258   6.523  13.782  1.7752 -0.4093 -1.1742
 2714TIP3   OH229632   5.899   4.399   4.296  0.0748 -0.0037  0.5670
 2714TIP3    H129633   5.892   4.320   4.349 -0.8208 -0.1333  0.2816
 2714TIP3    H229634   5.828   4.392   4.232 -0.4809  1.3625  0.9843
 2715TIP3   OH229635   5.265   1.525  17.061 -0.0986 -0.7109  0.1058
 2715TIP3    H129636   5.171   1.508  17.073  0.0475 -0.9742  0.8818
 2715TIP3    H229637   5.301   1.527  17.149  0.6304 -0.5968 -0.1884
 2716TIP3   OH229638   1.076   2.897  15.814  0.5078 -0.0199  0.1271
 2716TIP3    H129639   1.166   2.928  15.830  0.1575  0.5639  1.0736
 2716TIP3    H229640   1.027   2.929  15.889 -0.2994 -1.2041  0.1274
 2717TIP3   OH229641   1.436   5.964   1.368  0.3356  0.4739 -0.1486
 2717TIP3    H129642   1.471   6.050   1.390  0.3947  0.2259  0.7779
 2717TIP3    H229643   1.419   5.922   1.452 -2.7676  0.7853 -0.5099
 2718TIP3   OH229644   0.071   4.573  14.405  0.1511 -0.1764 -0.2284
 2718TIP3    H129645   0.075   4.492  14.456  0.2292 -0.4153 -0.6091
 2718TIP3    H229646   0.129   4.633  14.452  0.4793 -0.4967 -0.2104
 2719TIP3   OH229647   3.541   5.221  12.229 -0.3177  0.3727 -0.3145
 2719TIP3    H129648   3.613   5.186  12.176 -1.1180  1.4055 -2.1515
 2719TIP3    H229649   3.464   5.213  12.173 -1.5709 -0.2346  1.4250
 2720TIP3   OH229650   1.636   3.127  12.215 -0.2687  0.4644  0.0318
 2720TIP3    H129651   1.589   3.210  12.223 -0.2942  0.5332 -0.7987
 2720TIP3    H229652   1.568   3.060  12.211 -0.2482  0.3917  0.6939
 2721TIP3   OH229653   1.196   0.865   5.002  0.4155 -0.4894  0.2643
 2721TIP3    H129654   1.256   0.793   5.017 -1.1060 -1.5643  1.5085
 2721TIP3    H229655   1.133   0.860   5.074 -0.1911  1.6085 -0.0493
 2722TIP3   OH229656   0.684   3.289  13.898 -0.2392  0.1609 -0.2673
 2722TIP3    H129657   0.696   3.382  13.879  0.4412 -0.1580 -1.4948
 2722TIP3    H229658   0.735   3.273  13.978 -0.0601  0.7594 -0.2632
 2723TIP3   OH229659   6.271   1.942  12.572  0.7531 -0.1376  0.0554
 2723TIP3    H129660   6.216   1.884  12.624 -2.8871  4.1517  1.5573
 2723TIP3    H229661   6.342   1.968  12.631 -0.9722  1.4003  1.5725
 2724TIP3   OH229662   3.063   0.298   2.600  0.4093  0.3238  0.1208
 2724TIP3    H129663   3.081   0.272   2.690  0.2297  0.8114  0.2983
 2724TIP3    H229664   3.097   0.226   2.547  0.5890  0.0743  0.5738
 2725TIP3   OH229665   5.318   5.296  10.577 -0.7483  1.1689  0.3171
 2725TIP3    H129666   5.238   5.269  10.621 -0.3001  0.4495  0.6957
 2725TIP3    H229667   5.291   5.317  10.488 -1.7682  3.1681  1.0327
 2726TIP3   OH229668   0.077   3.679   4.668  0.1714  0.5520 -0.3945
 2726TIP3    H129669   0.036   3.652   4.585  2.0265  1.1075 -1.5663
 2726TIP3    H229670   0.059   3.772   4.674  2.1050  1.0516 -1.5097
 2727TIP3   OH229671   5.550   1.187  13.995 -0.2977 -0.0846  0.4299
 2727TIP3    H129672   5.494   1.130  13.943  0.8587  0.9554 -2.1310
 2727TIP3    H229673   5.629   1.135  14.011 -0.1439  0.0116  0.0089
 2728TIP3   OH229674   2.592   1.924   1.818  0.1710 -0.2489  0.6484
 2728TIP3    H129675   2.588   1.935   1.723 -1.2630  4.7707  1.0131
 2728TIP3    H229676   2.673   1.875   1.832  0.1995 -1.6385 -3.0896
 2729TIP3   OH229677   4.625   1.780  14.343  0.1208 -0.2080 -0.4983
 2729TIP3    H129678   4.538   1.811  14.316  0.2752  0.5327 -0.1748
 2729TIP3    H229679   4.648   1.837  14.417 -0.6038 -2.5908  1.7225
 2730TIP3   OH229680   3.862   3.134  15.143  0.5024 -0.7855 -0.8339
 2730TIP3    H129681   3.901   3.155  15.059  2.7640 -2.5836 -0.3383
 2730TIP3    H229682   3.929   3.158  15.207 -0.6682 -0.6147  0.3723
 2731TIP3   OH229683   0.009   0.336   0.045  0.1177 -0.2365  0.3826
 2731TIP3    H129684  -0.069   0.387   0.069  0.0325  0.2927 -0.9153
 2731TIP3    H229685  -0.017   0.245   0.057 -0.3470 -0.0348  0.9728
 2732TIP3   OH229686   2.514   5.949  11.904  0.5838  0.1796 -0.3061
 2732TIP3    H129687   2.557   6.034  11.897  2.0873 -0.5715 -0.5990
 2732TIP3    H229688   2.528   5.908  11.819 -1.1937  0.0916 -0.5932
 2733TIP3   OH229689   6.229   3.007   0.600  0.7740 -0.1664  0.0007
 2733TIP3    H129690   6.234   2.913   0.582 -0.8687 -0.0009 -1.7033
 2733TIP3    H229691   6.168   3.014   0.673 -0.5655 -0.3871 -1.0479
 2734TIP3   OH229692   2.523   5.452  11.163 -0.2330 -0.2857 -0.4923
 2734TIP3    H129693   2.565   5.450  11.250  0.2780  1.0337 -0.6840
 2734TIP3    H229694   2.589   5.492  11.106 -0.7926 -0.6005 -1.3736
 2735TIP3   OH229695   6.712   6.153   4.976  0.3011  0.0041 -0.1170
 2735TIP3    H129696   6.689   6.245   4.966  1.9212  0.4714  0.1269
 2735TIP3    H229697   6.655   6.106   4.915 -1.1925  1.0525  0.4228
 2736TIP3   OH229698   6.103   4.331  10.948  0.2976  0.0631  0.0803
 2736TIP3    H129699   6.180   4.362  10.900 -0.0157  1.0661  0.2124
 2736TIP3    H229700   6.029   4.373  10.904 -0.0760  0.1026  0.7423
 2737TIP3   OH229701   3.407   4.254   0.152  0.0450  0.5280 -0.4772
 2737TIP3    H129702   3.500   4.252   0.175  0.1309  0.8743 -0.8097
 2737TIP3    H229703   3.362   4.259   0.237  0.3720  2.0302 -0.3772
 2738TIP3   OH229704   1.901   0.428   6.298  0.4217 -0.1492 -0.6189
 2738TIP3    H129705   1.930   0.508   6.254  0.6077  0.2139  0.1527
 2738TIP3    H229706   1.980   0.375   6.307  0.7318  0.5047  0.7776
 2739TIP3   OH229707   4.027   1.336   5.149  0.3583  0.2077  0.2148
 2739TIP3    H129708   4.063   1.297   5.229  0.8288 -1.3479 -0.7169
 2739TIP3    H229709   3.960   1.397   5.180  2.0846  1.3530  1.8846
 2740TIP3   OH229710   2.695   6.123   2.788 -0.7286 -0.0823 -0.2480
 2740TIP3    H129711   2.711   6.029   2.779 -0.8326 -0.1621  0.3895
 2740TIP3    H229712   2.768   6.155   2.840 -1.0926  0.0547  0.1831
 2741TIP3   OH229713   3.447   3.849  17.143 -0.5997 -0.1394  0.4160
 2741TIP3    H129714   3.463   3.936  17.182  1.0005 -0.8019  1.3429
 2741TIP3    H229715   3.352   3.846  17.130 -0.5497  2.4286 -1.3408
 2742TIP3   OH229716   2.721   4.884   1.136  0.6761 -0.1837  0.0902
 2742TIP3    H129717   2.799   4.922   1.176  1.0222 -1.6070  0.8227
 2742TIP3    H229718   2.735   4.790   1.140  0.8637 -0.4539 -3.6705
 2743TIP3   OH229719   1.230   4.276  12.475  0.4166  0.0413  0.4162
 2743TIP3    H129720   1.271   4.244  12.555  0.1720 -2.6626 -0.4459
 2743TIP3    H229721   1.281   4.236  12.404 -2.4901 -2.0158 -0.7017
 2744TIP3   OH229722   0.758   1.572   6.605  0.2120  0.5121 -0.0435
 2744TIP3    H129723   0.676   1.616   6.580 -1.3125 -0.8681  2.1841
 2744TIP3    H229724   0.758   1.573   6.701  2.4445 -0.2291  0.0236
 2745TIP3   OH229725   4.515   3.600  16.268  0.5163 -0.2479  0.7065
 2745TIP3    H129726   4.600   3.642  16.279 -0.8024  2.8163  0.2857
 2745TIP3    H229727   4.473   3.610  16.354  0.5110 -1.6850  0.8959
 2746TIP3   OH229728   1.989   4.673   6.584 -0.0187 -0.0086 -0.3417
 2746TIP3    H129729   2.079   4.642   6.581 -0.5128 -1.6443  0.1821
 2746TIP3    H229730   1.995   4.765   6.610  1.6735  1.0344 -3.8498
 2747TIP3   OH229731   2.737   6.224  12.264 -0.2765 -0.9631  0.8083
 2747TIP3    H129732   2.779   6.184  12.341 -1.8780  0.9818  2.8330
 2747TIP3    H229733   2.807   6.269  12.219  0.3504 -0.0871  2.5571
 2748TIP3   OH229734   3.936   2.211  14.435  0.2861  0.0166 -0.4897
 2748TIP3    H129735   4.000   2.279  14.415 -1.3868  1.9994  0.4605
 2748TIP3    H229736   3.982   2.150  14.492  1.2560  1.5260  0.4003
 2749TIP3   OH229737   5.275   3.110   1.258  0.0291  0.0355 -0.0769
 2749TIP3    H129738   5.296   3.174   1.190  1.6649  0.3369  0.6677
 2749TIP3    H229739   5.359   3.088   1.297 -0.8499 -0.2505  1.7526
 2750TIP3   OH229740   4.694   0.462   4.379 -0.2513  0.4245  0.2982
 2750TIP3    H129741   4.703   0.556   4.392 -0.3921  0.7233 -1.5301
 2750TIP3    H229742   4.651   0.453   4.294 -0.6995 -1.2895  0.6543
 2751TIP3   OH229743   1.874   1.180  14.230  0.2659 -0.1542 -0.0530
 2751TIP3    H129744   1.914   1.101  14.194 -0.5913 -0.5049 -0.2797
 2751TIP3    H229745   1.944   1.223  14.280  1.4525  0.2882 -2.0009
 2752TIP3   OH229746   1.011   0.920  15.913 -0.3278 -0.1200  0.0440
 2752TIP3    H129747   0.928   0.933  15.867 -0.3204  0.2386  0.1283
 2752TIP3    H229748   0.999   0.839  15.963 -0.7033  0.0502  0.2286
 2753TIP3   OH229749   3.699   1.577   0.579 -0.0058  0.3401  0.1718
 2753TIP3    H129750   3.718   1.531   0.661 -2.6405  1.8448  1.7738
 2753TIP3    H229751   3.778   1.629   0.563  0.7713 -0.3652  1.4404
 2754TIP3   OH229752   0.743   1.451  12.471  0.1906 -0.2234 -0.0818
 2754TIP3    H129753   0.765   1.380  12.532 -0.2048  0.1501  0.5072
 2754TIP3    H229754   0.827   1.495  12.455  0.3928 -0.6595 -0.2508
 2755TIP3   OH229755   2.228   2.595   4.035  0.4639  0.3368  0.6692
 2755TIP3    H129756   2.179   2.520   4.001 -0.5651  1.1322  0.3701
 2755TIP3    H229757   2.260   2.565   4.120 -1.5410  0.1736  1.4277
 2756TIP3   OH229758   5.838   2.507   3.717  0.0376  0.3349  0.1515
 2756TIP3    H129759   5.932   2.519   3.732 -0.1645  0.3074  1.5959
 2756TIP3    H229760   5.831   2.417   3.684  0.3094 -0.7777  2.8477
 2757TIP3   OH229761   6.333   2.355  17.320  0.5938 -0.0597 -0.3611
 2757TIP3    H129762   6.336   2.338  17.226  0.6016 -0.4728 -0.2880
 2757TIP3    H229763   6.359   2.272  17.361 -2.5897 -0.9733  0.0883
 2758TIP3   OH229764   3.815   6.256  11.735  0.8351  0.2983  0.0653
 2758TIP3    H129765   3.857   6.339  11.713  0.3612  0.3046 -0.8396
 2758TIP3    H229766   3.863   6.191  11.684 -0.9626  0.4453 -1.9464
 2759TIP3   OH229767   3.659   6.305  17.028  0.1941  0.1507  0.4361
 2759TIP3    H129768   3.633   6.214  17.018 -1.1585  0.4375  1.2007
 2759TIP3    H229769   3.687   6.313  17.119 -0.3999  0.6629  0.5821
 2760TIP3   OH229770   4.339   4.754  15.373 -0.0595  0.2024  0.5395
 2760TIP3    H129771   4.377   4.833  15.411 -2.4918  2.6151 -1.5959
 2760TIP3    H229772   4.357   4.685  15.437  3.2940  2.1114  1.9377
 2761TIP3   OH229773   1.528   1.658  11.307  0.3470  0.7489  0.2399
 2761TIP3    H129774   1.578   1.735  11.335 -0.6909  1.4602  0.1712
 2761TIP3    H229775   1.441   1.691  11.287  0.5027 -0.0675 -2.0319
 2762TIP3   OH229776   2.664   1.082   4.528 -0.1290 -0.2992  0.8823
 2762TIP3    H129777   2.689   1.038   4.609 -0.1524  1.1105  1.6915
 2762TIP3    H229778   2.727   1.153   4.518 -0.0280 -0.5527 -0.4364
 2763TIP3   OH229779   1.328   0.102   2.886  0.6648 -0.4060  0.7097
 2763TIP3    H129780   1.420   0.089   2.862  0.2492 -1.1023 -0.5933
 2763TIP3    H229781   1.289   0.015   2.879 -0.4484  0.1529 -0.3067
 2764TIP3   OH229782   6.210   1.278   5.259  0.0235 -0.2349  0.4473
 2764TIP3    H129783   6.115   1.279   5.267 -0.0096 -2.0949  0.6579
 2764TIP3    H229784   6.238   1.203   5.311  1.3288 -1.6008 -2.0274
 2765TIP3   OH229785   4.970   3.316   3.508  0.2736  0.2379 -0.4842
 2765TIP3    H129786   4.964   3.295   3.601  0.3470 -1.2243 -0.7895
 2765TIP3    H229787   4.879   3.321   3.479  0.2079  1.9916 -0.0918
 2766TIP3   OH229788   2.785   4.164   5.224 -0.4028  0.4357 -0.4130
 2766TIP3    H129789   2.792   4.112   5.144  1.9230  1.7312 -1.1600
 2766TIP3    H229790   2.737   4.242   5.198  0.4719  0.9203 -0.6369
 2767TIP3   OH229791   4.596   5.195  14.477  0.2328 -0.2246  0.1451
 2767TIP3    H129792   4.681   5.154  14.462  0.6863  0.8282 -0.1796
 2767TIP3    H229793   4.555   5.140  14.544  0.9762 -0.9961 -0.0216
 2768TIP3   OH229794   2.924   4.255  16.687 -0.0134 -0.7781 -0.0019
 2768TIP3    H129795   2.998   4.314  16.702  0.5067 -1.8436  1.9426
 2768TIP3    H229796   2.912   4.210  16.770 -2.4444 -1.1351 -0.4743
 2769TIP3   OH229797   1.815   5.542   3.712  0.2711  0.0923  0.1068
 2769TIP3    H129798   1.784   5.621   3.757  0.2067 -0.1853  0.5520
 2769TIP3    H229799   1.813   5.566   3.619 -0.8389  0.2375  0.1577
 2770TIP3   OH229800   2.354   6.463  13.479 -0.3571 -0.7204 -0.0505
 2770TIP3    H129801   2.441   6.435  13.452  0.2232  1.0422 -0.1151
 2770TIP3    H229802   2.297   6.389  13.458  1.0268 -1.6909 -0.4994
 2771TIP3   OH229803   0.052   5.952   5.946  0.6951  0.3041 -0.2484
 2771TIP3    H129804   0.111   5.999   5.887  1.5038  0.4233  0.6257
 2771TIP3    H229805  -0.017   5.917   5.889  0.7418  1.5069 -1.0820
 2772TIP3   OH229806   6.290   4.760  12.457 -0.5652 -0.0230  0.3209
 2772TIP3    H129807   6.333   4.803  12.384 -0.4408  3.9255  2.4243
 2772TIP3    H229808   6.362   4.733  12.514 -0.5771  2.3820  1.6412
 2773TIP3   OH229809   2.267   4.246   0.738  0.2728 -0.1920  0.6178
 2773TIP3    H129810   2.341   4.261   0.797 -0.6613 -0.3649  1.8777
 2773TIP3    H229811   2.246   4.333   0.703  1.5936 -0.2681 -0.4331
 2774TIP3   OH229812   4.581   0.371   0.020 -0.3409  0.4687  0.1508
 2774TIP3    H129813   4.555   0.295  -0.031  0.9774  0.1087 -0.0112
 2774TIP3    H229814   4.558   0.447  -0.034  0.6162  0.1047 -0.7856
 2775TIP3   OH229815   5.807   1.915  17.029  0.1054  0.3401 -0.0065
 2775TIP3    H129816   5.855   1.859  17.090  0.8639  0.4210 -0.5122
 2775TIP3    H229817   5.816   1.871  16.944 -0.6908  0.3782 -0.1191
 2776TIP3   OH229818   3.092   3.774  15.234 -0.0237  0.1668  0.6181
 2776TIP3    H129819   3.006   3.789  15.273 -0.1012  0.9787  0.1541
 2776TIP3    H229820   3.077   3.706  15.169 -0.7795  1.7831 -0.9647
 2777TIP3   OH229821   4.117   4.598   3.372  0.0705 -0.3232 -0.1869
 2777TIP3    H129822   4.075   4.683   3.383 -1.8685 -1.2335 -0.1920
 2777TIP3    H229823   4.104   4.576   3.280  1.8909 -0.0170 -0.5749
 2778TIP3   OH229824   1.150   3.260  15.722  0.1022 -0.6491  0.5346
 2778TIP3    H129825   1.062   3.224  15.720 -0.1773  0.0104  0.6517
 2778TIP3    H229826   1.145   3.339  15.668  0.6233 -0.6121  0.5302
 2779TIP3   OH229827   1.440   2.269   4.164  0.8875 -0.2888  0.4681
 2779TIP3    H129828   1.346   2.270   4.180  0.9842  0.1342  1.0803
 2779TIP3    H229829   1.451   2.218   4.084  0.0948  0.1221  0.0895
 2780TIP3   OH229830   5.554   0.894   0.494 -0.2118  0.1807  0.2697
 2780TIP3    H129831   5.530   0.891   0.402  0.1070  5.2653 -0.2790
 2780TIP3    H229832   5.472   0.904   0.541 -0.2417 -0.4060  0.3490
 2781TIP3   OH229833   0.849   4.192  13.836  0.1888  0.0543 -0.1272
 2781TIP3    H129834   0.826   4.221  13.748  0.0709  2.3856  0.6004
 2781TIP3    H229835   0.887   4.105  13.824  0.1426  0.2997 -2.4512
 2782TIP3   OH229836   2.363   4.143  12.625 -1.1687 -0.0286  0.4353
 2782TIP3    H129837   2.302   4.088  12.675 -0.7288 -1.4649 -0.5556
 2782TIP3    H229838   2.314   4.170  12.548 -0.2453 -2.2570 -1.0318
 2783TIP3   OH229839   5.449   1.094   5.642  0.4163 -0.3983  0.5533
 2783TIP3    H129840   5.491   1.180   5.639  1.8087 -0.9436  2.3875
 2783TIP3    H229841   5.475   1.058   5.727 -0.7179 -2.3470  0.1290
 2784TIP3   OH229842   2.396   3.485   0.625 -0.2439 -0.5678  0.2896
 2784TIP3    H129843   2.340   3.560   0.604  0.7868  0.7881  2.1581
 2784TIP3    H229844   2.481   3.523   0.645  0.1230 -2.1557  2.0004
 2785TIP3   OH229845   4.011   3.001  16.517  0.0260 -0.3198 -0.3531
 2785TIP3    H129846   3.982   2.911  16.530  2.4381 -1.1882 -0.4865
 2785TIP3    H229847   4.059   2.999  16.434  0.0252  1.1442 -0.4251
 2786TIP3   OH229848   3.727   3.071   0.116 -0.0240 -0.1318 -0.1002
 2786TIP3    H129849   3.701   3.151   0.163 -1.3338  0.5003 -1.7702
 2786TIP3    H229850   3.797   3.100   0.058 -0.1968 -0.2804 -0.3870
 2787TIP3   OH229851   3.449   0.662  13.987 -0.5297 -0.8143  0.3399
 2787TIP3    H129852   3.493   0.667  13.901 -0.2137 -0.4360  0.5165
 2787TIP3    H229853   3.467   0.574  14.018  0.4320 -0.5489  0.5727
 2788TIP3   OH229854   1.938   0.230  16.578 -0.1554 -0.0342 -0.1436
 2788TIP3    H129855   1.951   0.170  16.504  0.4054 -0.5526  0.3605
 2788TIP3    H229856   1.892   0.305  16.541 -2.0989 -1.3505 -0.5360
 2789TIP3   OH229857   3.371   4.422   2.645  0.2455 -0.5042 -0.2073
 2789TIP3    H129858   3.303   4.384   2.700 -0.9318  3.1570  1.1624
 2789TIP3    H229859   3.336   4.415   2.556 -0.6240 -1.1450  0.1688
 2790TIP3   OH229860   3.483   2.726  15.540 -0.8636 -0.3275  0.0598
 2790TIP3    H129861   3.539   2.728  15.463 -0.8507 -1.6002  0.0056
 2790TIP3    H229862   3.400   2.765  15.511 -0.5676  0.0056 -0.3420
 2791TIP3   OH229863   3.906   0.117   2.748  0.2415 -0.0197 -0.1098
 2791TIP3    H129864   3.965   0.175   2.701  0.6904  0.7269  1.3090
 2791TIP3    H229865   3.964   0.056   2.794 -0.2288 -1.9334 -1.9278
 2792TIP3   OH229866   1.318   1.778   1.940 -0.4219 -0.1875  0.1568
 2792TIP3    H129867   1.303   1.816   2.026  1.9194  0.8950  0.1580
 2792TIP3    H229868   1.311   1.684   1.954  0.5886 -0.0715  1.7075
 2793TIP3   OH229869   1.263   5.753  11.451 -0.4044 -0.0189  0.3087
 2793TIP3    H129870   1.277   5.847  11.443  1.1816 -0.2672 -0.1824
 2793TIP3    H229871   1.300   5.730  11.536 -0.9842 -0.1642  0.5225
 2794TIP3   OH229872   2.746   4.787  13.322 -0.6976 -0.1987 -0.0592
 2794TIP3    H129873   2.728   4.720  13.256  0.1297 -0.9381  0.4462
 2794TIP3    H229874   2.791   4.856  13.273 -4.3181  1.5436 -1.2827
 2795TIP3   OH229875   4.340   2.284   0.438 -0.7258  0.3495 -0.1749
 2795TIP3    H129876   4.404   2.233   0.487 -0.2856  0.1224 -0.9577
 2795TIP3    H229877   4.255   2.259   0.474 -0.4155  0.1434  0.4157
 2796TIP3   OH229878   6.490   4.158  15.050  0.1547  0.1653  0.1888
 2796TIP3    H129879   6.533   4.222  14.992 -1.3128  0.9926 -0.0207
 2796TIP3    H229880   6.522   4.073  15.019  2.4147  0.7524  0.6844
 2797TIP3   OH229881   1.968   3.564  14.981  0.2481  0.0349  0.2864
 2797TIP3    H129882   1.902   3.517  15.031  0.9765 -3.0609 -1.4081
 2797TIP3    H229883   1.999   3.633  15.041 -3.1796  0.5067  1.7374
 2798TIP3   OH229884   3.390   6.440   0.444  0.2040 -0.2066  0.7452
 2798TIP3    H129885   3.367   6.501   0.514  0.4026  2.3124 -1.2090
 2798TIP3    H229886   3.308   6.427   0.396  0.6747  0.5688 -0.3010
 2799TIP3   OH229887   5.992   3.289   2.210  0.3537  0.1667  0.9306
 2799TIP3    H129888   5.966   3.258   2.296  0.7748 -1.6558  0.4394
 2799TIP3    H229889   6.075   3.334   2.225  1.3159 -1.6335  1.2739
 2800TIP3   OH229890   6.164   5.866   3.585 -0.8614  0.0002 -0.5577
 2800TIP3    H129891   6.254   5.878   3.616 -0.7024  0.9330 -1.3706
 2800TIP3    H229892   6.111   5.912   3.650 -0.7147 -0.0737 -0.3817
 2801TIP3   OH229893   1.702   3.442   4.819 -0.0137 -0.7860  0.3345
 2801TIP3    H129894   1.709   3.397   4.903  3.7155 -2.7757 -0.8524
 2801TIP3    H229895   1.719   3.534   4.839 -0.2322 -1.0622  1.8689
 2802TIP3   OH229896   2.361   6.470   5.872  0.3202  0.2775 -0.1814
 2802TIP3    H129897   2.356   6.486   5.966  0.6894  1.7447 -0.3832
 2802TIP3    H229898   2.329   6.551   5.832  0.7502 -0.0899 -1.3177
 2803TIP3   OH229899   5.213   2.534   0.038 -0.1970 -0.0631 -0.8053
 2803TIP3    H129900   5.198   2.445   0.005  0.0387 -0.0678 -0.8987
 2803TIP3    H229901   5.304   2.533   0.069 -0.3718 -0.0195 -0.2817
 2804TIP3   OH229902   4.322   1.657   3.871 -0.3100  0.8731  0.5630
 2804TIP3    H129903   4.412   1.686   3.886  0.1109 -0.7330  1.3781
 2804TIP3    H229904   4.294   1.621   3.956 -0.9400 -0.6004 -0.2330
 2805TIP3   OH229905   3.128   2.956  16.806  0.6610  0.7569  0.0884
 2805TIP3    H129906   3.075   2.991  16.735  1.6235  1.9422 -0.0765
 2805TIP3    H229907   3.069   2.898  16.854  0.1019 -0.4415 -1.9158
 2806TIP3   OH229908   1.709   1.437   3.085  0.5291 -0.4560  0.0684
 2806TIP3    H129909   1.655   1.497   3.033 -0.1579  0.6436  1.9214
 2806TIP3    H229910   1.799   1.463   3.065  0.3064 -0.4713 -1.0078
 2807TIP3   OH229911   2.915   5.243   4.512 -0.4851  0.1673  0.0811
 2807TIP3    H129912   2.945   5.321   4.559 -1.1534  0.2405  0.3848
 2807TIP3    H229913   2.978   5.175   4.536  0.3863  0.7251 -0.5612
 2808TIP3   OH229914   5.427   5.044   5.619 -0.1447 -0.3076  0.0535
 2808TIP3    H129915   5.484   4.969   5.634 -1.6786 -2.1614 -2.5692
 2808TIP3    H229916   5.480   5.105   5.568  0.2846 -0.8589 -0.1706
 2809TIP3   OH229917   4.687   4.916  11.382  0.1328 -0.0812 -0.1108
 2809TIP3    H129918   4.773   4.900  11.343 -0.0328 -0.2399 -0.4074
 2809TIP3    H229919   4.665   4.833  11.426 -1.7319 -1.6055 -3.5000
 2810TIP3   OH229920   4.138   3.111  14.144  0.7687  0.5321 -0.2649
 2810TIP3    H129921   4.190   3.032  14.135  0.3573  0.0642  1.1840
 2810TIP3    H229922   4.050   3.080  14.165  0.5017  1.3567 -0.1182
 2811TIP3   OH229923   1.762   5.333   1.613 -0.3259 -0.2468 -0.0890
 2811TIP3    H129924   1.735   5.241   1.614 -1.1628 -0.0496 -1.7240
 2811TIP3    H229925   1.704   5.376   1.676 -0.2047 -0.7596  0.3791
 2812TIP3   OH229926   5.820   6.334   5.539  0.4251  0.6175  0.0106
 2812TIP3    H129927   5.797   6.241   5.529  1.4697  0.5258 -2.2279
 2812TIP3    H229928   5.738   6.380   5.519 -0.3293  0.2298  1.9606
 2813TIP3   OH229929   2.513   3.596   5.353 -0.3769 -0.1834 -0.4918
 2813TIP3    H129930   2.542   3.536   5.283  3.7562 -2.8444  2.9571
 2813TIP3    H229931   2.450   3.545   5.404  0.1823 -0.1240  0.2792
 2814TIP3   OH229932   3.169   2.782   2.956  0.2142  0.1933 -0.5965
 2814TIP3    H129933   3.209   2.794   2.870 -1.2292 -0.3989 -1.3818
 2814TIP3    H229934   3.188   2.691   2.979 -1.1133 -0.2769 -1.2442
 2815TIP3   OH229935   1.418   5.995   0.519  0.4419 -0.2302  0.2728
 2815TIP3    H129936   1.475   6.052   0.571  1.0532  0.8578 -1.5006
 2815TIP3    H229937   1.362   6.056   0.470 -0.3674 -1.2314 -0.0765
 2816TIP3   OH229938   2.933   3.516   0.560 -0.3164 -0.2835  0.1514
 2816TIP3    H129939   2.959   3.573   0.487 -0.9972  0.7180  0.6670
 2816TIP3    H229940   2.997   3.535   0.628 -1.4247  1.0516  0.8756
 2817TIP3   OH229941   5.732   2.941   0.653  0.0495  0.3392 -0.5904
 2817TIP3    H129942   5.651   2.900   0.621 -0.8082  0.9902  0.6586
 2817TIP3    H229943   5.800   2.910   0.593 -0.8407 -1.5500 -0.7117
 2818TIP3   OH229944   4.451   4.829   5.619 -0.4600  0.3587  0.0087
 2818TIP3    H129945   4.505   4.903   5.648 -0.5752  0.4316  0.0346
 2818TIP3    H229946   4.383   4.821   5.686 -0.9619  0.7748 -0.4452
 2819TIP3   OH229947   1.690   4.460   2.024 -0.3299  0.3953  0.4113
 2819TIP3    H129948   1.736   4.465   1.940 -0.5382  0.7538  0.3141
 2819TIP3    H229949   1.608   4.415   2.004 -0.0073 -0.2739  0.5912
 2820TIP3   OH229950   5.695   0.127   0.972 -0.0312 -1.3977  0.1210
 2820TIP3    H129951   5.738   0.182   1.037 -0.3012 -0.6802 -0.2991
 2820TIP3    H229952   5.767   0.089   0.922  0.3403 -3.9664  2.3618
 2821TIP3   OH229953   5.002   5.464  17.012  0.3040 -0.0300 -0.0005
 2821TIP3    H129954   5.038   5.377  17.027  0.2074 -0.4996 -2.1584
 2821TIP3    H229955   5.065   5.507  16.955  0.4419  1.4149  1.1868
 2822TIP3   OH229956   2.999   4.123  14.480  0.5983  0.1790 -0.6175
 2822TIP3    H129957   3.071   4.171  14.520 -1.3620  1.2766  1.9315
 2822TIP3    H229958   2.932   4.190  14.465 -0.7947 -1.1503 -0.5616
 2823TIP3   OH229959   3.685   5.151   3.849  0.2526 -0.5410 -0.6301
 2823TIP3    H129960   3.700   5.227   3.792 -0.4998  0.2935  0.2515
 2823TIP3    H229961   3.616   5.101   3.804  0.1788 -0.2782 -0.8127
 2824TIP3   OH229962   3.929   0.182  13.308  0.0225  0.4558 -0.4713
 2824TIP3    H129963   3.895   0.143  13.389  1.8179 -1.0445 -0.3834
 2824TIP3    H229964   3.850   0.204  13.258 -1.1138 -0.9775  0.5815
 2825TIP3   OH229965   3.722   0.332  17.108  0.1211  0.2866 -0.0018
 2825TIP3    H129966   3.777   0.343  17.031  1.8797 -1.5686  0.8992
 2825TIP3    H229967   3.641   0.293  17.075  0.7740 -0.3217 -0.9256
 2826TIP3   OH229968   3.156   1.495   0.773  0.2496 -0.1875  0.6360
 2826TIP3    H129969   3.141   1.491   0.678 -0.8694  0.6087  0.7548
 2826TIP3    H229970   3.251   1.499   0.781  0.4005 -1.1119 -0.4101
 2827TIP3   OH229971   5.720   4.226   1.210 -0.0571 -0.3982 -0.0820
 2827TIP3    H129972   5.737   4.141   1.252  1.4414 -0.3483 -0.5243
 2827TIP3    H229973   5.732   4.290   1.280 -2.1764 -0.5694  0.5008
 2828TIP3   OH229974   5.409   5.406   2.579 -0.1191 -0.2117  0.2053
 2828TIP3    H129975   5.395   5.345   2.505 -1.3569 -0.7006  0.8076
 2828TIP3    H229976   5.475   5.363   2.633 -0.5239 -0.7323  0.2985
 2829TIP3   OH229977   3.193   4.800  11.535 -0.2363 -0.0600 -0.1107
 2829TIP3    H129978   3.251   4.874  11.555 -1.1204  0.6427 -0.1224
 2829TIP3    H229979   3.107   4.826  11.568 -1.0990 -0.1108 -2.1560
 2830TIP3   OH229980   0.697   3.088   5.114 -0.2422  0.2114 -0.3001
 2830TIP3    H129981   0.730   3.024   5.051  3.2820 -1.1101  2.5249
 2830TIP3    H229982   0.640   3.145   5.062  0.4647 -2.1260 -4.0838
 2831TIP3   OH229983   5.157   6.362  14.691 -0.6304 -0.5536  0.0187
 2831TIP3    H129984   5.168   6.415  14.770  0.3649 -0.6254 -0.0646
 2831TIP3    H229985   5.076   6.395  14.652 -1.4242 -0.8715  1.3261
 2832TIP3   OH229986   4.519   3.724   3.477  0.4480 -0.7590 -0.1023
 2832TIP3    H129987   4.497   3.634   3.503  2.5724 -1.1969  0.4263
 2832TIP3    H229988   4.560   3.714   3.391 -1.9830  0.0998 -1.4194
 2833TIP3   OH229989   2.215   0.126  10.882 -0.3539 -0.3619 -0.3163
 2833TIP3    H129990   2.264   0.049  10.852 -0.9926 -0.3280 -1.5241
 2833TIP3    H229991   2.252   0.198  10.832 -0.7164 -0.1163 -0.2326
 2834TIP3   OH229992   3.285   0.265   0.631 -0.5800  0.0121  0.0437
 2834TIP3    H129993   3.249   0.176   0.630 -1.6349  0.4393 -0.3004
 2834TIP3    H229994   3.322   0.274   0.720 -2.7121  0.1069  0.9690
 2835TIP3   OH229995   3.270   0.025  10.472 -0.4184  0.5266 -0.2269
 2835TIP3    H129996   3.307  -0.025  10.400 -0.3904  0.8733 -0.4542
 2835TIP3    H229997   3.225   0.099  10.430 -0.1258  0.9095  0.1247
 2836TIP3   OH229998   1.731   4.806  12.688 -0.3500 -0.3343  0.5961
 2836TIP3    H129999   1.734   4.710  12.687 -1.6134 -0.3847  0.2588
 2836TIP3    H230000   1.793   4.832  12.620 -0.3018 -0.9261  0.4027
 2837TIP3   OH230001   5.788   0.360  11.646 -0.6165  0.2389 -0.5362
 2837TIP3    H130002   5.846   0.423  11.688 -0.6557 -0.1664  0.1301
 2837TIP3    H230003   5.846   0.288  11.620 -0.5364  0.6260 -1.4876
 2838TIP3   OH230004   5.288   2.423  10.555 -0.1267  0.4281 -0.2696
 2838TIP3    H130005   5.232   2.353  10.590 -0.7467  1.3460  0.6276
 2838TIP3    H230006   5.227   2.489  10.524  0.4387  1.3886  0.6070
 2839TIP3   OH230007   5.206   1.798  16.002 -0.3402 -0.4623  0.3637
 2839TIP3    H130008   5.199   1.838  15.915  0.9479 -0.5643  0.1920
 2839TIP3    H230009   5.117   1.771  16.023 -1.6219  3.6016  1.0588
 2840TIP3   OH230010   3.880   5.377  16.855  0.0225  0.4326 -0.1759
 2840TIP3    H130011   3.894   5.461  16.899 -0.7588  0.7099 -0.4435
 2840TIP3    H230012   3.906   5.393  16.764 -0.7484  0.5844 -0.3782
 2841TIP3   OH230013   2.964   2.474  16.915  0.2014  0.0116 -0.0780
 2841TIP3    H130014   2.977   2.569  16.925 -0.5502  0.2354 -1.0040
 2841TIP3    H230015   2.905   2.467  16.840  1.0760 -1.2457 -0.6681
 2842TIP3   OH230016   2.164   5.179   4.880 -0.4972  0.3077 -0.0968
 2842TIP3    H130017   2.206   5.125   4.813 -0.6965  0.4702 -0.3554
 2842TIP3    H230018   2.136   5.258   4.833 -0.8598  0.3132  0.1230
 2843TIP3   OH230019   0.254   5.299  12.413  0.4781  0.9305  0.3837
 2843TIP3    H130020   0.176   5.246  12.397  0.4063  0.9020  0.8245
 2843TIP3    H230021   0.327   5.241  12.392  0.4369  0.2488  1.9755
 2844TIP3   OH230022   1.326   2.283   3.551 -0.5914  0.1821 -0.1928
 2844TIP3    H130023   1.379   2.351   3.593 -0.4737 -0.1960  0.2764
 2844TIP3    H230024   1.378   2.204   3.559 -1.5246 -0.3430  0.9066
 2845TIP3   OH230025   4.715   5.529   6.054 -0.0475  0.3714 -0.5159
 2845TIP3    H130026   4.676   5.489   6.132  0.3443  0.4155 -0.2934
 2845TIP3    H230027   4.807   5.541   6.077  0.5595 -1.4432 -1.6838
 2846TIP3   OH230028   3.888   3.755   0.400  0.5547 -0.1035 -0.0384
 2846TIP3    H130029   3.983   3.764   0.397  0.5360 -0.1800 -1.5208
 2846TIP3    H230030   3.857   3.839   0.436  1.1615  0.0060  0.2410
 2847TIP3   OH230031   1.465   5.538  12.034 -0.0073 -0.0005 -0.6873
 2847TIP3    H130032   1.477   5.443  12.023  2.1020  0.4678 -3.2015
 2847TIP3    H230033   1.379   5.555  11.998 -0.1963 -0.8852 -0.6881
 2848TIP3   OH230034   6.073   0.856   4.197  0.1161 -0.5897  0.4118
 2848TIP3    H130035   6.109   0.811   4.274 -0.5216  2.0055  2.3449
 2848TIP3    H230036   5.978   0.848   4.208  0.0235 -0.7898 -0.4975
 2849TIP3   OH230037   4.108   0.074   4.658 -0.3922 -0.5573  0.5886
 2849TIP3    H130038   4.168   0.105   4.590 -1.6045 -2.3154 -1.3894
 2849TIP3    H230039   4.026   0.121   4.641 -0.5599 -0.6298  1.1739
 2850TIP3   OH230040   2.762   2.171  13.999 -0.3211  0.0440 -0.1048
 2850TIP3    H130041   2.732   2.114  14.069  0.8848  0.5401  0.8471
 2850TIP3    H230042   2.733   2.258  14.024 -1.5125 -0.0197 -1.1846
 2851TIP3   OH230043   0.104   0.345  13.600 -0.3125  0.1913  0.7251
 2851TIP3    H130044   0.121   0.360  13.693 -0.8137 -0.7594  0.9817
 2851TIP3    H230045   0.077   0.431  13.567  0.7795  0.7569  1.2358
 2852TIP3   OH230046   5.971   5.702   3.725 -0.0493 -0.4472  0.2041
 2852TIP3    H130047   6.053   5.705   3.676 -0.7846 -2.5152 -1.3185
 2852TIP3    H230048   5.939   5.792   3.723  2.6313  0.6539  1.7792
 2853TIP3   OH230049   0.134   6.732  14.629  0.3072  0.1922  0.3083
 2853TIP3    H130050   0.188   6.770  14.698  0.7149 -2.5510  1.6187
 2853TIP3    H230051   0.044   6.740  14.661  0.5553 -1.9272  1.7159
 2854TIP3   OH230052   4.752   5.379  14.107 -0.1541 -0.0986 -0.1556
 2854TIP3    H130053   4.675   5.368  14.161 -0.0336 -0.2561 -0.0166
 2854TIP3    H230054   4.724   5.438  14.036 -0.4061 -0.1791 -0.1208
 2855TIP3   OH230055   6.417   3.041  12.007 -0.5917 -0.4045  0.7256
 2855TIP3    H130056   6.390   2.999  11.926 -1.5415 -0.1540  0.9096
 2855TIP3    H230057   6.410   2.972  12.073  0.4739 -0.6946  0.5599
 2856TIP3   OH230058   3.238   5.423   4.691 -0.2638 -0.2992 -0.6492
 2856TIP3    H130059   3.278   5.458   4.771 -0.4592 -0.6114 -0.4152
 2856TIP3    H230060   3.310   5.423   4.627 -0.0849 -0.1323 -0.4504
 2857TIP3   OH230061   3.538   4.159  14.960 -0.6373 -0.5645 -0.4483
 2857TIP3    H130062   3.539   4.237  15.015  3.2673 -1.1414  0.6642
 2857TIP3    H230063   3.542   4.086  15.023  0.6712 -1.3895 -1.4350
 2858TIP3   OH230064   3.152   0.694  10.977 -0.5797  0.5812 -0.1199
 2858TIP3    H130065   3.181   0.676  10.888  1.4074 -1.7405  0.8649
 2858TIP3    H230066   3.057   0.701  10.972 -0.4516  1.1953 -2.4775
 2859TIP3   OH230067   5.592   3.780  16.309 -1.2593 -0.2748 -0.1805
 2859TIP3    H130068   5.617   3.711  16.370 -4.6028 -0.8334  0.7828
 2859TIP3    H230069   5.583   3.737  16.225  0.4366 -0.1300 -0.4670
 2860TIP3   OH230070   6.226   4.728  13.720  0.2088  0.0200 -0.3070
 2860TIP3    H130071   6.244   4.634  13.717 -0.5422 -0.1243 -0.9152
 2860TIP3    H230072   6.158   4.737  13.786 -1.1722 -0.1579 -1.6527
 2861TIP3   OH230073   5.368   5.619   3.970  0.4023  0.9666 -0.3523
 2861TIP3    H130074   5.295   5.625   3.908  3.2380 -1.0101 -4.2338
 2861TIP3    H230075   5.429   5.687   3.942  1.6397  0.2519  0.5013
 2862TIP3   OH230076   5.129   2.193   3.559 -0.0788  0.1644  0.0076
 2862TIP3    H130077   5.104   2.252   3.488 -1.3118  0.7751  0.9178
 2862TIP3    H230078   5.075   2.115   3.546 -0.3065  0.2771  0.2723
 2863TIP3   OH230079   4.327   4.489   2.530  0.4798  0.2488  0.3131
 2863TIP3    H130080   4.275   4.494   2.449 -1.8333 -1.9531  1.5100
 2863TIP3    H230081   4.272   4.532   2.596  0.4686 -1.4702  1.4765
 2864TIP3   OH230082   2.156   2.228   5.750  0.2604 -0.1449  0.3849
 2864TIP3    H130083   2.072   2.272   5.737 -0.7693 -1.9638  0.7027
 2864TIP3    H230084   2.205   2.247   5.669 -0.3516  1.0800  0.2741
 2865TIP3   OH230085   5.658   4.100   0.950  0.2896 -0.1245 -0.1009
 2865TIP3    H130086   5.687   4.145   1.029 -2.1451  1.4008  0.0304
 2865TIP3    H230087   5.645   4.169   0.885 -2.2020 -0.7263 -0.3514
 2866TIP3   OH230088   1.471   2.330   5.815 -0.0147  0.6179 -0.1663
 2866TIP3    H130089   1.393   2.383   5.804 -0.6382 -0.3068 -0.2791
 2866TIP3    H230090   1.518   2.371   5.887 -1.1219  0.5851  0.5904
 2867TIP3   OH230091   1.515   4.106  16.474 -0.1824  0.0547 -0.1140
 2867TIP3    H130092   1.547   4.116  16.564  1.7135  1.1209 -0.8419
 2867TIP3    H230093   1.420   4.110  16.481 -0.0505  0.7637  1.7616
 2868TIP3   OH230094   0.185   5.527  11.525  0.0922  0.7204  0.4308
 2868TIP3    H130095   0.234   5.513  11.444  0.4441 -2.3129  1.0362
 2868TIP3    H230096   0.251   5.553  11.589  0.5138 -0.6628  0.5948
 2869TIP3   OH230097   4.885   4.783   0.419 -0.7009 -0.0536 -0.0719
 2869TIP3    H130098   4.797   4.760   0.449 -0.5780 -1.7640 -0.9470
 2869TIP3    H230099   4.934   4.701   0.421  0.4594  0.5892 -1.0292
 2870TIP3   OH230100   3.488   1.712   3.110 -0.8809 -0.1387 -0.2492
 2870TIP3    H130101   3.583   1.717   3.107 -0.8598  1.1518  1.2295
 2870TIP3    H230102   3.458   1.780   3.050 -0.8072  1.0771  1.0310
 2871TIP3   OH230103   6.612   0.184  13.043 -0.3679  0.6134 -0.4426
 2871TIP3    H130104   6.597   0.188  12.949 -0.8714 -2.5852 -0.6325
 2871TIP3    H230105   6.537   0.227  13.082  0.0629  2.3758 -1.4569
 2872TIP3   OH230106   3.022   0.264   3.501 -0.1837 -0.3836 -0.4406
 2872TIP3    H130107   3.063   0.210   3.434 -0.3582 -1.4513  0.2751
 2872TIP3    H230108   2.929   0.266   3.478  0.0453  0.9856 -1.3602
 2873TIP3   OH230109   4.514   6.039   2.863 -0.2289  0.0576  0.0273
 2873TIP3    H130110   4.522   5.996   2.778  3.0385 -0.3660  0.4358
 2873TIP3    H230111   4.589   6.098   2.868 -0.4005  0.1765  2.5397
 2874TIP3   OH230112   1.812   6.742   2.190 -0.3589  0.0001 -0.1853
 2874TIP3    H130113   1.877   6.765   2.124  0.2654 -0.6351  0.1880
 2874TIP3    H230114   1.831   6.801   2.264 -1.8977  1.6297 -1.0243
 2875TIP3   OH230115   6.112   1.940   3.504  0.3804 -0.0545 -0.0236
 2875TIP3    H130116   6.197   1.895   3.510 -0.0006 -0.6535  1.2014
 2875TIP3    H230117   6.088   1.958   3.595 -1.1371 -0.5209 -0.3039
 2876TIP3   OH230118   6.523   5.141   5.566 -0.4446 -0.2393 -0.0399
 2876TIP3    H130119   6.543   5.102   5.651  1.2759 -1.1190 -0.7927
 2876TIP3    H230120   6.597   5.199   5.548 -0.6513 -0.2674 -1.0492
 2877TIP3   OH230121   5.386   3.310  12.246  0.0868  0.3138  0.1787
 2877TIP3    H130122   5.307   3.345  12.288 -0.1452  1.8172 -1.4113
 2877TIP3    H230123   5.449   3.382  12.250  0.2229  0.3221 -1.5237
 2878TIP3   OH230124   2.516   1.618  13.169 -0.0787  0.2492  0.7050
 2878TIP3    H130125   2.569   1.547  13.134 -1.6785 -0.3532 -0.6191
 2878TIP3    H230126   2.557   1.698  13.133  1.1518 -0.0246  1.4258
 2879TIP3   OH230127   4.967   0.353  12.169  0.4926  0.4675 -0.0247
 2879TIP3    H130128   5.010   0.411  12.231  0.6017 -0.6698  1.0062
 2879TIP3    H230129   4.989   0.388  12.083  2.3247  0.7103  0.5097
 2880TIP3   OH230130   6.329   5.908   6.170 -0.3047 -0.2488  0.0385
 2880TIP3    H130131   6.373   5.983   6.131  0.3777 -2.1768 -3.3101
 2880TIP3    H230132   6.399   5.860   6.216 -0.3984  0.2818  0.7429
 2881TIP3   OH230133   3.262   4.843   2.270  0.7704  0.6031 -0.1243
 2881TIP3    H130134   3.256   4.788   2.192 -0.9642  0.3025  0.1752
 2881TIP3    H230135   3.282   4.931   2.237  1.6684  0.1721 -0.7541
 2882TIP3   OH230136   0.278   0.719  15.958 -0.3622  0.1814  0.3192
 2882TIP3    H130137   0.208   0.655  15.946 -0.8077  0.9442 -1.5819
 2882TIP3    H230138   0.268   0.779  15.884  1.7940  0.7890  0.4577
 2883TIP3   OH230139   4.575   1.749   0.239 -0.5375  0.2542  0.3215
 2883TIP3    H130140   4.511   1.722   0.173  0.4993 -0.1827 -0.5383
 2883TIP3    H230141   4.562   1.843   0.249 -0.3244  0.4351 -0.9535
 2884TIP3   OH230142   0.275   5.903  12.321  0.1778 -0.0091  0.0559
 2884TIP3    H130143   0.328   5.978  12.345 -0.2133 -0.1807  1.5662
 2884TIP3    H230144   0.186   5.925  12.351 -0.3077 -0.3236 -1.1118
 2885TIP3   OH230145   1.609   6.357  11.833  0.2239  0.4944  0.0138
 2885TIP3    H130146   1.603   6.372  11.927  0.9526  0.9887 -0.0114
 2885TIP3    H230147   1.696   6.389  11.809 -0.1078  0.7537 -0.8951
 2886TIP3   OH230148   4.150   0.943  17.056 -0.1256 -1.0303 -0.2859
 2886TIP3    H130149   4.141   0.908  17.145  2.5688  0.9732  0.9202
 2886TIP3    H230150   4.244   0.946  17.041 -0.4317  0.7577 -2.3267
 2887TIP3   OH230151   4.968   4.401   0.087  0.2169 -0.2742  0.1539
 2887TIP3    H130152   4.901   4.374   0.024 -2.1662 -0.6995  2.6756
 2887TIP3    H230153   5.003   4.319   0.122  0.3227 -0.0561  0.5677
 2888TIP3   OH230154   3.434   2.949   0.094  0.0841  0.4861 -1.0649
 2888TIP3    H130155   3.471   2.986   0.013  1.8544  0.7131 -0.2152
 2888TIP3    H230156   3.451   3.016   0.160  1.6312 -0.9718  0.1239
 2889TIP3   OH230157   0.854   5.320   5.255  0.5772 -0.0491  0.1237
 2889TIP3    H130158   0.950   5.322   5.261  0.8535 -1.0338 -2.5634
 2889TIP3    H230159   0.833   5.227   5.245 -0.3460  0.3466 -2.2189
 2890TIP3   OH230160   4.217   5.171  11.861 -0.3244 -0.3973 -0.1595
 2890TIP3    H130161   4.170   5.097  11.823  0.9489 -2.6928  2.4145
 2890TIP3    H230162   4.165   5.195  11.939 -0.9442  1.7972 -1.1589
 2891TIP3   OH230163   0.371   4.891   2.724 -0.0831  0.0856 -0.2877
 2891TIP3    H130164   0.333   4.975   2.749 -0.0240 -0.2382  0.9238
 2891TIP3    H230165   0.313   4.826   2.763 -0.8157 -0.4920 -2.1912
 2892TIP3   OH230166   1.605   4.586  13.068 -0.5411 -0.0980  0.1110
 2892TIP3    H130167   1.700   4.582  13.076 -0.1923  2.3213 -1.7133
 2892TIP3    H230168   1.577   4.495  13.071  1.3995 -0.7886  4.2157
 2893TIP3   OH230169   3.753   4.149  15.274 -0.1789 -0.2566  0.3625
 2893TIP3    H130170   3.697   4.211  15.227  2.0276  0.3537 -1.6144
 2893TIP3    H230171   3.840   4.161  15.236  1.4171 -0.9914  3.4655
 2894TIP3   OH230172   0.199   3.204  14.561  0.3980  0.0959 -0.7165
 2894TIP3    H130173   0.282   3.166  14.532 -0.2983 -0.9667 -1.3673
 2894TIP3    H230174   0.190   3.285  14.511  0.6899 -0.1531 -1.1698
 2895TIP3   OH230175   4.047   4.891   3.196 -0.0486 -0.2928 -0.4164
 2895TIP3    H130176   4.087   4.954   3.256  1.5305 -0.6184 -1.0773
 2895TIP3    H230177   4.005   4.945   3.129 -1.6037  0.0669  0.7981
 2896TIP3   OH230178   1.920   0.512  15.610  0.3439  0.0496 -0.2264
 2896TIP3    H130179   1.984   0.514  15.539 -1.8145  1.6308 -2.2844
 2896TIP3    H230180   1.853   0.575  15.584 -2.5127 -2.0865  1.3658
 2897TIP3   OH230181   6.544   1.710   5.383  0.7750 -0.4972 -0.7064
 2897TIP3    H130182   6.526   1.618   5.404  2.8039 -0.5895  0.9942
 2897TIP3    H230183   6.459   1.753   5.392  0.0769 -1.9340  0.1445
 2898TIP3   OH230184   0.586   3.962  15.279 -0.2388  0.1609  0.6612
 2898TIP3    H130185   0.647   4.036  15.272 -2.1681  1.7271 -0.4606
 2898TIP3    H230186   0.519   3.991  15.341  0.2602 -1.6883  2.1807
 2899TIP3   OH230187   2.458   2.122  15.944  0.0769  0.0166  0.0037
 2899TIP3    H130188   2.527   2.063  15.912 -1.0619 -1.2307 -0.2504
 2899TIP3    H230189   2.440   2.180  15.871 -0.2407 -0.6981 -0.4953
 2900TIP3   OH230190   4.982   3.362  16.612 -0.1172  0.3379  0.1993
 2900TIP3    H130191   4.999   3.444  16.658  0.3234 -0.3347  1.2810
 2900TIP3    H230192   4.974   3.387  16.520  3.2339  1.2162  0.0009
 2901TIP3   OH230193   5.577   2.305  15.080 -0.2965  0.1252 -0.0609
 2901TIP3    H130194   5.578   2.288  14.986  0.1150  2.2123 -0.4880
 2901TIP3    H230195   5.652   2.257  15.114  1.5474  1.8757 -1.3775
 2902TIP3   OH230196   2.846   3.863  17.032 -0.1545  0.8776 -0.5754
 2902TIP3    H130197   2.808   3.795  16.977  2.3635 -2.0129  0.9558
 2902TIP3    H230198   2.849   3.825  17.120  3.1852  2.0937 -0.0182
 2903TIP3   OH230199   3.639   5.569   4.973 -0.5500  0.1752 -0.2780
 2903TIP3    H130200   3.709   5.505   4.982  0.3085  1.1105 -0.1327
 2903TIP3    H230201   3.652   5.608   4.887 -0.3901  0.9151  0.0721
 2904TIP3   OH230202   6.461   5.853   1.030 -0.2798  0.5470 -0.5515
 2904TIP3    H130203   6.545   5.898   1.031 -0.8690  1.6914 -0.1206
 2904TIP3    H230204   6.396   5.924   1.026 -1.2346 -0.2818 -0.2880
 2905TIP3   OH230205   2.363   0.191   0.082  0.2238  0.8370 -0.0013
 2905TIP3    H130206   2.409   0.264   0.041 -0.2287  1.2702  0.2405
 2905TIP3    H230207   2.371   0.119   0.020  1.4865  0.8037  0.1718
 2906TIP3   OH230208   6.213   2.622  13.664  0.4152 -0.0978  0.0883
 2906TIP3    H130209   6.123   2.636  13.696  0.4142  0.8369 -0.2950
 2906TIP3    H230210   6.217   2.528  13.647 -0.5946 -0.1108 -0.1887
 2907TIP3   OH230211   0.155   1.999   0.867 -0.3096 -0.6853 -0.1468
 2907TIP3    H130212   0.134   2.052   0.790  0.2820 -0.9134 -0.4697
 2907TIP3    H230213   0.125   2.052   0.941 -1.0257 -0.5288 -0.5322
 2908TIP3   OH230214   6.660   6.317  12.276 -0.3673  0.3125  0.0146
 2908TIP3    H130215   6.700   6.330  12.190 -0.2221  0.8668  0.1626
 2908TIP3    H230216   6.616   6.232  12.269 -1.3414  0.8753 -0.9897
 2909TIP3   OH230217   6.447   3.670   0.645 -0.3743 -0.1834  0.4380
 2909TIP3    H130218   6.476   3.623   0.723 -0.6365 -1.2633 -0.0879
 2909TIP3    H230219   6.498   3.631   0.574  0.6427  1.5165  0.1784
 2910TIP3   OH230220   5.115   3.948  16.956  0.0566 -0.0185  0.2379
 2910TIP3    H130221   5.188   3.912  17.007 -1.1580 -2.0627  0.6470
 2910TIP3    H230222   5.063   3.997  17.020  0.4567  0.4628  0.1962
 2911TIP3   OH230223   1.928   0.791   5.925 -0.4780 -0.4954  0.1519
 2911TIP3    H130224   1.893   0.872   5.890 -3.1937 -1.9647 -0.8686
 2911TIP3    H230225   1.894   0.787   6.015 -2.7237 -1.6491 -0.6552
 2912TIP3   OH230226   3.550   5.562  15.227 -0.5496  0.3532 -0.2780
 2912TIP3    H130227   3.606   5.541  15.152 -0.1472 -0.2470  0.1776
 2912TIP3    H230228   3.465   5.524  15.205 -0.3430 -0.1113 -0.2924
 2913TIP3   OH230229   6.162   0.742   2.331  0.0156 -0.6416  0.0360
 2913TIP3    H130230   6.213   0.693   2.266  0.8678 -0.3884  0.4913
 2913TIP3    H230231   6.216   0.739   2.411 -1.3770 -1.6255  0.9755
 2914TIP3   OH230232   1.969   2.203  11.285 -0.7922 -0.0679 -0.1434
 2914TIP3    H130233   1.964   2.190  11.190 -1.6764  0.2076 -0.1497
 2914TIP3    H230234   1.888   2.165  11.319 -1.2141  1.1703  0.3259
 2915TIP3   OH230235   2.328   6.660  14.242 -0.0321  0.6412 -0.6473
 2915TIP3    H130236   2.401   6.721  14.234  1.4878 -0.9018  0.7462
 2915TIP3    H230237   2.326   6.613  14.159  0.6892  0.5661 -0.6223
 2916TIP3   OH230238   0.413   1.688   0.533  0.2867 -0.1333  0.9008
 2916TIP3    H130239   0.489   1.663   0.481  1.2198  2.3276  0.9623
 2916TIP3    H230240   0.427   1.780   0.554 -1.0862 -0.4700  3.7570
 2917TIP3   OH230241   1.519   3.189   5.954  0.0807  0.3595 -0.7408
 2917TIP3    H130242   1.554   3.099   5.956 -0.3963  0.1664 -0.9880
 2917TIP3    H230243   1.532   3.221   6.043 -0.0296 -0.0684 -0.5650
 2918TIP3   OH230244   0.615   2.419   0.556  0.3181 -0.3639  0.6422
 2918TIP3    H130245   0.631   2.377   0.472  0.8708  1.8897 -0.4476
 2918TIP3    H230246   0.697   2.406   0.605  1.4992  1.6144 -0.6982
 2919TIP3   OH230247   1.259   2.238  11.296  0.0393 -0.5850  0.0751
 2919TIP3    H130248   1.271   2.151  11.258 -1.4258 -1.0224  0.5470
 2919TIP3    H230249   1.165   2.256  11.286 -0.1616 -0.1527  2.2610
 2920TIP3   OH230250   1.553   5.916   2.221  0.0921  0.0798  0.1625
 2920TIP3    H130251   1.529   5.848   2.158  0.7869 -0.1536  0.1364
 2920TIP3    H230252   1.592   5.986   2.167 -0.9195  0.6503  0.1524
 2921TIP3   OH230253   1.410   0.948   5.474 -0.5371  0.4998  0.4360
 2921TIP3    H130254   1.450   0.903   5.548 -0.2899  0.3800  0.2300
 2921TIP3    H230255   1.381   0.877   5.416 -0.4967  0.5988  0.2939
 2922TIP3   OH230256   5.852   3.455  12.097 -0.3951  0.0252 -0.4262
 2922TIP3    H130257   5.922   3.401  12.061  1.0202  1.4805  0.0322
 2922TIP3    H230258   5.826   3.409  12.177 -0.4419 -0.8791 -0.9479
 2923TIP3   OH230259   2.322   5.987   3.528 -0.6751 -0.1506 -0.0659
 2923TIP3    H130260   2.389   5.989   3.460 -1.3766  1.1363 -0.7744
 2923TIP3    H230261   2.362   6.029   3.604  0.1190 -1.6138  0.3609
 2924TIP3   OH230262   5.876   5.350  15.712  0.4643 -0.7738  0.1469
 2924TIP3    H130263   5.963   5.389  15.717  0.3614 -0.3421 -1.1280
 2924TIP3    H230264   5.892   5.259  15.686  0.5557 -0.9044  0.6329
 2925TIP3   OH230265   3.582   5.569   5.233 -0.0045 -0.0618  0.0818
 2925TIP3    H130266   3.562   5.580   5.140  0.9514  0.3164 -0.0857
 2925TIP3    H230267   3.676   5.581   5.240 -0.4522  4.7302  1.7316
 2926TIP3   OH230268   0.840   1.177   4.777 -0.1124  0.3547 -0.1165
 2926TIP3    H130269   0.854   1.271   4.768 -1.6624  0.7136  0.7850
 2926TIP3    H230270   0.855   1.141   4.689 -0.5539  1.6026 -0.7172
 2927TIP3   OH230271   0.202   6.211   3.898 -0.4571  0.6449  0.1333
 2927TIP3    H130272   0.292   6.218   3.865 -0.7997  1.8505 -0.5735
 2927TIP3    H230273   0.147   6.221   3.821 -1.2165  0.4252  0.6391
 2928TIP3   OH230274   3.063   0.419   4.165  0.4250 -0.0168  0.3300
 2928TIP3    H130275   3.010   0.381   4.235  1.3821 -1.2528  0.4240
 2928TIP3    H230276   3.081   0.508   4.194 -1.7729  0.5522  0.1668
 2929TIP3   OH230277   2.778   5.467   3.332 -0.2224 -0.3855 -0.2758
 2929TIP3    H130278   2.714   5.455   3.403  0.0418 -0.3321 -0.0238
 2929TIP3    H230279   2.831   5.388   3.335 -1.0638 -1.0158 -1.3176
 2930TIP3   OH230280   0.743   6.517  16.580 -0.3333  0.5094  0.1688
 2930TIP3    H130281   0.823   6.493  16.626  1.2507  0.3153 -2.4619
 2930TIP3    H230282   0.766   6.596  16.532 -1.5385  0.1445 -1.0867
 2931TIP3   OH230283   0.479   4.467   2.779 -0.1933  0.5092  0.5531
 2931TIP3    H130284   0.430   4.511   2.849 -0.3003  1.1409  0.0886
 2931TIP3    H230285   0.447   4.507   2.699  0.3165  0.1647  0.1756
 2932TIP3   OH230286   3.425   6.404  15.072 -0.0388 -0.0366  0.2949
 2932TIP3    H130287   3.468   6.481  15.108  1.3951 -0.5915 -0.1691
 2932TIP3    H230288   3.381   6.436  14.994 -1.5125  0.7737  1.4145
 2933TIP3   OH230289   6.755   5.307  10.555 -0.2570  0.2165 -0.2676
 2933TIP3    H130290   6.805   5.236  10.514 -1.9350 -1.5333  0.5345
 2933TIP3    H230291   6.671   5.267  10.576 -0.3140  1.6870  2.7135
 2934TIP3   OH230292   1.020   4.762   0.309  0.1804 -0.8081  0.3579
 2934TIP3    H130293   1.037   4.709   0.387 -0.0574 -0.3983  0.6893
 2934TIP3    H230294   0.945   4.816   0.333 -0.1633 -0.9861 -0.3064
 2935TIP3   OH230295   3.161   0.166   1.064  0.2186 -0.3307 -0.4517
 2935TIP3    H130296   3.195   0.100   1.004 -0.5648 -0.3210 -0.9175
 2935TIP3    H230297   3.092   0.121   1.113  2.0360 -0.8895  1.7683
 2936TIP3   OH230298   3.638   3.289  14.353  0.7883 -0.1706  0.2371
 2936TIP3    H130299   3.645   3.214  14.412  0.4252  0.4248  1.0521
 2936TIP3    H230300   3.712   3.280  14.294  1.3125 -0.6291  0.9496
 2937TIP3   OH230301   5.542   2.288  11.699  0.1726 -0.4227  0.3184
 2937TIP3    H130302   5.566   2.200  11.726  2.9998 -0.2985 -1.4551
 2937TIP3    H230303   5.447   2.292  11.712  0.4336 -2.3270  4.1766
 2938TIP3   OH230304   4.833   3.915   3.038  0.6876  0.1180  0.4129
 2938TIP3    H130305   4.842   3.952   3.126 -0.0486 -0.1413  0.5970
 2938TIP3    H230306   4.893   3.967   2.985  0.4954  0.8488  0.8971
 2939TIP3   OH230307   4.140   2.476   3.024  0.0774 -0.2565 -0.3303
 2939TIP3    H130308   4.112   2.554   2.976 -1.3482  0.0868  0.9727
 2939TIP3    H230309   4.133   2.501   3.116  1.8539 -1.1828  0.1144
 2940TIP3   OH230310   4.252   1.449  12.768  0.5240  0.0846  0.1903
 2940TIP3    H130311   4.275   1.393  12.842 -1.6231 -0.8958  0.1955
 2940TIP3    H230312   4.180   1.503  12.800  2.6305  3.0613  0.2180
 2941TIP3   OH230313   0.628   6.179   1.642 -0.1472 -0.4041  0.2509
 2941TIP3    H130314   0.610   6.191   1.735 -1.3817 -1.2092  0.1273
 2941TIP3    H230315   0.546   6.149   1.604  0.6176 -1.1225 -0.9143
 2942TIP3   OH230316   6.172   2.063  12.346 -0.2209  0.3356 -0.8294
 2942TIP3    H130317   6.087   2.106  12.353 -0.1606  0.1423  2.2449
 2942TIP3    H230318   6.180   2.011  12.426  1.7825 -1.5903 -2.1600
 2943TIP3   OH230319   5.285   4.479   0.019 -0.5256 -0.5673 -0.0379
 2943TIP3    H130320   5.268   4.542  -0.051 -0.9819  0.0628  0.6308
 2943TIP3    H230321   5.374   4.500   0.049 -1.1502  0.6350  1.0563
 2944TIP3   OH230322   2.583   2.512  15.934 -0.1652 -0.8519  0.0097
 2944TIP3    H130323   2.514   2.555  15.884  0.4303  1.5661  1.1536
 2944TIP3    H230324   2.634   2.464  15.869  0.1982  1.6562 -1.6813
 2945TIP3   OH230325   6.205   0.802   1.645  0.1312  0.0866 -0.4603
 2945TIP3    H130326   6.245   0.814   1.559  1.2717 -0.3329 -0.0171
 2945TIP3    H230327   6.119   0.766   1.627  0.6103 -0.6287 -1.4192
 2946TIP3   OH230328   2.401   1.377  13.700 -0.5472 -0.1067 -0.5995
 2946TIP3    H130329   2.422   1.399  13.609 -1.0553 -1.3121 -1.0315
 2946TIP3    H230330   2.485   1.378  13.745 -0.3047  0.6258 -1.0426
 2947TIP3   OH230331   1.508   2.971  14.050  0.1689 -0.6154  0.5809
 2947TIP3    H130332   1.463   2.949  14.131  2.4124 -0.5049  1.9381
 2947TIP3    H230333   1.552   3.054  14.069 -0.5343  0.2387 -1.3050
 2948TIP3   OH230334   1.285   4.319   0.936 -0.4396 -0.1622  0.2465
 2948TIP3    H130335   1.194   4.319   0.909 -0.3411  1.2809 -0.1680
 2948TIP3    H230336   1.282   4.342   1.029 -0.4728  0.7637  0.0294
 2949TIP3   OH230337   1.921   0.628  14.950 -0.0494 -0.2694  0.7172
 2949TIP3    H130338   1.856   0.617  15.020 -0.3241  0.6235  0.6120
 2949TIP3    H230339   2.004   0.642  14.995 -0.1662 -0.0547  0.8676
 2950TIP3   OH230340   6.507   0.445   4.948  0.7605 -0.3168  0.2897
 2950TIP3    H130341   6.497   0.398   4.865  0.2611  1.9573 -1.0057
 2950TIP3    H230342   6.562   0.520   4.927 -2.5098  2.5122  0.9856
 2951TIP3   OH230343   1.724   0.526   4.976 -0.8074 -0.7344 -0.4947
 2951TIP3    H130344   1.804   0.537   5.028 -1.2946 -0.1940  0.1596
 2951TIP3    H230345   1.750   0.550   4.887  0.6839 -3.9364 -1.0888
 2952TIP3   OH230346   5.479   3.693  17.377  0.5522 -0.3941 -0.1946
 2952TIP3    H130347   5.507   3.766  17.432 -0.0898  1.1046 -1.7848
 2952TIP3    H230348   5.561   3.652  17.348  0.9022 -0.7479  1.2293
 2953TIP3   OH230349   4.066   6.404   3.966  0.0730 -0.4081 -0.1986
 2953TIP3    H130350   4.112   6.434   4.045 -0.9046 -1.2672  0.7245
 2953TIP3    H230351   3.980   6.376   3.997 -1.0056  0.8824 -1.8468
 2954TIP3   OH230352   5.181   0.661  11.915  0.0629 -0.0836  0.5248
 2954TIP3    H130353   5.263   0.637  11.872 -1.5679 -2.5746 -1.4783
 2954TIP3    H230354   5.196   0.641  12.008  1.2997 -1.8935 -0.0126
 2955TIP3   OH230355   4.649   6.484   2.788  0.2095  0.3199 -0.2773
 2955TIP3    H130356   4.623   6.448   2.873  1.7014  0.3278  0.2170
 2955TIP3    H230357   4.731   6.439   2.768 -1.0471 -1.0776 -2.6409
 2956TIP3   OH230358   3.646   3.674  11.513 -0.2563  0.6020 -0.0892
 2956TIP3    H130359   3.680   3.756  11.477  1.1339  0.6465  1.1747
 2956TIP3    H230360   3.571   3.701  11.566 -0.3856  0.9312 -0.4306
 2957TIP3   OH230361   0.272   1.550  11.647  0.4559  0.4108 -0.0596
 2957TIP3    H130362   0.185   1.520  11.673  0.2059  1.0235 -0.1643
 2957TIP3    H230363   0.283   1.516  11.558  0.2762  0.4371 -0.0915
 2958TIP3   OH230364   1.936   3.597  12.470  0.6759  0.1477  0.4728
 2958TIP3    H130365   1.848   3.591  12.506 -0.3810 -1.3010 -2.0774
 2958TIP3    H230366   1.993   3.598  12.547 -1.5150  0.7798  2.1975
 2959TIP3   OH230367   0.316   1.922   5.952  0.0701  0.5007 -0.1631
 2959TIP3    H130368   0.276   1.840   5.922  1.8955 -0.0714 -1.2400
 2959TIP3    H230369   0.291   1.929   6.044  1.6997 -2.5122  0.6566
 2960TIP3   OH230370   3.431   6.324   3.625 -0.3809 -0.3493 -0.3337
 2960TIP3    H130371   3.504   6.376   3.591  0.2668 -0.7292  0.4418
 2960TIP3    H230372   3.376   6.306   3.549 -0.2232  0.8269 -0.7448
 2961TIP3   OH230373   0.438   0.061   1.750  1.0599 -0.0563  0.1431
 2961TIP3    H130374   0.489   0.000   1.697  0.3016  0.5285 -1.2974
 2961TIP3    H230375   0.351   0.021   1.756  0.3706  1.1404 -1.3478
 2962TIP3   OH230376   1.694   6.457  14.209 -0.2368  0.4641  0.6509
 2962TIP3    H130377   1.634   6.383  14.222 -0.5484 -0.0767 -2.8944
 2962TIP3    H230378   1.781   6.416  14.200 -0.2960  0.5723 -0.5252
 2963TIP3   OH230379   0.465   6.698  14.998 -0.0286 -0.7489  0.1595
 2963TIP3    H130380   0.464   6.727  15.089  2.2986  3.5257 -0.8822
 2963TIP3    H230381   0.542   6.641  14.992  2.0390  1.8206  0.3667
 2964TIP3   OH230382   5.278   2.628   4.740 -0.2066  0.4804  0.3734
 2964TIP3    H130383   5.252   2.557   4.681  0.9373  0.5059 -0.1724
 2964TIP3    H230384   5.354   2.668   4.698  1.3406 -0.2060  2.3978
 2965TIP3   OH230385   5.339   3.403  13.581 -0.4274 -0.0927  0.3746
 2965TIP3    H130386   5.361   3.421  13.489  1.4493  0.6975  0.9360
 2965TIP3    H230387   5.308   3.486  13.615  0.0388 -0.0689  0.7561
 2966TIP3   OH230388   1.164   5.969   5.950 -0.4851  0.3480  0.3228
 2966TIP3    H130389   1.112   6.003   6.022 -1.0096  2.2767 -0.8728
 2966TIP3    H230390   1.121   6.004   5.871  1.2724  0.0907 -0.8130
 2967TIP3   OH230391   1.981   6.572  15.371  0.2774 -0.2671 -0.0321
 2967TIP3    H130392   2.016   6.641  15.427 -0.1913 -0.0793  0.0340
 2967TIP3    H230393   1.946   6.618  15.295  1.8739 -0.5987 -1.0137
 2968TIP3   OH230394   4.759   3.055   1.400  0.6882  0.0915 -0.0836
 2968TIP3    H130395   4.819   3.014   1.462  0.6536 -0.3375 -0.3262
 2968TIP3    H230396   4.815   3.109   1.344  0.5861  1.4025  1.0267
 2969TIP3   OH230397   6.775   3.706  16.492  0.4717  0.2870 -0.1278
 2969TIP3    H130398   6.861   3.746  16.476  0.9066 -0.3534  0.5627
 2969TIP3    H230399   6.794   3.616  16.517 -0.5692 -1.2498 -4.1282
 2970TIP3   OH230400   1.826   1.409   4.492  0.4120  0.5817 -0.2809
 2970TIP3    H130401   1.773   1.410   4.412  1.4748  1.6420 -1.0190
 2970TIP3    H230402   1.777   1.354   4.553 -0.1188 -0.7831 -1.8635
 2971TIP3   OH230403   3.558   3.079  17.210 -0.4382  0.5914 -0.8060
 2971TIP3    H130404   3.593   3.111  17.127  2.5288  0.2203  0.1999
 2971TIP3    H230405   3.536   3.159  17.258 -3.0243  0.8079 -2.1683
 2972TIP3   OH230406   0.857   1.056   3.886  0.2171 -0.4074  0.2145
 2972TIP3    H130407   0.851   1.086   3.796  0.4775  0.6342  0.5304
 2972TIP3    H230408   0.934   1.102   3.922  0.0063 -0.6558  1.0158
 2973TIP3   OH230409   5.167   4.732  13.939  0.1056 -0.4080  0.4099
 2973TIP3    H130410   5.124   4.818  13.937  0.8365 -0.0212  0.7028
 2973TIP3    H230411   5.099   4.672  13.971 -0.8824 -0.2463 -1.2899
 2974TIP3   OH230412   3.710   3.688   2.140 -0.1195 -0.7504 -0.4339
 2974TIP3    H130413   3.765   3.733   2.204 -0.6956  0.2118 -0.5845
 2974TIP3    H230414   3.770   3.664   2.070  0.5209 -1.8307  0.4531
 2975TIP3   OH230415   5.875   4.070  14.146 -0.1473 -0.1181  0.1559
 2975TIP3    H130416   5.926   4.135  14.098  0.1120 -1.0318 -0.8540
 2975TIP3    H230417   5.794   4.115  14.170 -0.2594  0.3967 -1.1097
 2976TIP3   OH230418   3.645   1.308  11.129  0.1626  0.1185  0.0628
 2976TIP3    H130419   3.569   1.365  11.117  0.9303  0.8315 -1.8623
 2976TIP3    H230420   3.718   1.359  11.095  0.9198 -1.9075 -1.5508
 2977TIP3   OH230421   6.586   2.936   3.495 -0.0444 -0.3498  0.3203
 2977TIP3    H130422   6.568   2.945   3.589 -0.7818  0.7700  0.0837
 2977TIP3    H230423   6.504   2.959   3.452  0.0142 -1.7305 -0.5999
 2978TIP3   OH230424   6.611   1.562  15.534 -0.1006  0.4885  0.1001
 2978TIP3    H130425   6.552   1.625  15.491  2.2831  1.2244 -2.3455
 2978TIP3    H230426   6.692   1.611  15.549  0.5250 -0.9583  1.8241
 2979TIP3   OH230427   2.637   1.096  16.869  0.1179  0.6123 -0.2786
 2979TIP3    H130428   2.681   1.037  16.808 -1.3067  1.0677 -1.8478
 2979TIP3    H230429   2.708   1.144  16.911  1.2534 -1.4055  0.2267
 2980TIP3   OH230430   5.357   5.018   2.147  0.1149  0.2496  0.4160
 2980TIP3    H130431   5.344   5.066   2.066 -1.2622 -0.3334  0.2643
 2980TIP3    H230432   5.380   4.929   2.120 -0.4635  0.0215  0.6512
 2981TIP3   OH230433   1.398   0.607  12.308 -0.5946  0.3960 -0.1941
 2981TIP3    H130434   1.405   0.517  12.340 -2.6459  0.7013  1.3364
 2981TIP3    H230435   1.371   0.658  12.385  2.8317  2.8338 -0.3794
 2982TIP3   OH230436   0.054   3.846   2.807  0.2168  0.3623  0.4464
 2982TIP3    H130437   0.006   3.768   2.780 -1.4787  1.5581 -0.0856
 2982TIP3    H230438   0.146   3.824   2.791 -0.3946 -0.5681 -2.2039
 2983TIP3   OH230439   3.703   2.395  14.505  0.0981  0.0234 -0.0770
 2983TIP3    H130440   3.767   2.449  14.552 -0.4556 -0.6293  1.5046
 2983TIP3    H230441   3.755   2.344  14.443  0.9689  0.3831  0.3444
 2984TIP3   OH230442   5.443   5.569  12.717  0.3168 -0.5107  0.7104
 2984TIP3    H130443   5.369   5.595  12.772  0.0477  2.0879 -0.6943
 2984TIP3    H230444   5.402   5.532  12.639  0.4845  0.2148  0.2654
 2985TIP3   OH230445   3.314   6.611   0.638  0.5679 -0.0448  0.8543
 2985TIP3    H130446   3.266   6.563   0.705 -1.7362  1.1502  0.1797
 2985TIP3    H230447   3.279   6.700   0.644  4.2508  1.5202  1.6963
 2986TIP3   OH230448   2.693   1.134  10.759 -0.4746 -0.1030  0.3966
 2986TIP3    H130449   2.682   1.042  10.736 -2.0813  0.0555  0.4230
 2986TIP3    H230450   2.765   1.135  10.822  0.9541 -1.0812 -1.1282
 2987TIP3   OH230451   6.513   6.324  12.601  0.2376  0.5991  0.2983
 2987TIP3    H130452   6.482   6.280  12.680 -0.1445 -0.3386 -0.3541
 2987TIP3    H230453   6.514   6.256  12.534 -3.0233  2.0823 -1.4893
 2988TIP3   OH230454   3.668   0.818   1.262 -0.4348 -0.7566  0.4784
 2988TIP3    H130455   3.734   0.883   1.237 -1.0765 -0.1794  0.2565
 2988TIP3    H230456   3.656   0.764   1.184  0.0225 -1.0808  0.6296
 2989TIP3   OH230457   2.867   3.067  15.257  0.0267  0.3687  0.0668
 2989TIP3    H130458   2.936   3.010  15.292  0.2515  0.2148 -0.6109
 2989TIP3    H230459   2.785   3.019  15.274  0.2249 -0.2571 -0.6494
 2990TIP3   OH230460   2.995   1.377   3.897 -0.4832  0.0708  0.3607
 2990TIP3    H130461   3.020   1.339   3.813  0.4867 -0.2863  0.8029
 2990TIP3    H230462   2.967   1.466   3.875 -0.4503 -0.0856 -0.3605
 2991TIP3   OH230463   1.538   4.781   0.658 -0.1070  0.2182 -0.3650
 2991TIP3    H130464   1.630   4.754   0.658  0.7678  2.9356  0.2104
 2991TIP3    H230465   1.499   4.732   0.586  1.3579 -2.2396  0.3979
 2992TIP3   OH230466   0.134   3.667   2.430 -0.5710 -0.2837 -0.1234
 2992TIP3    H130467   0.222   3.682   2.464 -0.5715  0.9610 -0.6269
 2992TIP3    H230468   0.140   3.583   2.385  0.4799 -0.0025 -0.5363
 2993TIP3   OH230469   2.920   2.734   3.826  0.2559 -0.2381  0.2141
 2993TIP3    H130470   3.010   2.767   3.818  0.4852 -0.6615  0.9531
 2993TIP3    H230471   2.923   2.676   3.902 -1.1866  1.4704  1.6194
 2994TIP3   OH230472   4.595   1.100   4.485 -0.5433 -0.7089 -0.3631
 2994TIP3    H130473   4.656   1.095   4.412 -0.2011 -1.8470 -0.0110
 2994TIP3    H230474   4.649   1.131   4.558 -1.4636  3.4565 -1.1840
 2995TIP3   OH230475   0.719   5.282   2.768 -0.1815  0.0449  0.2685
 2995TIP3    H130476   0.627   5.309   2.766 -0.0370  0.7248  1.5207
 2995TIP3    H230477   0.726   5.228   2.847 -0.0262 -2.1106 -1.1398
 2996TIP3   OH230478   1.192   1.420  12.044 -0.2054 -0.1806 -0.5105
 2996TIP3    H130479   1.190   1.354  12.114 -1.0390 -0.7163 -1.0165
 2996TIP3    H230480   1.259   1.388  11.983  0.4822  0.2576  0.0088
 2997TIP3   OH230481   3.235   1.361   1.322 -0.6141 -0.8836 -0.2899
 2997TIP3    H130482   3.256   1.428   1.387  0.7394 -0.6271 -0.9455
 2997TIP3    H230483   3.176   1.405   1.261 -0.5255 -0.6037 -0.1763
 2998TIP3   OH230484   5.972   6.637   4.445 -0.3975  0.2115 -0.8399
 2998TIP3    H130485   5.945   6.572   4.510  1.7216 -1.0464 -1.1308
 2998TIP3    H230486   6.025   6.588   4.382 -1.3128  1.6351 -2.8428
 2999TIP3   OH230487   1.881   5.174  13.883 -0.0569  0.4130 -0.2972
 2999TIP3    H130488   1.818   5.241  13.910  0.8157  1.8282 -1.5909
 2999TIP3    H230489   1.913   5.137  13.966 -0.4484  1.7091  0.4684
 3000TIP3   OH230490   3.227   2.836   5.025 -0.4695 -0.4724  0.1743
 3000TIP3    H130491   3.319   2.860   5.035 -0.6985  1.1087 -1.1335
 3000TIP3    H230492   3.190   2.843   5.113  0.8808 -2.3329  0.9512
 3001TIP3   OH230493   3.173   1.294   6.389  0.0512 -0.3409  0.1797
 3001TIP3    H130494   3.169   1.327   6.478 -1.2940  1.9409 -0.6523
 3001TIP3    H230495   3.228   1.215   6.395  2.0210  1.0800  2.5713
 3002TIP3   OH230496   1.895   6.795   4.151 -0.3445  0.3172 -0.0904
 3002TIP3    H130497   1.915   6.801   4.057  0.5927  0.4671  0.1141
 3002TIP3    H230498   1.855   6.879   4.172 -1.0011  0.1073 -0.4486
 3003TIP3   OH230499   6.032   4.203   3.060 -0.3962  0.0127  0.4316
 3003TIP3    H130500   6.115   4.156   3.055 -1.0496 -1.5482  2.6396
 3003TIP3    H230501   5.982   4.171   2.985  0.2438 -0.5915  0.2503
 3004TIP3   OH230502   0.299   4.161   5.432 -0.0450  0.1241  0.6790
 3004TIP3    H130503   0.350   4.098   5.382 -1.5702 -1.0591  0.5529
 3004TIP3    H230504   0.208   4.130   5.425 -1.2619  3.5441 -1.2932
 3005TIP3   OH230505   4.375   1.194  13.761  0.0931 -0.3821  0.8527
 3005TIP3    H130506   4.292   1.184  13.808  0.0070 -1.0433  0.5612
 3005TIP3    H230507   4.410   1.106  13.755 -0.3507 -0.4701 -1.1584
 3006TIP3   OH230508   0.242   1.136  10.919  1.0977 -0.0702  0.0909
 3006TIP3    H130509   0.178   1.185  10.868  1.7341  1.0332  0.3179
 3006TIP3    H230510   0.310   1.111  10.855  0.4782 -1.2235 -0.1460
 3007TIP3   OH230511   6.446   0.425  16.332 -0.5507 -0.2393  0.4109
 3007TIP3    H130512   6.413   0.458  16.249 -2.2780 -0.0512  1.1375
 3007TIP3    H230513   6.388   0.462  16.398  1.3339  0.3616  1.8182
 3008TIP3   OH230514   1.267   6.555   0.763 -0.6784  0.2571 -0.3962
 3008TIP3    H130515   1.230   6.606   0.691 -0.8404  0.5088 -0.1342
 3008TIP3    H230516   1.254   6.609   0.841  0.4280  0.4415 -0.3237
 3009TIP3   OH230517   0.051   6.532  15.806  0.1363  0.0358 -0.2572
 3009TIP3    H130518   0.042   6.449  15.852 -1.7751 -0.0195 -0.6744
 3009TIP3    H230519  -0.002   6.522  15.728 -0.4921  1.8083 -0.0916
 3010TIP3   OH230520   6.587   4.592  12.851 -0.5326  0.2254 -0.6822
 3010TIP3    H130521   6.670   4.594  12.802 -0.0179  0.3624  0.1682
 3010TIP3    H230522   6.613   4.576  12.942 -1.4090  0.6667 -0.3362
 3011TIP3   OH230523   5.114   0.958  17.088  0.4427  0.2415 -0.2058
 3011TIP3    H130524   5.072   0.933  17.006 -1.4466 -0.8147  0.9953
 3011TIP3    H230525   5.196   0.908  17.090 -0.5456 -1.4718 -0.4633
 3012TIP3   OH230526   3.098   5.274   1.249  0.8313 -0.3307  0.2715
 3012TIP3    H130527   3.081   5.270   1.155  1.5807  2.3450 -0.0619
 3012TIP3    H230528   3.176   5.220   1.260  0.3802 -1.1817 -0.5218
 3013TIP3   OH230529   5.870   2.749   0.226 -0.0384 -0.1322  0.4307
 3013TIP3    H130530   5.935   2.753   0.155 -1.4347  0.4959 -0.8597
 3013TIP3    H230531   5.842   2.657   0.228 -0.9686  0.1089 -0.7664
 3014TIP3   OH230532   4.637   0.691  13.176 -0.3115 -0.1482 -0.2361
 3014TIP3    H130533   4.610   0.616  13.229 -1.8764 -0.9865 -2.1050
 3014TIP3    H230534   4.566   0.754  13.186  0.2254  0.4290  0.0243
 3015TIP3   OH230535   2.995   3.824   2.887 -0.0243 -0.1816 -0.3458
 3015TIP3    H130536   2.934   3.786   2.951 -0.8723  0.2946 -0.8510
 3015TIP3    H230537   3.029   3.750   2.838 -0.3216 -0.4375 -0.1663
 3016TIP3   OH230538   6.765   1.027  17.138 -0.2948  0.1945 -0.4238
 3016TIP3    H130539   6.786   1.115  17.105 -1.8719  0.8909  0.3442
 3016TIP3    H230540   6.675   1.012  17.109  0.1808 -1.4933 -1.1436
 3017TIP3   OH230541   6.395   2.237   4.454 -0.1334  0.0842 -0.0402
 3017TIP3    H130542   6.317   2.191   4.424  0.1365 -1.4493  1.4331
 3017TIP3    H230543   6.464   2.210   4.393 -0.5670  0.8190 -0.8725
 3018TIP3   OH230544   0.194   0.699   2.060  0.0261  0.6757 -0.1969
 3018TIP3    H130545   0.249   0.744   2.125  1.3617  0.7534 -1.3225
 3018TIP3    H230546   0.228   0.610   2.058  1.1948  1.0949 -1.9711
 3019TIP3   OH230547   2.031   0.008   1.689  0.1165 -0.2963  0.3784
 3019TIP3    H130548   2.082   0.055   1.623 -1.3713  0.4671 -0.2871
 3019TIP3    H230549   2.041  -0.084   1.665 -0.1191 -0.0553 -0.7292
 3020TIP3   OH230550   5.424   5.063  15.127 -0.0752  0.0730 -0.7905
 3020TIP3    H130551   5.367   5.066  15.204 -1.9890  3.0466 -2.1529
 3020TIP3    H230552   5.502   5.111  15.153  0.6086 -1.4430  0.1252
 3021TIP3   OH230553   2.603   0.803   1.247  0.7641 -0.2623  0.6526
 3021TIP3    H130554   2.693   0.827   1.223  0.4044 -0.8137 -1.4934
 3021TIP3    H230555   2.565   0.884   1.282  2.3166 -0.2456  2.4504
 3022TIP3   OH230556   2.992   6.080   4.413 -0.0711 -0.2704  0.0103
 3022TIP3    H130557   2.938   6.115   4.484 -0.1572 -0.4841  0.0498
 3022TIP3    H230558   3.063   6.144   4.404  0.2732 -0.5368  0.6990
 3023TIP3   OH230559   2.827   1.445   1.748 -0.1814  0.3477 -0.1760
 3023TIP3    H130560   2.789   1.367   1.707  0.8821  1.3688 -3.4509
 3023TIP3    H230561   2.765   1.515   1.728  0.4210  0.8968 -0.1547
 3024TIP3   OH230562   0.719   4.476  15.043  0.2262  0.5721 -0.1560
 3024TIP3    H130563   0.803   4.430  15.040  0.4671  0.7940  1.9076
 3024TIP3    H230564   0.734   4.558  14.997  1.0462  0.4698 -0.0791
 3025TIP3   OH230565   0.987   5.820   6.760  0.1053  0.1571  0.0720
 3025TIP3    H130566   1.057   5.807   6.823  0.7246 -0.3849 -0.7040
 3025TIP3    H230567   0.916   5.764   6.791  0.1387  0.4392  0.6689
 3026TIP3   OH230568   1.535   1.967   2.058 -0.2567 -0.7833 -0.3969
 3026TIP3    H130569   1.491   1.906   1.999 -1.0555  1.8215 -2.6772
 3026TIP3    H230570   1.465   2.018   2.098  0.4354 -0.4652  0.4524
 3027TIP3   OH230571   1.505   0.571   2.876  0.5922 -0.2348 -0.2173
 3027TIP3    H130572   1.575   0.506   2.880  0.4992 -0.4626 -1.8153
 3027TIP3    H230573   1.426   0.523   2.903  0.7940 -0.3577  0.1620
 3028TIP3   OH230574   1.530   6.558   2.567 -0.0777 -0.3910 -0.2860
 3028TIP3    H130575   1.603   6.497   2.578  1.2658  1.2133  0.0505
 3028TIP3    H230576   1.533   6.612   2.646 -1.7497 -0.3939 -0.1971
 3029TIP3   OH230577   1.439   3.916  14.562 -0.1972  0.0818 -0.2658
 3029TIP3    H130578   1.348   3.888  14.570  0.1140 -0.7088  0.7135
 3029TIP3    H230579   1.452   3.976  14.635 -0.2876  1.2532 -1.1794
 3030TIP3   OH230580   0.053   0.065  12.793  0.2420  0.1214 -0.7508
 3030TIP3    H130581   0.068  -0.023  12.759 -1.6381  0.0295 -1.4387
 3030TIP3    H230582   0.001   0.109  12.726  0.3566  1.4602 -0.0041
 3031TIP3   OH230583   6.153   6.761  12.688  0.3750 -0.2120  0.1518
 3031TIP3    H130584   6.213   6.699  12.730  1.8099  0.3552 -0.9860
 3031TIP3    H230585   6.073   6.710  12.674  0.5061 -0.9608  1.7962
 3032TIP3   OH230586   3.340   1.919   2.539  0.6684  0.5097  0.5873
 3032TIP3    H130587   3.256   1.880   2.561  2.1564 -1.6072  3.0675
 3032TIP3    H230588   3.318   1.998   2.490 -2.6460 -1.0084 -0.6388
 3033TIP3   OH230589   3.967   4.348   5.783  0.0526  0.2457 -0.5400
 3033TIP3    H130590   3.992   4.432   5.821  2.6609 -0.6587 -0.0896
 3033TIP3    H230591   3.903   4.370   5.715  0.5993  2.5703 -0.3642
 3034TIP3   OH230592   3.031   4.211   2.301 -0.3603  0.3481  0.0532
 3034TIP3    H130593   2.940   4.237   2.294 -0.3575  0.5554  0.6727
 3034TIP3    H230594   3.051   4.167   2.219 -0.3574  2.2917 -1.0325
 3035TIP3   OH230595   6.472   2.666   2.018  0.5300 -0.5615 -0.0583
 3035TIP3    H130596   6.470   2.712   2.102 -0.1643 -0.4808 -0.1124
 3035TIP3    H230597   6.451   2.734   1.953 -0.1443 -0.8793 -0.1739
 3036TIP3   OH230598   5.361   5.930  11.229  0.5888 -1.2977 -0.1433
 3036TIP3    H130599   5.402   5.900  11.310  1.6760  0.8716  0.1774
 3036TIP3    H230600   5.283   5.978  11.257 -0.5014 -2.7342 -0.5817
 3037TIP3   OH230601   0.721   0.658  16.819  0.4067  0.0108  0.0360
 3037TIP3    H130602   0.807   0.699  16.825  0.5477 -0.3783  0.8037
 3037TIP3    H230603   0.662   0.729  16.792  1.0890  0.0964 -1.2876
 3038TIP3   OH230604   6.436   3.898   0.089  0.2909  0.7061 -0.2627
 3038TIP3    H130605   6.495   3.833   0.051 -0.5325 -0.5659  0.5637
 3038TIP3    H230606   6.369   3.911   0.022 -0.6889 -0.8911  0.3575
 3039TIP3   OH230607   4.662   3.233  14.860 -0.0928 -0.2275 -0.0377
 3039TIP3    H130608   4.598   3.190  14.803 -0.9996  2.0556 -0.8387
 3039TIP3    H230609   4.724   3.274  14.800  0.1975  0.3747  0.6573
 3040TIP3   OH230610   3.459   3.545   4.115 -0.2976  0.3182  0.2570
 3040TIP3    H130611   3.430   3.454   4.128 -2.1776  0.3833 -2.5258
 3040TIP3    H230612   3.400   3.597   4.170  0.7387 -0.0902  1.8051
 3041TIP3   OH230613   1.392   5.906  10.732 -0.6220  0.8892 -0.2166
 3041TIP3    H130614   1.299   5.895  10.714 -1.0415  0.7668  1.7833
 3041TIP3    H230615   1.400   5.996  10.764 -0.4042  0.3715  1.3015
 3042TIP3   OH230616   2.298   1.809  15.116  0.1359 -0.0607 -0.5075
 3042TIP3    H130617   2.316   1.725  15.072  2.8425 -0.1158  0.4947
 3042TIP3    H230618   2.377   1.860  15.101 -0.5610  1.4682  0.8342
 3043TIP3   OH230619   3.955   1.832  13.785 -0.3654  0.2508  0.3665
 3043TIP3    H130620   3.891   1.903  13.777 -0.0830  0.5842  1.0014
 3043TIP3    H230621   3.927   1.784  13.864  0.5088  0.7578  0.9996
 3044TIP3   OH230622   5.861   0.047   0.771  0.3608 -0.3445 -0.2675
 3044TIP3    H130623   5.953   0.061   0.750  0.1230  0.5201 -0.7755
 3044TIP3    H230624   5.839  -0.035   0.727  0.4789  0.2744 -1.5207
 3045TIP3   OH230625   4.184   4.318   3.968 -0.0295 -0.2726  0.4041
 3045TIP3    H130626   4.151   4.234   3.937  2.6423 -1.9598  1.8262
 3045TIP3    H230627   4.145   4.329   4.055 -0.8764  0.3361 -0.0308
 3046TIP3   OH230628   6.352   0.361  11.288  0.2138 -0.4594 -0.6704
 3046TIP3    H130629   6.358   0.455  11.301 -1.6016 -0.4880  0.7765
 3046TIP3    H230630   6.266   0.348  11.247  0.6670 -1.4557 -1.3426
 3047TIP3   OH230631   3.627   1.037  10.626  0.1780 -0.5040 -0.1738
 3047TIP3    H130632   3.614   1.061  10.718 -0.5517 -1.2504 -0.0608
 3047TIP3    H230633   3.664   1.115  10.585  2.0126 -0.6440  1.0749
 3048TIP3   OH230634   0.973   4.295  17.066  0.1670  0.5246  0.4226
 3048TIP3    H130635   0.992   4.269  17.156  2.7950  1.2822  0.1742
 3048TIP3    H230636   0.882   4.270  17.052  0.5596 -2.4250  2.2748
 3049TIP3   OH230637   0.651   1.979  11.554 -0.4462  0.0261  0.2805
 3049TIP3    H130638   0.569   1.994  11.599  0.2453 -0.2848  1.6964
 3049TIP3    H230639   0.645   1.889  11.522 -0.4163 -0.2144  0.9363
 3050TIP3   OH230640   0.872   3.040   0.974 -0.1120 -0.2337 -0.1104
 3050TIP3    H130641   0.786   3.023   1.012  0.4690  0.5110  1.6866
 3050TIP3    H230642   0.887   2.968   0.913 -3.0916  1.0128 -2.5650
 3051TIP3   OH230643   0.542   1.670  14.885 -0.1946  0.3298 -0.1214
 3051TIP3    H130644   0.632   1.702  14.889  0.4195 -0.9648 -2.0721
 3051TIP3    H230645   0.552   1.575  14.875 -1.8535 -0.0805  1.4949
 3052TIP3   OH230646   1.298   0.679  13.598  0.0528 -0.6228  0.0427
 3052TIP3    H130647   1.333   0.684  13.509 -2.1275 -2.0518 -0.9709
 3052TIP3    H230648   1.242   0.602  13.598 -0.2760 -0.4627  2.5770
 3053TIP3   OH230649   3.801   4.149   0.927  0.2635  0.2474  0.4686
 3053TIP3    H130650   3.729   4.211   0.930  0.6806  1.1235 -3.3039
 3053TIP3    H230651   3.760   4.063   0.913 -0.1774  0.7888 -2.0410
 3054TIP3   OH230652   2.162   5.113   2.503 -0.1512  0.2197 -0.0790
 3054TIP3    H130653   2.240   5.111   2.559  0.9764 -0.2246 -1.5883
 3054TIP3    H230654   2.135   5.205   2.502  1.6791  0.7900 -1.2474
 3055TIP3   OH230655   4.890   0.317  15.369  0.0113 -0.7242 -0.0661
 3055TIP3    H130656   4.842   0.239  15.342  0.1464 -0.5375 -0.8680
 3055TIP3    H230657   4.897   0.370  15.290  2.0297 -0.9945 -0.1333
 3056TIP3   OH230658   3.806   2.824  12.256 -0.5554 -0.0658  0.1772
 3056TIP3    H130659   3.740   2.785  12.199  0.2600  0.8805 -1.4743
 3056TIP3    H230660   3.779   2.915  12.264 -0.7765 -0.2222  1.5449
 3057TIP3   OH230661   6.002   3.776  11.423 -0.4484  0.2013 -0.0310
 3057TIP3    H130662   5.963   3.841  11.364  1.2782 -0.6525 -2.3019
 3057TIP3    H230663   5.999   3.816  11.509 -1.6483  2.2470 -0.9582
 3058TIP3   OH230664   0.280   4.396  12.664  0.1993  0.2048  0.3769
 3058TIP3    H130665   0.332   4.397  12.584 -0.9251 -0.0925 -0.3819
 3058TIP3    H230666   0.193   4.366  12.636 -0.3506  0.5595  1.6197
 3059TIP3   OH230667   1.641   4.484   5.367 -0.5105  0.2763  0.1148
 3059TIP3    H130668   1.610   4.565   5.407 -0.2331  0.9865 -1.0435
 3059TIP3    H230669   1.673   4.511   5.281  1.6798 -0.6980  0.5545
 3060TIP3   OH230670   1.711   1.557   5.823 -0.0190  0.4762 -0.2391
 3060TIP3    H130671   1.699   1.637   5.874 -0.7768  0.9292 -1.0936
 3060TIP3    H230672   1.736   1.491   5.887 -1.5500  0.8767  0.8271
 3061TIP3   OH230673   1.409   2.411   5.480 -0.0140 -0.4931 -0.4591
 3061TIP3    H130674   1.335   2.396   5.421  0.0274  0.8863 -0.9041
 3061TIP3    H230675   1.480   2.438   5.422 -0.0536  1.1858  0.2193
 3062TIP3   OH230676   2.521   1.793   4.443  0.7485 -0.0935  0.0631
 3062TIP3    H130677   2.584   1.766   4.510  0.9839 -1.7897 -0.7937
 3062TIP3    H230678   2.453   1.726   4.446  0.8598 -0.3144 -1.5140
 3063TIP3   OH230679   2.528   2.471   3.911 -0.2451 -0.0295  0.2422
 3063TIP3    H130680   2.574   2.518   3.842  1.6421 -0.5267  1.0746
 3063TIP3    H230681   2.453   2.526   3.932  0.8575  1.6993 -0.0929
 3064TIP3   OH230682   3.320   5.019  16.350 -0.4489  0.8658  0.2638
 3064TIP3    H130683   3.356   4.931  16.346  0.9857  1.2407  2.5100
 3064TIP3    H230684   3.289   5.037  16.261 -1.6706 -2.1936 -0.0489
 3065TIP3   OH230685   6.181   1.827   2.248 -0.0703  0.1326 -0.0527
 3065TIP3    H130686   6.265   1.819   2.293  0.4197 -0.1682 -0.9965
 3065TIP3    H230687   6.119   1.779   2.303  0.1130  1.3451  1.2662
 3066TIP3   OH230688   3.456   6.091  11.309 -0.2142  0.3907  0.2777
 3066TIP3    H130689   3.420   6.046  11.385 -0.4118  1.1602  0.6502
 3066TIP3    H230690   3.417   6.046  11.234  0.1073 -0.4772  0.6218
 3067TIP3   OH230691   0.234   6.022   3.255  0.7613  0.2517  0.0312
 3067TIP3    H130692   0.226   6.116   3.239 -0.6296  0.4095  1.5037
 3067TIP3    H230693   0.249   6.014   3.349  3.5656 -0.9115 -0.3891
 3068TIP3   OH230694   2.240   4.158   3.301  0.1320 -0.8117 -0.2451
 3068TIP3    H130695   2.265   4.079   3.349  0.2625 -1.1140 -0.8064
 3068TIP3    H230696   2.168   4.195   3.352  0.8905 -0.6106  0.7054
 3069TIP3   OH230697   6.579   1.875   4.568  0.0288  0.3118 -0.0584
 3069TIP3    H130698   6.553   1.935   4.638  0.9934 -0.2955  0.8435
 3069TIP3    H230699   6.611   1.933   4.498 -0.2959  0.8924  0.2600
 3070TIP3   OH230700   5.607   6.087   4.497 -0.3315 -0.3812  0.5861
 3070TIP3    H130701   5.559   6.120   4.421  0.8236 -1.7652 -0.8252
 3070TIP3    H230702   5.668   6.157   4.518  0.7400 -0.7336 -1.1137
 3071TIP3   OH230703   2.126   2.675   5.487  0.3139  0.1805 -0.4874
 3071TIP3    H130704   2.136   2.747   5.550 -0.9874 -0.4141  0.4301
 3071TIP3    H230705   2.215   2.660   5.455  0.7098  1.7850 -0.2476
 3072TIP3   OH230706   6.765   5.935  11.777 -0.3477 -0.1960  0.4192
 3072TIP3    H130707   6.768   5.953  11.871  0.5855  0.9302  0.1918
 3072TIP3    H230708   6.847   5.971  11.743 -1.1148  0.3021 -0.9762
 3073TIP3   OH230709   4.641   4.949   2.954  0.1374  0.2358  0.6164
 3073TIP3    H130710   4.642   5.027   3.009  0.4638  1.0989 -0.5619
 3073TIP3    H230711   4.579   4.970   2.884 -0.5564 -0.9782  0.8236
 3074TIP3   OH230712   4.331   0.537  12.154 -0.1064  0.1543 -0.6669
 3074TIP3    H130713   4.290   0.454  12.129 -1.0640  0.7917 -1.2613
 3074TIP3    H230714   4.294   0.558  12.240  1.3575 -0.8215  0.2377
 3075TIP3   OH230715   3.975   6.259  16.209 -0.1773  0.1204 -0.0203
 3075TIP3    H130716   4.069   6.278  16.206  0.3857 -2.3065  0.2404
 3075TIP3    H230717   3.946   6.265  16.118  0.5595 -0.5253 -0.3072
 3076TIP3   OH230718   0.034   2.985  14.650  0.0621  0.3261  0.5325
 3076TIP3    H130719   0.115   3.025  14.619  0.1944  0.8650  1.5412
 3076TIP3    H230720   0.059   2.934  14.727 -0.4058 -0.2822  0.2970
 3077TIP3   OH230721   6.712   6.003   3.873  0.4908 -0.6109 -0.0649
 3077TIP3    H130722   6.719   6.078   3.814  0.2830  0.4335  1.2051
 3077TIP3    H230723   6.686   6.040   3.957 -0.4709 -2.2074  0.3816
 3078TIP3   OH230724   4.875   0.826   1.008  0.4325 -0.0475 -0.5418
 3078TIP3    H130725   4.854   0.745   1.055 -1.4306  0.8638  0.3232
 3078TIP3    H230726   4.790   0.865   0.989  1.2824  1.8481 -0.6912
 3079TIP3   OH230727   6.202   4.633  15.594 -0.5170 -0.0552  0.2466
 3079TIP3    H130728   6.226   4.679  15.675 -1.0180 -1.8856  1.4830
 3079TIP3    H230729   6.197   4.541  15.618 -1.7072 -0.5566 -1.6391
 3080TIP3   OH230730   1.419   0.460  16.600 -0.4922 -0.3625 -0.8685
 3080TIP3    H130731   1.486   0.420  16.544  1.4096  0.9409  0.3591
 3080TIP3    H230732   1.429   0.415  16.684 -0.5538  0.4158 -0.4337
 3081TIP3   OH230733   4.610   0.273  15.876  0.3742 -0.2643 -0.1264
 3081TIP3    H130734   4.654   0.290  15.959  2.4401  2.6919 -1.6303
 3081TIP3    H230735   4.681   0.266  15.812 -1.1725  1.6677 -2.2083
 3082TIP3   OH230736   4.158   4.098  15.697 -0.6081  0.7475  0.3786
 3082TIP3    H130737   4.208   4.077  15.776 -0.4016  0.4783  0.1786
 3082TIP3    H230738   4.125   4.013  15.666  1.1288  0.5390 -1.0365
 3083TIP3   OH230739   2.733   4.452   5.209  0.2236 -0.4635 -0.2644
 3083TIP3    H130740   2.669   4.429   5.276 -1.4510 -1.7458 -2.1531
 3083TIP3    H230741   2.724   4.547   5.199  0.3475 -0.2959  1.1359
 3084TIP3   OH230742   3.887   5.261   5.267  0.0483 -0.0337  0.1565
 3084TIP3    H130743   3.932   5.178   5.279 -1.0628 -0.6450  0.1681
 3084TIP3    H230744   3.924   5.318   5.335 -0.2684 -0.9745  1.1450
 3085TIP3   OH230745   3.705   5.312   3.025  0.3382 -0.2323 -0.3565
 3085TIP3    H130746   3.711   5.238   3.086 -0.2752  0.2703  0.3412
 3085TIP3    H230747   3.665   5.382   3.076  0.4228  0.4216 -1.1574
 3086TIP3   OH230748   1.239   3.943  16.308  0.7059  0.2358  0.0560
 3086TIP3    H130749   1.180   3.872  16.334  2.6368 -1.8288 -0.8455
 3086TIP3    H230750   1.223   4.012  16.372 -2.5148 -0.2541 -0.0663
 3087TIP3   OH230751   2.230   6.171   0.326  0.9051 -0.4275 -0.1427
 3087TIP3    H130752   2.204   6.164   0.234  1.1549 -0.3855 -0.2155
 3087TIP3    H230753   2.211   6.085   0.363 -0.5917 -0.0235  0.1271
 3088TIP3   OH230754   5.575   3.927   3.028 -0.2417  0.1397 -0.5644
 3088TIP3    H130755   5.575   3.987   3.103 -1.9380 -1.6849  1.0261
 3088TIP3    H230756   5.482   3.913   3.009 -0.0057 -2.8271 -0.0507
 3089TIP3   OH230757   3.186   3.409   1.826 -0.3453 -0.7824  0.3700
 3089TIP3    H130758   3.157   3.385   1.914  0.3060  1.3342  1.2276
 3089TIP3    H230759   3.281   3.411   1.832 -0.3374  1.4971  0.2859
 3090TIP3   OH230760   0.868   2.733   1.772 -0.5300 -0.4611 -0.2744
 3090TIP3    H130761   0.864   2.825   1.797  1.1542 -0.4293  0.0024
 3090TIP3    H230762   0.789   2.695   1.810 -0.5051  0.5728  0.8979
 3091TIP3   OH230763   3.747   5.442   5.619  0.0056 -0.3682  0.1017
 3091TIP3    H130764   3.777   5.364   5.666 -0.2935 -0.6725 -0.2172
 3091TIP3    H230765   3.819   5.504   5.629 -0.4918 -0.0194  1.9261
 3092TIP3   OH230766   0.302   0.797   4.444 -0.1279 -0.3466 -0.2633
 3092TIP3    H130767   0.296   0.713   4.398  0.8160 -0.5269 -0.0915
 3092TIP3    H230768   0.226   0.846   4.415 -1.1159 -1.5450  0.2099
 3093TIP3   OH230769   2.882   2.547   1.090 -0.2004 -0.1988  0.5179
 3093TIP3    H130770   2.834   2.630   1.087  3.1865  1.9990  1.2059
 3093TIP3    H230771   2.877   2.521   1.182  0.1592  0.2010  0.6551
 3094TIP3   OH230772   3.072   2.518  12.934  0.1538 -0.2942  0.1391
 3094TIP3    H130773   3.131   2.541  13.005 -0.1363 -0.2668  0.3750
 3094TIP3    H230774   3.106   2.565  12.858  0.7970 -0.7696  0.1214
 3095TIP3   OH230775   4.080   1.351  10.541  0.2409  0.1631  0.2802
 3095TIP3    H130776   4.146   1.301  10.588  0.1609  0.0036  0.2215
 3095TIP3    H230777   4.085   1.319  10.451 -1.0063 -0.9696  0.5896
 3096TIP3   OH230778   1.145   4.936   0.584  0.4065 -0.6826  0.1030
 3096TIP3    H130779   1.198   4.877   0.531  0.8929  0.2105 -0.4167
 3096TIP3    H230780   1.188   4.935   0.670 -0.5823 -2.3970  0.6258
 3097TIP3   OH230781   2.701   2.104  13.062  0.0137  0.5278 -0.7686
 3097TIP3    H130782   2.615   2.140  13.042 -0.0831  0.7242 -0.0374
 3097TIP3    H230783   2.727   2.148  13.143 -0.7274 -2.0642  0.9922
 3098TIP3   OH230784   4.413   2.375  11.013 -0.2868 -0.3528 -0.5038
 3098TIP3    H130785   4.383   2.401  10.926  1.7234  1.1702 -0.8158
 3098TIP3    H230786   4.502   2.342  11.000  0.1453  0.1142  0.9918
 3099TIP3   OH230787   0.696   6.020  13.681  0.2595 -0.4161  0.0405
 3099TIP3    H130788   0.781   6.034  13.640  0.5490  0.9976  1.0576
 3099TIP3    H230789   0.717   5.970  13.760 -0.1656 -2.1222 -0.8668
 3100TIP3   OH230790   6.631   4.145  13.407  0.2301  0.1396 -0.0631
 3100TIP3    H130791   6.555   4.181  13.361  0.3505  0.9370  0.3509
 3100TIP3    H230792   6.639   4.198  13.486  1.8343  0.7651 -0.5995
 3101TIP3   OH230793   5.274   1.580   4.977 -0.1832  0.0640  0.0670
 3101TIP3    H130794   5.278   1.670   5.010 -0.1796 -0.4805  1.6417
 3101TIP3    H230795   5.331   1.531   5.036 -2.0528 -1.3946  0.7632
 3102TIP3   OH230796   6.393   0.264   2.137  0.0859  0.5932 -0.1042
 3102TIP3    H130797   6.335   0.200   2.179 -0.3094  0.4449 -0.8679
 3102TIP3    H230798   6.355   0.349   2.161  1.9343  0.7120  2.9004
 3103TIP3   OH230799   6.055   5.781  14.101 -0.0888  0.9544  0.8551
 3103TIP3    H130800   6.012   5.715  14.156 -1.2110 -1.0972 -2.2121
 3103TIP3    H230801   6.042   5.863  14.148 -1.9519 -0.4637  3.0579
 3104TIP3   OH230802   0.400   5.743  12.636 -0.3904  0.1383  0.3116
 3104TIP3    H130803   0.337   5.671  12.645  0.6032 -0.8036 -0.1642
 3104TIP3    H230804   0.347   5.822  12.653 -1.3261 -0.7186  1.6696
 3105TIP3   OH230805   3.070   4.739   0.160 -0.4806  0.5858 -0.8524
 3105TIP3    H130806   3.161   4.729   0.186 -0.8944  1.0461  0.8764
 3105TIP3    H230807   3.026   4.663   0.197 -1.0689  1.1804 -0.3083
 3106TIP3   OH230808   3.517   3.981   1.104 -0.1174  0.0300  0.2133
 3106TIP3    H130809   3.496   4.003   1.195 -0.2733 -0.0466  0.1955
 3106TIP3    H230810   3.504   4.062   1.056  0.2523  0.1462  0.3079
 3107TIP3   OH230811   4.736   1.524  14.346  0.3624 -0.0284  0.3448
 3107TIP3    H130812   4.809   1.554  14.401  1.7857 -0.8304 -1.0480
 3107TIP3    H230813   4.685   1.604  14.330  1.2916  0.6802  0.7925
 3108TIP3   OH230814   6.319   1.288  16.150 -0.1309  0.3441 -0.4140
 3108TIP3    H130815   6.236   1.243  16.167 -1.0713  0.5828 -3.6719
 3108TIP3    H230816   6.380   1.217  16.129  0.7006  0.1405  2.3222
 3109TIP3   OH230817   0.929   3.135  12.607 -0.3412  0.2442 -0.0960
 3109TIP3    H130818   0.923   3.044  12.577 -1.9009 -0.7688  2.8465
 3109TIP3    H230819   1.008   3.169  12.565  1.0413 -2.8813 -0.3155
 3110TIP3   OH230820   4.128   2.175  11.901  0.0993 -0.0874  0.0024
 3110TIP3    H130821   4.112   2.154  11.809  0.7144 -1.0445  0.0959
 3110TIP3    H230822   4.075   2.252  11.918  0.3166  0.3624 -1.2762
 3111TIP3   OH230823   3.937   5.561  12.728  0.1968 -0.1873 -0.3656
 3111TIP3    H130824   3.948   5.495  12.796 -1.2871  0.1957  0.2861
 3111TIP3    H230825   4.024   5.600  12.718  0.2872  0.3546  1.9484
 3112TIP3   OH230826   2.927   3.926  13.214  0.2620 -0.1759  0.1559
 3112TIP3    H130827   2.948   4.009  13.256 -0.5123 -0.0131  0.2470
 3112TIP3    H230828   2.985   3.920  13.139  1.5524 -0.3832  1.1425
 3113TIP3   OH230829   3.237   2.541   1.538 -0.3316 -0.2704 -0.6801
 3113TIP3    H130830   3.189   2.623   1.549 -0.6455 -0.5706  0.2492
 3113TIP3    H230831   3.262   2.515   1.627  0.5561 -0.7194 -1.0402
 3114TIP3   OH230832   5.537   1.894  15.798 -0.0590  0.3418 -0.0438
 3114TIP3    H130833   5.572   1.814  15.757 -1.7492 -0.6424  0.3401
 3114TIP3    H230834   5.442   1.885  15.791 -0.5339  0.0358  4.0945
 3115TIP3   OH230835   0.205   6.027   4.113  0.5763 -0.1121 -0.8632
 3115TIP3    H130836   0.118   6.012   4.151  0.4598  1.5949 -0.3702
 3115TIP3    H230837   0.189   6.092   4.044  1.4107 -0.0872 -1.0356
 3116TIP3   OH230838   1.242   1.133   1.743  0.1753  0.4545  0.2451
 3116TIP3    H130839   1.177   1.147   1.674  0.2664 -2.5688 -0.5783
 3116TIP3    H230840   1.292   1.057   1.715  1.3318  0.1203  2.8704
 3117TIP3   OH230841   5.504   4.042   3.268  0.4290  0.7605  0.1145
 3117TIP3    H130842   5.534   4.118   3.318  0.1935  0.9674 -0.0582
 3117TIP3    H230843   5.426   4.012   3.316 -1.4037  2.5303 -1.5259
 3118TIP3   OH230844   1.380   4.039   1.815 -0.0446 -0.3352  0.3709
 3118TIP3    H130845   1.337   3.960   1.784  0.7944 -0.3801 -0.7300
 3118TIP3    H230846   1.373   4.035   1.911 -1.9734 -0.6007  0.2509
 3119TIP3   OH230847   3.140   2.216  13.697 -0.6396 -0.5892 -0.3785
 3119TIP3    H130848   3.208   2.270  13.656 -0.9258  0.6506  0.7191
 3119TIP3    H230849   3.186   2.167  13.765 -0.8124  0.2561  0.3697
 3120TIP3   OH230850   1.976   2.224   6.132 -0.3619 -0.4739 -0.0361
 3120TIP3    H130851   1.978   2.306   6.182 -0.0907 -0.8882  0.6440
 3120TIP3    H230852   1.924   2.245   6.055  0.4305  0.5861 -0.3088
 3121TIP3   OH230853   1.712   0.272   6.083 -0.2704  0.0531  0.1625
 3121TIP3    H130854   1.774   0.309   6.146 -1.8432  1.8282  0.7749
 3121TIP3    H230855   1.638   0.245   6.137 -0.2013 -1.7097 -0.5848
 3122TIP3   OH230856   3.208   4.513   3.797  0.1965 -0.2185  0.5897
 3122TIP3    H130857   3.149   4.456   3.844 -2.6606  0.9129 -1.3574
 3122TIP3    H230858   3.163   4.532   3.714  3.0476  1.2041 -0.8023
 3123TIP3   OH230859   6.310   3.066  16.187  0.4131 -0.2736  0.5651
 3123TIP3    H130860   6.371   3.049  16.115  0.5903 -0.2303  0.7049
 3123TIP3    H230861   6.232   3.013  16.165  0.4113 -0.1506  0.2722
 3124TIP3   OH230862   2.467   0.545  11.053  0.0945 -0.0887 -0.3327
 3124TIP3    H130863   2.470   0.601  11.130  2.2312  0.5874 -0.8209
 3124TIP3    H230864   2.493   0.603  10.981  3.9465 -1.8478 -0.6383
 3125TIP3   OH230865   1.066   1.445   0.530  0.1283 -0.0282  0.0480
 3125TIP3    H130866   1.147   1.488   0.503  1.1084 -1.6864  0.2127
 3125TIP3    H230867   1.034   1.497   0.604  1.1698  0.5097  0.1316
 3126TIP3   OH230868   0.156   4.335   6.742 -0.0522 -0.8004  0.0318
 3126TIP3    H130869   0.248   4.315   6.757  0.0615 -2.4099 -2.2902
 3126TIP3    H230870   0.118   4.253   6.713 -1.8696  0.2151 -0.6255
 3127TIP3   OH230871   6.486   2.671  11.718  0.4374  0.3285 -0.7890
 3127TIP3    H130872   6.482   2.643  11.809  1.0556  1.3845 -0.4260
 3127TIP3    H230873   6.449   2.597  11.669  2.0857 -1.1585  0.1101
 3128TIP3   OH230874   0.471   1.614   6.109  0.2178 -0.3047  0.0312
 3128TIP3    H130875   0.413   1.567   6.169  0.9551 -0.1004  0.9219
 3128TIP3    H230876   0.550   1.561   6.106  0.2648 -0.2037 -0.6062
 3129TIP3   OH230877   3.278   4.736   2.568 -0.2882 -0.3185  0.7641
 3129TIP3    H130878   3.204   4.739   2.628 -2.1731  1.0493 -1.4331
 3129TIP3    H230879   3.242   4.764   2.484  2.0876 -2.3888 -1.1473
 3130TIP3   OH230880   0.984   0.124   0.087 -0.0080 -0.5393  0.8945
 3130TIP3    H130881   1.035   0.153   0.163 -0.1265  2.0422  0.0714
 3130TIP3    H230882   0.899   0.167   0.098  0.1823  0.3909 -0.9963
 3131TIP3   OH230883   3.973   1.060   2.349 -0.8193  0.1156  0.4991
 3131TIP3    H130884   4.050   1.057   2.293 -0.5063 -0.8241  0.9601
 3131TIP3    H230885   3.947   1.152   2.349 -0.0962  0.3332 -0.1904
 3132TIP3   OH230886   1.698   0.301   0.699  0.0887 -0.4036 -0.0070
 3132TIP3    H130887   1.616   0.309   0.747  0.3113  0.4465  0.2456
 3132TIP3    H230888   1.671   0.286   0.608 -0.3409 -2.8910  0.4549
 3133TIP3   OH230889   0.259   3.757   5.021 -0.4044 -0.1881  0.0028
 3133TIP3    H130890   0.194   3.823   5.043  0.7879  0.4403  1.8106
 3133TIP3    H230891   0.234   3.680   5.073 -1.2078 -0.8759 -1.3396
 3134TIP3   OH230892   1.036   5.472   5.644  0.5561  0.3293 -0.4351
 3134TIP3    H130893   1.072   5.561   5.646 -1.3094  1.1326 -0.8408
 3134TIP3    H230894   0.946   5.482   5.675  0.7641 -1.6777  0.9849
 3135TIP3   OH230895   3.844   3.110  13.174  0.5173 -0.0130  0.5626
 3135TIP3    H130896   3.835   3.190  13.226  1.7965 -0.7095  1.9396
 3135TIP3    H230897   3.877   3.140  13.090 -2.0761  1.2045 -0.1157
 3136TIP3   OH230898   0.263   2.965   1.855 -0.1755  0.3442 -0.5841
 3136TIP3    H130899   0.220   3.049   1.868  1.1728  0.7262  1.8547
 3136TIP3    H230900   0.203   2.901   1.894 -0.7005  0.2483 -1.4967
 3137TIP3   OH230901   0.317   5.917   1.984  0.1024  0.0564  0.0785
 3137TIP3    H130902   0.316   5.821   1.995  1.2664  0.1340  1.1227
 3137TIP3    H230903   0.248   5.948   2.042 -0.5170 -0.1639 -0.5313
 3138TIP3   OH230904   3.434   1.732  11.807 -0.3905  0.6551  0.4911
 3138TIP3    H130905   3.402   1.746  11.896  0.3730  1.2663  0.6852
 3138TIP3    H230906   3.438   1.820  11.770 -1.3626  0.3495 -0.4001
 3139TIP3   OH230907   5.020   3.724   0.182  0.1616  0.6180  0.6971
 3139TIP3    H130908   5.074   3.717   0.104  0.6475 -2.3596  1.1739
 3139TIP3    H230909   5.006   3.818   0.194  3.8121  1.4363 -0.3685
 3140TIP3   OH230910   0.801   6.054  15.236 -0.0712  0.2927 -0.2497
 3140TIP3    H130911   0.800   6.014  15.323  2.3944  1.0968  0.2215
 3140TIP3    H230912   0.753   6.136  15.247  1.4323  1.0864  0.7866
 3141TIP3   OH230913   3.909   5.712   2.147  0.6916 -0.3856 -0.1364
 3141TIP3    H130914   3.825   5.666   2.146 -0.0789  0.8188 -3.2983
 3141TIP3    H230915   3.892   5.789   2.202 -0.1510 -0.4015 -0.3518
 3142TIP3   OH230916   6.011   0.596  13.546  0.2394  0.1737 -0.2050
 3142TIP3    H130917   6.013   0.675  13.599 -1.3660 -0.3728  0.7443
 3142TIP3    H230918   6.074   0.613  13.475  1.6661  1.3355  1.2607
 3143TIP3   OH230919   5.073   1.822  15.055  0.4821 -0.4639 -0.0718
 3143TIP3    H130920   5.062   1.917  15.056 -1.9289 -0.3824 -5.1138
 3143TIP3    H230921   5.168   1.809  15.058  0.8912  2.0775  0.3322
 3144TIP3   OH230922   0.352   0.961  14.084 -0.6065  0.3371 -0.8494
 3144TIP3    H130923   0.386   0.936  13.998 -1.8133 -0.9042 -1.0048
 3144TIP3    H230924   0.310   0.882  14.117 -1.2805  1.1506  0.3231
 3145TIP3   OH230925   0.734   3.475  16.082  0.1205 -0.0883  0.3318
 3145TIP3    H130926   0.745   3.553  16.137 -3.4101  0.8611 -0.0475
 3145TIP3    H230927   0.772   3.404  16.134 -1.5898  1.0001  3.3837
 3146TIP3   OH230928   1.034   6.355  14.133 -0.2372 -0.1691  0.1936
 3146TIP3    H130929   0.965   6.311  14.084  0.2499 -0.3602 -0.3322
 3146TIP3    H230930   1.116   6.324  14.093  0.1554 -0.0145  0.8614
 3147TIP3   OH230931   5.705   4.455  11.226 -0.6672 -0.4125 -0.1049
 3147TIP3    H130932   5.747   4.525  11.276 -1.4575  0.6264 -0.8514
 3147TIP3    H230933   5.681   4.496  11.143  0.2650 -1.9899 -1.2071
 3148TIP3   OH230934   4.682   2.756   6.548 -1.0480 -0.1583 -0.3994
 3148TIP3    H130935   4.733   2.702   6.488 -0.7969  0.5541 -0.8417
 3148TIP3    H230936   4.617   2.696   6.584  0.7873 -1.3596  1.0507
 3149TIP3   OH230937   0.829   3.995   2.522  0.7080  0.5245  0.3681
 3149TIP3    H130938   0.841   3.904   2.551  2.6014  0.9274  0.9912
 3149TIP3    H230939   0.861   3.995   2.431 -1.7417  0.0572 -0.5584
 3150TIP3   OH230940   0.446   6.531   2.224 -0.0699 -0.3154 -0.5599
 3150TIP3    H130941   0.351   6.543   2.216  0.2198  1.7301 -1.6900
 3150TIP3    H230942   0.462   6.523   2.318 -1.0763  2.9206 -0.0040
 3151TIP3   OH230943   5.057   5.701  15.487  0.2390  0.5014  0.5585
 3151TIP3    H130944   5.048   5.612  15.451 -0.1997  0.4015  0.9048
 3151TIP3    H230945   5.133   5.737  15.442  0.3741 -0.0233  0.3533
 3152TIP3   OH230946   5.141   2.987  15.392 -0.2316 -0.3839  0.2972
 3152TIP3    H130947   5.135   3.067  15.339  4.5727 -0.3774 -0.6924
 3152TIP3    H230948   5.151   2.917  15.328  1.8307 -0.8734  1.0938
 3153TIP3   OH230949   5.683   4.568  13.959  0.2727  0.3243 -0.3490
 3153TIP3    H130950   5.700   4.524  14.042  1.0241  2.2245  0.5842
 3153TIP3    H230951   5.742   4.526  13.897 -0.6322 -1.4456 -0.0614
 3154TIP3   OH230952   1.162   4.021   3.048  0.0235 -0.5163 -0.3687
 3154TIP3    H130953   1.135   4.078   3.120  0.5359 -1.1701  0.3583
 3154TIP3    H230954   1.084   3.968   3.028  0.3304 -1.4469  0.8014
 3155TIP3   OH230955   6.694   6.025  12.648  0.0916 -0.3673 -0.1301
 3155TIP3    H130956   6.702   6.099  12.708 -0.7646 -0.9756  0.7892
 3155TIP3    H230957   6.599   6.018  12.632  0.3749  0.6454 -2.7211
 3156TIP3   OH230958   1.952   4.565   2.642  0.6661  0.3922  0.1118
 3156TIP3    H130959   1.885   4.549   2.709  0.1656  0.0074 -0.4640
 3156TIP3    H230960   1.938   4.656   2.616  2.2170  1.2251  1.9802
 3157TIP3   OH230961   4.323   0.858   3.417 -0.4974  0.1953  0.4732
 3157TIP3    H130962   4.391   0.912   3.378  0.1783  0.5298  2.0485
 3157TIP3    H230963   4.352   0.768   3.402  1.3788  0.3169  2.8111
 3158TIP3   OH230964   6.157   2.581  13.310  0.5293  0.1427 -0.3054
 3158TIP3    H130965   6.101   2.580  13.232 -0.1566 -0.1109  0.1843
 3158TIP3    H230966   6.109   2.532  13.375  0.7679  0.9705  0.5165
 3159TIP3   OH230967   3.387   6.445   2.332  0.0734  0.0777 -0.1291
 3159TIP3    H130968   3.397   6.503   2.256 -2.9117  0.2035 -0.5504
 3159TIP3    H230969   3.414   6.359   2.300  0.3923  0.4377 -0.8516
 3160TIP3   OH230970   3.131   3.854   2.487 -0.2255 -0.2904  0.8852
 3160TIP3    H130971   3.210   3.904   2.466 -0.4274 -0.1902  0.3283
 3160TIP3    H230972   3.162   3.764   2.496  0.0571 -0.1475  1.3643
 3161TIP3   OH230973   6.561   0.815  14.551  0.2821  0.4552 -0.5868
 3161TIP3    H130974   6.491   0.879  14.541  0.9509  1.4595  0.7693
 3161TIP3    H230975   6.636   0.855  14.507  0.6846  0.6056  0.2133
 3162TIP3   OH230976   3.867   6.554   5.457 -0.5549  0.0126  0.4608
 3162TIP3    H130977   3.843   6.498   5.531 -0.2515 -0.0830  0.4853
 3162TIP3    H230978   3.783   6.579   5.419 -0.7180  0.1267  0.8859
 3163TIP3   OH230979   3.401   3.901  13.010  0.6742 -0.4427 -0.3990
 3163TIP3    H130980   3.351   3.843  12.953 -0.2275  1.3322 -1.5179
 3163TIP3    H230981   3.361   3.891  13.096 -0.4924 -0.3181 -0.9119
 3164TIP3   OH230982   1.082   5.577   5.223  0.1377  0.3148  0.3929
 3164TIP3    H130983   1.101   5.503   5.281  1.1957  0.9960  0.9427
 3164TIP3    H230984   1.167   5.600   5.184 -0.3194  0.7380 -0.3841
 3165TIP3   OH230985   2.645   3.504  14.879  0.1444  0.2119 -0.0582
 3165TIP3    H130986   2.622   3.445  14.808 -1.0942 -0.1376  0.5985
 3165TIP3    H230987   2.682   3.581  14.836  1.5858 -0.9189 -0.9420
 3166TIP3   OH230988   3.185   1.206  14.351 -0.0875 -0.4514 -0.4672
 3166TIP3    H130989   3.195   1.245  14.438 -0.4399 -0.1280 -0.5685
 3166TIP3    H230990   3.094   1.177  14.348 -0.1631 -0.1819 -0.8405
 3167TIP3   OH230991   5.841   2.610  14.881  0.3879 -0.1374  1.2537
 3167TIP3    H130992   5.783   2.596  14.957  1.1827  3.2530  2.6748
 3167TIP3    H230993   5.921   2.646  14.919  1.2199  0.7135 -1.1582
 3168TIP3   OH230994   5.290   3.954  17.157  0.1976 -0.5432  0.1806
 3168TIP3    H130995   5.237   4.013  17.210 -0.8703 -1.8088  0.5707
 3168TIP3    H230996   5.293   3.873  17.207  2.9723 -0.3817  0.4034
 3169TIP3   OH230997   0.768   5.339  10.529 -0.4885  0.4181  0.2667
 3169TIP3    H130998   0.839   5.386  10.484 -0.2448 -2.0025 -2.0925
 3169TIP3    H230999   0.781   5.359  10.621  0.5461  3.6071 -0.4449
 3170TIP3   OH231000   6.375   2.769  16.579 -0.1692  0.2204 -0.5966
 3170TIP3    H131001   6.402   2.791  16.490 -0.9133 -0.9477 -1.1323
 3170TIP3    H231002   6.339   2.850  16.614  0.0532  0.6671 -1.3882
 3171TIP3   OH231003   5.766   4.788  13.773 -0.1835  0.0120 -0.0402
 3171TIP3    H131004   5.737   4.871  13.735  0.8830  1.1382  1.4855
 3171TIP3    H231005   5.686   4.735  13.778 -0.6246  0.3509 -2.3855
 3172TIP3   OH231006   4.784   4.718   1.142 -0.6824 -0.0916 -0.0571
 3172TIP3    H131007   4.861   4.736   1.197 -0.0879  0.9534 -1.1886
 3172TIP3    H231008   4.710   4.739   1.199 -0.0605  2.2730  0.0033
 3173TIP3   OH231009   5.925   3.173   2.432  0.5559 -0.4587  0.2744
 3173TIP3    H131010   6.010   3.133   2.447  1.0752  0.6275  0.2881
 3173TIP3    H231011   5.875   3.151   2.511  0.7910 -1.1601  0.2344
 3174TIP3   OH231012   1.103   6.335  13.115 -0.0110  0.2928  0.1313
 3174TIP3    H131013   1.160   6.307  13.187 -1.6189 -1.1768  0.9013
 3174TIP3    H231014   1.094   6.430  13.127  3.3541  0.8535 -0.8871
 3175TIP3   OH231015   0.148   6.656   0.206  0.4568  0.1007  0.2085
 3175TIP3    H131016   0.092   6.729   0.179  1.0281  0.3879 -0.2227
 3175TIP3    H231017   0.129   6.587   0.143  2.1862  0.9552 -1.3343
 3176TIP3   OH231018   1.060   1.959  13.192 -0.0626  0.2449  0.8078
 3176TIP3    H131019   1.002   1.885  13.211  1.3660 -0.6902  1.6639
 3176TIP3    H231020   1.140   1.920  13.159  0.2811  1.4890  0.1020
 3177TIP3   OH231021   1.542   0.167   5.645 -0.1768  0.9631 -0.1999
 3177TIP3    H131022   1.516   0.209   5.727  0.2317  1.8455 -0.5043
 3177TIP3    H231023   1.636   0.186   5.638  0.0027  0.0481 -0.3897
 3178TIP3   OH231024   1.771   4.266  15.030 -0.3073 -0.0589 -0.6534
 3178TIP3    H131025   1.714   4.209  15.081 -0.6026 -1.3986 -2.3729
 3178TIP3    H231026   1.833   4.207  14.988 -0.5422  0.8359 -2.4039
 3179TIP3   OH231027   2.435   4.681  12.515  0.6588  0.2639  0.2178
 3179TIP3    H131028   2.464   4.692  12.606  0.5411 -1.3895  0.4987
 3179TIP3    H231029   2.347   4.717  12.513  1.0845  1.3462  0.4630
 3180TIP3   OH231030   3.627   2.767   0.417 -0.0966  0.0126 -0.2168
 3180TIP3    H131031   3.698   2.768   0.353 -0.0472  0.9612 -0.1610
 3180TIP3    H231032   3.559   2.712   0.377  0.1016  0.2567 -0.8896
 3181TIP3   OH231033   5.716   4.879  16.581 -0.0925  0.4018  0.4367
 3181TIP3    H131034   5.673   4.918  16.505 -2.0042 -3.0259 -0.4533
 3181TIP3    H231035   5.671   4.916  16.656 -1.2885  0.5125 -0.3122
 3182TIP3   OH231036   6.513   5.444   4.692  0.2703 -0.2915  0.4414
 3182TIP3    H131037   6.605   5.424   4.679  0.4977  1.2883 -0.7034
 3182TIP3    H231038   6.488   5.394   4.769  1.7451 -1.7131  0.0369
 3183TIP3   OH231039   2.409   3.445  12.605 -0.0307 -0.5421  0.6327
 3183TIP3    H131040   2.498   3.415  12.588 -0.3063 -0.6810 -0.7081
 3183TIP3    H231041   2.416   3.540  12.609 -0.0389 -0.4233 -1.1729
 3184TIP3   OH231042   1.104   2.262  14.975  0.6207  0.2222 -0.2051
 3184TIP3    H131043   1.189   2.279  14.934  0.6054 -0.2817 -0.4498
 3184TIP3    H231044   1.040   2.273  14.905  0.7951 -3.2478 -1.0487
 3185TIP3   OH231045   2.642   1.931   1.149 -0.5646  0.1761 -0.1190
 3185TIP3    H131046   2.565   1.986   1.160 -0.0225  1.2277 -1.2795
 3185TIP3    H231047   2.646   1.914   1.055 -0.2227 -1.1401  0.1136
 3186TIP3   OH231048   3.096   5.901  11.023 -0.2141 -0.2733 -0.0197
 3186TIP3    H131049   3.012   5.885  10.981 -0.0645  1.0921 -0.8933
 3186TIP3    H231050   3.083   5.982  11.073  0.5573 -0.0829 -0.1115
 3187TIP3   OH231051   5.364   6.780  13.632 -0.2966 -1.0193  0.2163
 3187TIP3    H131052   5.459   6.776  13.620 -0.2245 -0.1550  0.4784
 3187TIP3    H231053   5.329   6.740  13.552  0.1943  4.4991 -3.2549
 3188TIP3   OH231054   2.432   3.312   5.468  0.1053 -0.3106  0.1436
 3188TIP3    H131055   2.442   3.320   5.373 -0.4473  0.2972  0.1323
 3188TIP3    H231056   2.498   3.247   5.493  1.9836  1.3326 -0.3237
 3189TIP3   OH231057   2.115   6.477  12.517 -0.4692 -0.7038 -0.6152
 3189TIP3    H131058   2.192   6.530  12.495 -0.6207 -1.0608 -2.0426
 3189TIP3    H231059   2.069   6.465  12.435 -0.5298 -2.9264 -0.3148
 3190TIP3   OH231060   5.235   1.575   3.916  0.5335 -0.2248  0.2539
 3190TIP3    H131061   5.189   1.563   3.833  0.9518 -0.9153  0.1162
 3190TIP3    H231062   5.272   1.489   3.936  1.7191  0.2952  0.3934
 3191TIP3   OH231063   0.715   3.142   3.253 -0.2096 -0.6716 -0.4660
 3191TIP3    H131064   0.655   3.186   3.314 -0.9088  1.1015 -2.3205
 3191TIP3    H231065   0.793   3.125   3.305 -0.1680  2.2010  0.5878
 3192TIP3   OH231066   5.724   0.471   5.437  0.3870  0.1789  0.1381
 3192TIP3    H131067   5.764   0.385   5.428  0.0661  0.1641 -1.3461
 3192TIP3    H231068   5.744   0.516   5.355 -1.9001  0.4560 -0.3375
 3193TIP3   OH231069   2.707   4.978   1.495  0.6921  0.1336 -0.2794
 3193TIP3    H131070   2.727   5.042   1.563 -0.8114  0.6048 -0.2461
 3193TIP3    H231071   2.790   4.968   1.446  1.3756  0.9026  0.6805
 3194TIP3   OH231072   4.832   5.347   1.986  0.2872 -0.7309  0.5477
 3194TIP3    H131073   4.893   5.280   1.955  1.2535  0.8920 -1.3077
 3194TIP3    H231074   4.811   5.399   1.907 -0.0834  1.3697  1.9377
 3195TIP3   OH231075   0.420   2.487  17.270 -0.3335  0.4129 -0.4033
 3195TIP3    H131076   0.508   2.496  17.306 -0.8678 -0.5717  1.2621
 3195TIP3    H231077   0.381   2.416  17.320 -2.3063  1.2724 -0.6447
 3196TIP3   OH231078   1.712   6.033  17.291 -0.0413 -0.1979  0.6320
 3196TIP3    H131079   1.671   6.071  17.369  0.5469 -1.9853  1.8470
 3196TIP3    H231080   1.740   5.946  17.317  0.9199 -0.5540 -1.3550
 3197TIP3   OH231081   3.487   1.028   1.669  0.0799 -0.1405 -1.0025
 3197TIP3    H131082   3.410   1.080   1.645 -0.3045 -0.9368 -1.5804
 3197TIP3    H231083   3.560   1.069   1.623 -0.1170  0.2275 -0.9856
 3198TIP3   OH231084   6.098   2.687   1.989 -0.0132 -0.1795 -0.8860
 3198TIP3    H131085   6.072   2.773   1.956 -1.7595  0.4289  1.7603
 3198TIP3    H231086   6.192   2.695   2.007 -0.6979  2.5229  2.6141
 3199TIP3   OH231087   4.590   3.999  12.370 -0.3520  0.5208 -0.0745
 3199TIP3    H131088   4.539   3.918  12.361 -1.3865  0.9912  1.2293
 3199TIP3    H231089   4.555   4.041  12.449  0.7069  1.8623 -0.2775
 3200TIP3   OH231090   3.552   4.316  16.963  0.2479  0.0636  0.3506
 3200TIP3    H131091   3.640   4.352  16.952  0.1320  1.2960  2.7075
 3200TIP3    H231092   3.497   4.393  16.974 -0.2910 -0.6412  3.8762
 3201TIP3   OH231093   1.712   5.276   0.644 -0.0277 -0.4326 -0.4613
 3201TIP3    H131094   1.683   5.365   0.624  0.9597 -0.2547 -1.1682
 3201TIP3    H231095   1.736   5.278   0.736  0.8639  0.2907 -0.6970
 3202TIP3   OH231096   4.486   5.011   5.171  0.3340 -0.2527 -0.1348
 3202TIP3    H131097   4.454   4.970   5.252  1.0695  0.8590  0.7544
 3202TIP3    H231098   4.493   4.939   5.109  1.5068 -1.4949  1.3416
 3203TIP3   OH231099   1.885   2.241  12.157 -0.8797 -0.1662 -0.3489
 3203TIP3    H131100   1.846   2.231  12.070  1.0631 -1.9771 -1.1111
 3203TIP3    H231101   1.861   2.161  12.203 -0.9374  0.2736  0.4081
 3204TIP3   OH231102   3.107   4.022   3.822  0.3480 -0.0128  0.1777
 3204TIP3    H131103   3.083   4.112   3.845  1.5806  0.3343  0.2000
 3204TIP3    H231104   3.137   4.027   3.731  1.5609 -0.1452  0.5448
 3205TIP3   OH231105   0.037   4.928   1.147 -0.4349 -0.1130  0.3054
 3205TIP3    H131106  -0.001   4.931   1.059 -1.5087  1.4339  0.7844
 3205TIP3    H231107   0.054   4.835   1.162  0.9550 -0.3022 -1.9964
 3206TIP3   OH231108   4.756   6.422  11.343  0.6662 -0.3317 -0.0850
 3206TIP3    H131109   4.679   6.475  11.323 -0.0403 -1.7348 -1.3417
 3206TIP3    H231110   4.801   6.411  11.258  0.1365 -2.6286 -0.1526
 3207TIP3   OH231111   4.751   4.708  15.715 -0.0256 -0.4558  1.0948
 3207TIP3    H131112   4.832   4.757  15.698  0.7534 -1.8906  0.4438
 3207TIP3    H231113   4.695   4.770  15.761 -0.0962  1.8745 -1.8469
 3208TIP3   OH231114   1.736   3.718   1.478 -0.0135 -0.0204 -0.3813
 3208TIP3    H131115   1.724   3.805   1.439 -3.5650 -0.4698 -0.5927
 3208TIP3    H231116   1.782   3.736   1.561  0.4016  1.8730 -0.9576
 3209TIP3   OH231117   6.310   1.076  11.799 -0.0155  0.5285  0.0118
 3209TIP3    H131118   6.258   0.997  11.815  2.4448 -1.8134 -2.4914
 3209TIP3    H231119   6.352   1.093  11.884 -1.6647  0.0668  0.9748
 3210TIP3   OH231120   6.006   5.516   6.284  0.2367 -0.3677 -0.4361
 3210TIP3    H131121   6.023   5.605   6.317 -0.4709 -0.9426  1.6511
 3210TIP3    H231122   6.088   5.469   6.298  0.9275  0.1428 -2.4311
 3211TIP3   OH231123   5.079   3.821  11.125  0.3690  0.1862  0.1301
 3211TIP3    H131124   5.009   3.793  11.067  1.7716 -1.9921 -0.6508
 3211TIP3    H231125   5.103   3.908  11.094 -2.1527  1.1508  0.6584
 3212TIP3   OH231126   3.424   3.288   4.296 -0.0552  0.0097  0.2208
 3212TIP3    H131127   3.445   3.206   4.341  1.5578 -0.8490 -1.9404
 3212TIP3    H231128   3.501   3.343   4.309  1.2539 -0.9154 -2.8010
 3213TIP3   OH231129   3.045   3.069   1.536  0.2480  0.3000  0.7949
 3213TIP3    H131130   2.962   3.069   1.584 -0.8246  1.3948 -0.9436
 3213TIP3    H231131   3.073   3.161   1.539  1.0013  0.0774  0.6911
 3214TIP3   OH231132   6.490   0.421  11.571 -0.3310  0.2797  0.5496
 3214TIP3    H131133   6.458   0.413  11.480 -0.6232 -0.1074  0.6817
 3214TIP3    H231134   6.411   0.441  11.622 -0.1975  0.3066  0.7434
 3215TIP3   OH231135   2.870   3.512   5.551 -0.0484  0.7744 -0.3928
 3215TIP3    H131136   2.833   3.476   5.631 -1.7587 -0.1038 -1.5206
 3215TIP3    H231137   2.947   3.457   5.534 -1.0108 -0.5710 -0.5697
 3216TIP3   OH231138   2.749   5.717  11.915 -0.1654 -0.0061 -0.1068
 3216TIP3    H131139   2.821   5.748  11.969  1.9518  0.3361 -2.8537
 3216TIP3    H231140   2.725   5.792  11.861  0.3225 -1.1784 -2.0695
 3217TIP3   OH231141   6.178   2.177   1.870 -0.0131  0.0955  0.2338
 3217TIP3    H131142   6.186   2.124   1.950  1.7110 -1.0769 -0.6515
 3217TIP3    H231143   6.104   2.139   1.823 -0.3982  0.1387  0.7967
 3218TIP3   OH231144   6.027   4.746  13.906  0.1168  0.4355 -0.0168
 3218TIP3    H131145   6.025   4.741  14.002 -1.4976 -1.9579 -0.0981
 3218TIP3    H231146   5.938   4.770  13.881  0.2258 -0.0824 -0.9516
 3219TIP3   OH231147   6.050   4.922  14.615  0.3992 -0.0571 -0.0637
 3219TIP3    H131148   5.981   4.871  14.573 -0.8124  1.4792 -0.0526
 3219TIP3    H231149   6.119   4.859  14.634 -0.5295 -1.4422 -1.1023
 3220TIP3   OH231150   3.972   0.555   2.574 -0.3140 -0.4853 -0.4018
 3220TIP3    H131151   4.064   0.541   2.595  0.2249 -1.5446 -3.0332
 3220TIP3    H231152   3.967   0.647   2.550  0.1788 -0.5118 -0.6272
 3221TIP3   OH231153   5.911   2.290  12.063 -0.0641 -0.0329 -0.0270
 3221TIP3    H131154   5.880   2.218  12.119 -0.8428 -0.1254 -0.5575
 3221TIP3    H231155   5.909   2.254  11.975 -1.3948  0.9238 -0.4213
 3222TIP3   OH231156   1.324   4.833  14.671  0.1101  0.4384  0.2181
 3222TIP3    H131157   1.297   4.918  14.708  2.3242  0.9041  0.9208
 3222TIP3    H231158   1.342   4.778  14.747 -1.0696 -0.6288 -0.2371
 3223TIP3   OH231159   0.459   1.025   2.622  0.2782  0.4060  0.4320
 3223TIP3    H131160   0.509   0.952   2.657  0.0548  0.7762  1.5454
 3223TIP3    H231161   0.422   0.991   2.540 -1.2980 -1.3488  1.7726
 3224TIP3   OH231162   3.218   0.192   5.858 -0.2839 -0.4295  0.7190
 3224TIP3    H131163   3.201   0.279   5.821  0.2777  0.1092  1.6714
 3224TIP3    H231164   3.289   0.206   5.921 -1.0815 -1.3106  1.8710
 3225TIP3   OH231165   2.679   5.834  16.794 -0.2262  0.4921  0.0700
 3225TIP3    H131166   2.656   5.775  16.722 -0.5998  0.0182  0.5667
 3225TIP3    H231167   2.711   5.776  16.863 -1.6943  0.7405  0.9979
 3226TIP3   OH231168   1.194   0.096   1.534 -0.1245  0.0905 -0.1742
 3226TIP3    H131169   1.156   0.090   1.622 -0.1959 -0.7822 -0.2640
 3226TIP3    H231170   1.280   0.135   1.548 -0.2362  0.1928  0.2559
 3227TIP3   OH231171   4.801   2.514  15.365  0.5938  0.1874 -1.0664
 3227TIP3    H131172   4.892   2.488  15.373  0.3181 -0.3385  0.9443
 3227TIP3    H231173   4.803   2.609  15.364  1.1882  0.1754 -1.6869
 3228TIP3   OH231174   2.246   6.281   2.358 -0.6414 -0.0956 -0.3579
 3228TIP3    H131175   2.340   6.301   2.356  0.1771 -3.2941 -0.2130
 3228TIP3    H231176   2.212   6.333   2.430  1.5590 -0.5448  1.1098
 3229TIP3   OH231177   3.653   1.208   3.585 -0.2869  0.2874  0.4267
 3229TIP3    H131178   3.707   1.225   3.508 -2.0194 -1.0453 -1.1521
 3229TIP3    H231179   3.699   1.138   3.631 -0.0550 -0.0356 -0.2831
 3230TIP3   OH231180   2.286   0.820  15.801 -0.2671  0.6141  0.3721
 3230TIP3    H131181   2.286   0.916  15.807 -0.5330  0.5309  1.9871
 3230TIP3    H231182   2.245   0.802  15.716  0.3230  1.9314 -0.2262
 3231TIP3   OH231183   2.579   6.664  12.543  0.3125  0.0797 -0.2737
 3231TIP3    H131184   2.591   6.570  12.530 -1.0762 -0.2626  0.6630
 3231TIP3    H231185   2.488   6.680  12.517 -0.0610  0.7712  1.3297
 3232TIP3   OH231186   6.203   3.518  12.662 -0.4797 -0.0622  0.3368
 3232TIP3    H131187   6.182   3.607  12.691 -0.3084 -0.6237  2.3830
 3232TIP3    H231188   6.295   3.521  12.637 -0.5300  0.3896  0.2064
 3233TIP3   OH231189   2.413   4.972   2.817 -0.4111 -0.2688 -0.0175
 3233TIP3    H131190   2.503   4.959   2.846  0.1633  1.7959 -0.7483
 3233TIP3    H231191   2.419   5.038   2.748 -2.0151 -2.9923 -3.0221
 3234TIP3   OH231192   1.864   1.258  16.917 -0.6299  0.0166 -0.5319
 3234TIP3    H131193   1.856   1.164  16.901 -0.4386 -0.0425 -0.2898
 3234TIP3    H231194   1.855   1.298  16.831 -0.0223 -0.2741 -0.7411
 3235TIP3   OH231195   4.599   3.327  15.727  0.0703 -0.0638 -0.1222
 3235TIP3    H131196   4.691   3.304  15.716  0.6984  1.8685  0.6153
 3235TIP3    H231197   4.600   3.418  15.758 -2.0663 -0.1365  0.3747
 3236TIP3   OH231198   6.593   1.378  16.313  0.2761 -0.5250 -0.4850
 3236TIP3    H131199   6.543   1.359  16.233  1.3959 -0.0913 -1.3188
 3236TIP3    H231200   6.641   1.297  16.331 -0.0101 -0.6370 -0.2261
 3237TIP3   OH231201   2.558   0.285   2.032 -0.7151 -0.2648 -0.5596
 3237TIP3    H131202   2.555   0.190   2.049 -3.0203 -0.2067 -0.2859
 3237TIP3    H231203   2.625   0.317   2.092  0.7333 -1.8036 -1.2584
 3238TIP3   OH231204   1.978   6.242   3.507  0.1568  0.2933  0.4535
 3238TIP3    H131205   1.932   6.324   3.521 -0.7945 -0.3682  1.4205
 3238TIP3    H231206   1.947   6.211   3.422 -1.7066 -0.4354  1.3596
 3239TIP3   OH231207   1.438   1.475  13.460  0.8717 -0.4379 -0.4540
 3239TIP3    H131208   1.392   1.519  13.532 -0.8165 -3.3194  0.4007
 3239TIP3    H231209   1.487   1.404  13.503  0.9132 -1.3972 -1.9938
 3240TIP3   OH231210   0.794   3.732   6.242 -0.1621 -0.1780  0.3401
 3240TIP3    H131211   0.724   3.749   6.179 -0.2133 -2.1888 -0.2025
 3240TIP3    H231212   0.748   3.709   6.323 -0.0921  0.7369  0.6565
 3241TIP3   OH231213   5.713   4.715   6.701 -0.7791 -0.4062 -0.2742
 3241TIP3    H131214   5.745   4.626   6.719  2.1097  0.7064  0.6711
 3241TIP3    H231215   5.711   4.758   6.787 -2.2212  0.4339 -0.7038
 3242TIP3   OH231216   0.042   3.945   3.059 -0.1140 -0.0623 -0.0108
 3242TIP3    H131217   0.068   3.925   2.969  0.0130 -0.7505  0.1762
 3242TIP3    H231218   0.000   4.031   3.053  1.8428  0.9140 -0.3658
 3243TIP3   OH231219   1.121   3.701   2.408 -0.3031 -0.6969  0.2240
 3243TIP3    H131220   1.163   3.764   2.349  0.8085 -0.9475  0.7232
 3243TIP3    H231221   1.038   3.743   2.431  1.1360  1.4516  1.9107
 3244TIP3   OH231222   1.824   3.905  15.862 -0.2343  0.3029  0.8268
 3244TIP3    H131223   1.798   3.907  15.770 -0.9260 -2.2783  0.8940
 3244TIP3    H231224   1.891   3.973  15.869 -1.8944  2.2704 -0.9757
 3245TIP3   OH231225   4.974   3.377   1.395 -0.3745  0.2091  0.1609
 3245TIP3    H131226   4.996   3.311   1.330 -0.9728  0.2592 -0.0940
 3245TIP3    H231227   4.965   3.458   1.345  3.1200  1.1505  0.7719
 3246TIP3   OH231228   2.485   5.219  15.338 -0.0802  0.4480 -0.2299
 3246TIP3    H131229   2.524   5.196  15.422 -0.1659  0.8504 -0.0741
 3246TIP3    H231230   2.448   5.307  15.353 -2.3820 -0.4995  0.0947
 3247TIP3   OH231231   3.908   4.069  16.437 -0.4146 -0.7642 -0.0610
 3247TIP3    H131232   3.871   4.078  16.525 -0.7602 -1.7660 -0.0890
 3247TIP3    H231233   3.922   4.159  16.407  3.0156 -0.2971  2.3648
 3248TIP3   OH231234   1.145   5.009   2.229 -0.3304 -0.1583 -0.1136
 3248TIP3    H131235   1.190   4.934   2.190  0.6600  0.3124  0.0872
 3248TIP3    H231236   1.215   5.074   2.244 -0.8941  0.1861  1.1799
 3249TIP3   OH231237   2.770   0.700   2.012  0.2699  0.2158 -0.6737
 3249TIP3    H131238   2.734   0.755   1.942 -1.4342  0.6071  0.4663
 3249TIP3    H231239   2.740   0.740   2.093 -0.1115 -1.7584  0.2309
 3250TIP3   OH231240   1.785   5.815   3.255 -0.5521 -0.1031  0.0968
 3250TIP3    H131241   1.778   5.761   3.334  0.3420 -0.7488 -0.2592
 3250TIP3    H231242   1.878   5.814   3.233 -0.6606  0.8165 -0.4550
 3251TIP3   OH231243   1.784   5.707   1.014 -0.2300  0.0131 -0.2727
 3251TIP3    H131244   1.760   5.615   1.004 -1.7879  0.4702 -0.9165
 3251TIP3    H231245   1.825   5.712   1.101  2.5512 -1.7965 -1.3632
 3252TIP3   OH231246   0.769   5.915  16.537  0.1076  0.3494  0.1480
 3252TIP3    H131247   0.865   5.917  16.539  0.0900  0.5173  0.9969
 3252TIP3    H231248   0.746   5.970  16.462  0.6828 -0.1511 -0.4091
 3253TIP3   OH231249   5.966   0.185  16.482  0.3214 -0.1809 -0.1407
 3253TIP3    H131250   5.955   0.127  16.406  0.2568  1.1852 -1.2212
 3253TIP3    H231251   6.058   0.210  16.479  0.8236 -1.6583  1.4373
 3254TIP3   OH231252   1.967   3.967   3.550  0.0439 -0.2938 -0.3339
 3254TIP3    H131253   1.884   3.940   3.510 -0.6099  1.0457  0.0374
 3254TIP3    H231254   1.943   3.993   3.639  0.5134  1.7834 -0.7593
 3255TIP3   OH231255   4.841   4.657   6.246 -0.0006  0.2891  0.1714
 3255TIP3    H131256   4.782   4.732   6.240 -2.0226 -1.2045  0.6065
 3255TIP3    H231257   4.825   4.621   6.333 -0.5899 -1.8255 -0.7481
 3256TIP3   OH231258   1.255   4.183  12.726  0.3409 -0.2224 -0.3858
 3256TIP3    H131259   1.309   4.178  12.805 -0.6438 -0.4625  0.2951
 3256TIP3    H231260   1.232   4.092  12.707  0.7438 -0.1852 -1.0814
 3257TIP3   OH231261   0.637   6.423   4.708 -0.9842  0.0942 -0.1168
 3257TIP3    H131262   0.635   6.366   4.631  0.9941 -1.6567  1.0085
 3257TIP3    H231263   0.670   6.506   4.675  1.0042 -0.9815 -1.0667
 3258TIP3   OH231264   1.390   5.350  13.440 -0.1082  0.1490  0.0617
 3258TIP3    H131265   1.413   5.425  13.384  0.8825  0.5632  0.9925
 3258TIP3    H231266   1.471   5.328  13.485 -0.6854 -0.7411  0.6984
 3259TIP3   OH231267   5.849   0.577   1.338  0.2167 -0.3718  0.8449
 3259TIP3    H131268   5.808   0.560   1.254  1.5632  0.2891  0.0249
 3259TIP3    H231269   5.823   0.503   1.393  0.6494 -1.6684 -0.6348
 3260TIP3   OH231270   3.105   4.616  15.080  0.3008 -0.1270 -0.4406
 3260TIP3    H131271   3.142   4.580  15.160 -2.0012  0.6769  1.0936
 3260TIP3    H231272   3.162   4.691  15.060  2.2314 -1.6229 -0.9317
 3261TIP3   OH231273   4.642   0.380  10.512 -0.7075 -0.3686 -0.8428
 3261TIP3    H131274   4.629   0.295  10.470 -0.3373 -0.1849 -1.3393
 3261TIP3    H231275   4.577   0.437  10.471 -0.8510 -0.3739 -0.6220
 3262TIP3   OH231276   3.879   3.711   3.509  0.1120  0.1633 -0.1534
 3262TIP3    H131277   3.930   3.788   3.483 -1.3997  1.2934  0.0957
 3262TIP3    H231278   3.816   3.744   3.573  0.5380 -1.6279  1.2885
 3263TIP3   OH231279   3.158   0.712  15.448  0.0109 -0.0323  0.4502
 3263TIP3    H131280   3.111   0.783  15.405  0.7862  0.6144  0.6434
 3263TIP3    H231281   3.102   0.688  15.522  0.5387  1.5784  1.4146
 3264TIP3   OH231282   1.241   6.444   0.216 -0.4285 -0.2038 -0.0094
 3264TIP3    H131283   1.326   6.487   0.228 -0.5186 -0.0473  0.0756
 3264TIP3    H231284   1.188   6.477   0.288 -1.0402  0.8850 -0.9298
 3265TIP3   OH231285   4.450   0.917  13.812  0.7945  0.6637  0.3882
 3265TIP3    H131286   4.523   0.861  13.838 -1.3206 -1.6273  1.9044
 3265TIP3    H231287   4.405   0.937  13.894 -0.3739  1.8715 -0.5175
 3266TIP3   OH231288   4.232   1.907  13.136 -0.2380 -0.0882 -0.6973
 3266TIP3    H131289   4.289   1.979  13.108 -0.5686  0.3954 -0.1787
 3266TIP3    H231290   4.260   1.888  13.226  0.4936 -1.2839 -1.1739
 3267TIP3   OH231291   6.143   2.169  11.945 -0.1969 -0.3092  0.3741
 3267TIP3    H131292   6.137   2.263  11.956  0.5989 -0.1241 -0.6266
 3267TIP3    H231293   6.205   2.141  12.013 -1.3414 -0.3068  1.4636
 3268TIP3   OH231294   4.299   0.672   2.839  0.6631 -0.9540  0.2181
 3268TIP3    H131295   4.262   0.624   2.765 -0.3072 -0.0068  0.0726
 3268TIP3    H231296   4.306   0.763   2.808  0.5824 -0.6114  1.1648
 3269TIP3   OH231297   0.919   4.871  15.210  0.2848  0.1075  0.3274
 3269TIP3    H131298   0.853   4.941  15.213  0.0096 -0.1590  0.6730
 3269TIP3    H231299   0.991   4.908  15.159  0.0963  0.6028  0.4109
 3270TIP3   OH231300   3.160   3.265   0.267 -0.0839 -0.0975  0.8153
 3270TIP3    H131301   3.133   3.199   0.330 -0.2044  0.1584  1.0325
 3270TIP3    H231302   3.251   3.243   0.246 -0.5778 -1.2509 -0.2837
 3271TIP3   OH231303   4.364   5.707  15.292  0.1263 -0.8497  0.1075
 3271TIP3    H131304   4.433   5.703  15.226  1.0873 -1.1276  1.0996
 3271TIP3    H231305   4.355   5.801  15.311 -0.0517 -0.7814 -0.3167
 3272TIP3   OH231306   5.967   1.680   2.343  0.1097 -0.1724 -0.2032
 3272TIP3    H131307   6.021   1.614   2.387  0.0270  0.7835  1.4063
 3272TIP3    H231308   5.915   1.630   2.279  1.2085 -1.4223 -0.1654
 3273TIP3   OH231309   5.885   2.257   4.311  0.3581  0.0240 -0.1145
 3273TIP3    H131310   5.970   2.213   4.318  1.1021  1.2468 -0.9303
 3273TIP3    H231311   5.846   2.221   4.231  0.2745 -0.2669  0.0572
 3274TIP3   OH231312   2.044   0.018   1.279  0.1259  0.5973 -0.0362
 3274TIP3    H131313   2.059  -0.028   1.196  1.7626  0.3977  0.3441
 3274TIP3    H231314   1.957   0.057   1.268  1.0745  2.2385 -2.6365
 3275TIP3   OH231315   6.040   6.564   0.796 -0.4167 -0.4672 -0.6470
 3275TIP3    H131316   5.955   6.529   0.769 -1.2740  0.1321  1.0887
 3275TIP3    H231317   6.086   6.489   0.835 -1.0724 -0.3510  0.4054
 3276TIP3   OH231318   4.635   1.918  12.003 -0.2823  0.3958 -0.2562
 3276TIP3    H131319   4.730   1.911  12.015  0.0529  1.6693 -1.9152
 3276TIP3    H231320   4.609   1.990  12.060  0.0085  1.0528 -0.9378
 3277TIP3   OH231321   4.296   5.697   1.412  0.3227  0.2910  0.0446
 3277TIP3    H131322   4.353   5.653   1.348  1.3391  1.6751 -0.0449
 3277TIP3    H231323   4.286   5.633   1.483 -0.7592 -1.2566 -1.4069
 3278TIP3   OH231324   1.859   0.268  13.073  0.0992 -0.6138  0.2699
 3278TIP3    H131325   1.861   0.289  13.166  0.2087 -0.7953  0.3071
 3278TIP3    H231326   1.766   0.258  13.052  0.0329  0.0426  0.2240
 3279TIP3   OH231327   3.163   2.303  15.403  0.1683 -0.2438 -0.0160
 3279TIP3    H131328   3.165   2.343  15.316 -1.7791  0.6124  0.2961
 3279TIP3    H231329   3.185   2.374  15.463  0.5959 -0.6082  0.2641
 3280TIP3   OH231330   5.348   5.771   1.164 -0.2043 -0.1807  0.1582
 3280TIP3    H131331   5.286   5.824   1.215 -1.6969  0.4298 -2.1103
 3280TIP3    H231332   5.322   5.681   1.182 -1.4588  0.0567 -0.3630
 3281TIP3   OH231333   2.124   5.173  12.624 -0.3709 -0.2813  0.4161
 3281TIP3    H131334   2.168   5.089  12.610  0.1142  0.2176 -1.3036
 3281TIP3    H231335   2.032   5.150  12.638 -0.6805 -1.0413 -2.3246
 3282TIP3   OH231336   0.195   5.912   1.126  0.0908 -0.1295  0.1292
 3282TIP3    H131337   0.200   5.869   1.211  0.8613 -2.4401 -1.0117
 3282TIP3    H231338   0.285   5.912   1.094 -0.6178 -2.5316 -2.1397
 3283TIP3   OH231339   4.253   5.049   6.250  0.0929  0.0470  0.5095
 3283TIP3    H131340   4.319   5.027   6.316 -0.4460  1.1220  1.4327
 3283TIP3    H231341   4.197   4.972   6.245 -0.8566  0.5658  2.5602
 3284TIP3   OH231342   6.410   3.396   2.566 -0.4505 -0.6012  0.2299
 3284TIP3    H131343   6.422   3.302   2.551 -1.5727 -0.5573 -1.1669
 3284TIP3    H231344   6.471   3.438   2.505 -0.7807 -0.4218  0.0206
 3285TIP3   OH231345   2.726   4.479  17.227  0.0876  0.2191  0.4220
 3285TIP3    H131346   2.754   4.436  17.146 -1.7700  0.1758 -0.2466
 3285TIP3    H231347   2.782   4.556  17.234 -0.0371  0.4949 -1.1844
 3286TIP3   OH231348   3.507   5.054  16.555 -0.9419  0.0141  0.2472
 3286TIP3    H131349   3.513   4.962  16.578  1.9579  0.0287 -0.0532
 3286TIP3    H231350   3.438   5.058  16.489 -1.0239 -1.9657  0.1683
 3287TIP3   OH231351   0.373   1.493   5.847 -0.0741 -0.2670  0.3906
 3287TIP3    H131352   0.288   1.449   5.841 -0.0148 -0.4761  1.0248
 3287TIP3    H231353   0.375   1.529   5.935  0.5044 -0.2783  0.3860
 3288TIP3   OH231354   2.327   2.523  13.494 -0.4618  0.3672 -0.4495
 3288TIP3    H131355   2.278   2.450  13.456 -1.7282  0.5970  0.6436
 3288TIP3    H231356   2.319   2.509  13.589  1.3245  0.6161 -0.2421
 3289TIP3   OH231357   6.711   3.984   2.622  0.2247  0.0624  0.1192
 3289TIP3    H131358   6.629   3.983   2.671 -0.9757 -2.8531 -1.6572
 3289TIP3    H231359   6.775   3.945   2.680  0.4690  2.3877  1.5367
 3290TIP3   OH231360   0.272   4.046  10.892  0.6549  0.1170 -0.2232
 3290TIP3    H131361   0.366   4.056  10.877  0.3374  0.7999 -2.1017
 3290TIP3    H231362   0.244   3.983  10.825 -0.0462 -1.0631  1.1348
 3291TIP3   OH231363   3.916   2.804   5.304  0.2981 -0.7407 -0.1620
 3291TIP3    H131364   3.956   2.869   5.362 -0.1238 -0.3749 -0.2807
 3291TIP3    H231365   3.929   2.839   5.216 -1.8416  0.2931 -0.1280
 3292TIP3   OH231366   1.377   3.299   3.143 -0.3980 -0.6237 -0.0469
 3292TIP3    H131367   1.461   3.274   3.181  0.0945  0.7414 -0.2006
 3292TIP3    H231368   1.315   3.289   3.215  0.3220  0.7338  0.8037
 3293TIP3   OH231369   4.759   4.356  13.591 -0.6563 -0.6676 -0.1815
 3293TIP3    H131370   4.691   4.292  13.570 -1.3174 -0.4439  1.2017
 3293TIP3    H231371   4.784   4.337  13.681 -0.2711  0.5005 -0.0245
 3294TIP3   OH231372   2.621   6.351   4.024 -0.8758  0.5617  0.1556
 3294TIP3    H131373   2.707   6.317   4.048  0.2022  2.6790 -0.3802
 3294TIP3    H231374   2.559   6.282   4.049  1.1733 -2.4197 -2.2538
 3295TIP3   OH231375   3.598   0.180   4.327 -0.4454 -0.1649 -0.3698
 3295TIP3    H131376   3.564   0.135   4.250 -0.4560 -2.0143  0.6500
 3295TIP3    H231377   3.673   0.230   4.294 -0.1994 -1.2322 -1.5384
 3296TIP3   OH231378   6.646   0.093  10.941 -0.5019 -0.4492  1.1093
 3296TIP3    H131379   6.727   0.049  10.968  0.3365 -0.0685 -0.6465
 3296TIP3    H231380   6.581   0.023  10.940  0.3872 -1.2917  0.1549
 3297TIP3   OH231381   1.849   2.398  13.847 -0.6411 -0.0723  0.6162
 3297TIP3    H131382   1.840   2.342  13.924 -1.2645 -2.3731 -1.0097
 3297TIP3    H231383   1.759   2.418  13.820 -0.6103 -2.1704 -1.3750
 3298TIP3   OH231384   0.539   4.504   5.588 -0.7149  0.1679 -0.2301
 3298TIP3    H131385   0.561   4.421   5.629  0.3839  0.4372 -0.2416
 3298TIP3    H231386   0.446   4.497   5.567 -0.5636 -1.1769 -0.5211
 3299TIP3   OH231387   6.138   0.543   4.263  0.3611 -0.2594 -0.0891
 3299TIP3    H131388   6.086   0.604   4.316 -1.1026 -0.0333 -1.6949
 3299TIP3    H231389   6.074   0.500   4.207  1.7189 -1.3177 -0.8822
 3300TIP3   OH231390   1.812   6.567   1.809  0.5366 -0.6867 -0.6278
 3300TIP3    H131391   1.795   6.645   1.756 -0.2668 -0.5707 -0.2160
 3300TIP3    H231392   1.763   6.497   1.765  2.3229 -1.2904 -1.7664
 3301TIP3   OH231393   5.970   0.152  12.180 -0.2641 -0.4153  0.0631
 3301TIP3    H131394   5.896   0.192  12.133  0.1138 -0.6906 -0.7786
 3301TIP3    H231395   5.981   0.067  12.139  0.2875 -0.5260  0.4342
 3302TIP3   OH231396   2.620   5.284  13.890  0.6596 -0.0863  0.4218
 3302TIP3    H131397   2.563   5.243  13.955 -0.5443  1.1156  0.1590
 3302TIP3    H231398   2.566   5.353  13.851  1.6375 -0.2161 -1.2476
 3303TIP3   OH231399   0.279   5.490  17.177  0.3320 -0.5337  0.3171
 3303TIP3    H131400   0.231   5.452  17.103 -1.7938 -2.4387  2.4774
 3303TIP3    H231401   0.228   5.568  17.201  2.1818  1.3164 -1.3539
 3304TIP3   OH231402   0.399   5.806   3.164  0.1877 -0.1875  0.7359
 3304TIP3    H131403   0.326   5.749   3.188 -0.4668  0.3641  0.1137
 3304TIP3    H231404   0.383   5.888   3.211  1.1780 -0.5357  1.7065
 3305TIP3   OH231405   1.693   0.859  16.042  0.0943 -1.1542 -0.0154
 3305TIP3    H131406   1.624   0.923  16.061  1.2714 -0.4083  2.0585
 3305TIP3    H231407   1.672   0.784  16.098  0.4859 -1.2933 -0.0514
 3306TIP3   OH231408   5.653   6.659   4.791 -0.5035 -0.3127 -0.4603
 3306TIP3    H131409   5.605   6.683   4.711 -1.1818  0.0619  0.0501
 3306TIP3    H231410   5.592   6.679   4.862 -0.1565 -1.2737  0.1196
 3307TIP3   OH231411   5.216   4.239   4.400  0.0720 -0.1580 -0.6138
 3307TIP3    H131412   5.157   4.224   4.326  0.2077  0.5772 -0.8766
 3307TIP3    H231413   5.261   4.321   4.380  0.3106 -0.0858  0.1555
 3308TIP3   OH231414   5.606   4.270   0.731 -0.2431 -0.0920 -0.1550
 3308TIP3    H131415   5.700   4.275   0.712 -0.1707  1.2207  0.4970
 3308TIP3    H231416   5.564   4.320   0.661 -0.4201 -0.2232 -0.1448
 3309TIP3   OH231417   4.777   0.771  17.181  0.1507  0.1138  0.1469
 3309TIP3    H131418   4.859   0.794  17.226  0.4545  1.0952 -0.8659
 3309TIP3    H231419   4.712   0.829  17.220  0.4309  1.0246 -0.7186
 3310TIP3   OH231420   4.985   3.403  16.289 -0.0475 -0.0357 -0.0808
 3310TIP3    H131421   4.897   3.393  16.255 -0.3961  0.3695  0.6746
 3310TIP3    H231422   5.030   3.322  16.266 -1.0657 -0.8765  0.8229
 3311TIP3   OH231423   5.420   3.179   5.932 -0.3374 -0.1251  0.5107
 3311TIP3    H131424   5.474   3.149   5.859  0.8161 -1.7514  1.9478
 3311TIP3    H231425   5.481   3.185   6.006 -1.8410 -0.5779  1.8429
 3312TIP3   OH231426   2.115   4.608  12.297 -0.5790  0.3322  0.0434
 3312TIP3    H131427   2.157   4.530  12.261 -0.7036  0.8483 -1.2559
 3312TIP3    H231428   2.027   4.579  12.321 -1.0615  0.3255 -1.5896
 3313TIP3   OH231429   0.904   5.964  17.149  0.0369  0.2122 -0.5831
 3313TIP3    H131430   0.873   5.888  17.101 -0.0255  0.7597 -1.4328
 3313TIP3    H231431   0.851   5.966  17.229  1.4885 -1.8409  0.4982
 3314TIP3   OH231432   1.187   3.395   3.951 -0.5308  1.0537  0.2026
 3314TIP3    H131433   1.238   3.475   3.940  1.4718 -0.3299 -1.4310
 3314TIP3    H231434   1.248   3.324   3.928 -2.2873 -0.9329  1.3077
 3315TIP3   OH231435   4.705   0.838  13.668  0.0205  0.0910  0.2922
 3315TIP3    H131436   4.631   0.896  13.650  1.1587  1.3534 -0.5694
 3315TIP3    H231437   4.682   0.795  13.750 -1.4300  0.8316  0.3148
 3316TIP3   OH231438   4.241   4.420   6.453  0.0815 -0.1213 -0.0778
 3316TIP3    H131439   4.167   4.479   6.464  0.3617  0.0420  1.0510
 3316TIP3    H231440   4.213   4.339   6.497  0.6180 -0.0108  0.4760
 3317TIP3   OH231441   5.124   6.421   3.440 -0.0332 -0.6225  0.0330
 3317TIP3    H131442   5.100   6.328   3.443 -1.7355 -0.2116  0.3054
 3317TIP3    H231443   5.171   6.431   3.357 -0.4382 -1.5905 -0.3305
 3318TIP3   OH231444   4.815   5.666  11.567 -0.4259 -0.1066  0.1941
 3318TIP3    H131445   4.822   5.578  11.604 -1.3958 -0.2293  0.1150
 3318TIP3    H231446   4.726   5.669  11.531 -0.4493  0.9611  0.3344
 3319TIP3   OH231447   1.097   4.849  11.770  0.2202 -0.6070  0.1264
 3319TIP3    H131448   1.126   4.934  11.802 -3.6009  0.8082  0.2942
 3319TIP3    H231449   1.073   4.864  11.678 -3.1279 -0.5893  0.8691
 3320TIP3   OH231450   5.343   2.948   4.514 -0.0494 -0.0233 -0.2314
 3320TIP3    H131451   5.363   2.857   4.537  1.9949  0.4919  0.1514
 3320TIP3    H231452   5.421   2.997   4.539 -0.3271  1.5671 -2.2796
 3321TIP3   OH231453   2.189   0.389  11.713 -0.3654 -0.3869  0.1324
 3321TIP3    H131454   2.282   0.364  11.713 -0.5237 -1.0006  0.6115
 3321TIP3    H231455   2.190   0.484  11.711  0.2655 -0.3982 -0.6127
 3322TIP3   OH231456   4.496   5.623   1.222  0.3666  0.5187  0.7823
 3322TIP3    H131457   4.468   5.542   1.180  0.0287  0.7591  0.5416
 3322TIP3    H231458   4.569   5.654   1.168  1.5519 -0.4479  1.7817
 3323TIP3   OH231459   4.269   2.974   1.176  0.0444  0.0579 -0.3327
 3323TIP3    H131460   4.309   2.906   1.230  2.0758  0.4843 -1.2194
 3323TIP3    H231461   4.336   3.042   1.169 -1.8065  2.0342  0.2446
 3324TIP3   OH231462   1.605   5.483  16.581 -0.2764  0.4107  0.1642
 3324TIP3    H131463   1.692   5.448  16.596 -0.3756  0.2490  0.3693
 3324TIP3    H231464   1.572   5.504  16.668  0.0093  1.5668  0.0050
 3325TIP3   OH231465   5.984   5.067  16.639 -0.6548  0.1635 -0.1967
 3325TIP3    H131466   5.925   4.998  16.608  0.4015 -0.9162  0.1480
 3325TIP3    H231467   6.069   5.046  16.601  0.4255 -0.5853  2.4375
 3326TIP3   OH231468   2.623   0.804  13.408 -0.0143  0.1297 -0.2020
 3326TIP3    H131469   2.642   0.894  13.435  0.3369  0.3211 -1.0432
 3326TIP3    H231470   2.600   0.811  13.316 -0.6665 -0.5692 -0.1055
 3327TIP3   OH231471   4.955   1.472   1.126  0.0427  0.5222  0.8386
 3327TIP3    H131472   4.965   1.440   1.216  0.1620  1.7040  1.2695
 3327TIP3    H231473   4.869   1.441   1.099 -0.5713  1.2609  1.8588
 3328TIP3   OH231474   1.957   2.954  14.908 -0.7070 -0.6235  0.0396
 3328TIP3    H131475   1.962   2.960  15.003 -1.4191 -0.2909  0.0630
 3328TIP3    H231476   2.014   2.880  14.885 -1.1086 -1.1761  0.7809
 3329TIP3   OH231477   0.521   5.834  16.604  0.0251 -0.9744  0.2196
 3329TIP3    H131478   0.604   5.872  16.575  0.2460 -0.5563  1.3152
 3329TIP3    H231479   0.466   5.910  16.623 -1.4022 -1.2174 -2.4779
 3330TIP3   OH231480   0.217   1.785   3.812 -0.0612 -0.0559  0.2903
 3330TIP3    H131481   0.276   1.775   3.887  2.2046  1.3909 -1.1746
 3330TIP3    H231482   0.213   1.879   3.796  0.4668 -0.3690 -2.0750
 3331TIP3   OH231483   3.102   4.146  13.592  0.0405 -0.0534  0.3835
 3331TIP3    H131484   3.006   4.152  13.595 -0.0071 -0.8278  1.5941
 3331TIP3    H231485   3.131   4.233  13.568 -0.9542  0.4646  0.9860
 3332TIP3   OH231486   3.969   1.031   0.454 -0.0289  0.6072  0.1606
 3332TIP3    H131487   4.050   0.994   0.421 -0.9174  0.2375 -1.7405
 3332TIP3    H231488   3.905   1.015   0.385 -1.1549  3.0666  0.5227
 3333TIP3   OH231489   4.325   0.216  17.392 -0.5798  0.5403 -0.4681
 3333TIP3    H131490   4.365   0.135  17.360 -1.7512 -1.1735  2.1011
 3333TIP3    H231491   4.233   0.208  17.370 -1.5659 -0.9911  3.3880
 3334TIP3   OH231492   1.977   5.836  11.896  0.5113 -0.0573  0.2081
 3334TIP3    H131493   1.987   5.744  11.871  0.8784  0.5444 -1.9956
 3334TIP3    H231494   1.886   5.843  11.923  0.9429 -1.4487  2.2782
 3335TIP3   OH231495   0.551   0.101  11.066 -0.2268 -0.6223 -0.2119
 3335TIP3    H131496   0.520   0.181  11.025 -0.3543 -0.1647  0.7328
 3335TIP3    H231497   0.508   0.030  11.018 -1.6410 -0.0517  0.1646
 3336TIP3   OH231498   5.552   2.994  12.072 -0.2951  0.0018 -0.4025
 3336TIP3    H131499   5.520   3.026  12.156  2.4103 -0.1214  0.7922
 3336TIP3    H231500   5.576   3.074  12.024 -1.5153  0.0560 -0.9545
 3337TIP3   OH231501   4.135   0.468   5.530 -0.1814  0.1370  0.8337
 3337TIP3    H131502   4.211   0.447   5.476 -0.1591  0.8299  0.5820
 3337TIP3    H231503   4.083   0.528   5.475 -0.3119  0.6092  1.4645
 3338TIP3   OH231504   6.568   5.484   5.276  0.5751  0.5921 -0.0513
 3338TIP3    H131505   6.595   5.574   5.258 -1.4480  1.2191 -0.2590
 3338TIP3    H231506   6.569   5.441   5.190 -0.8365  1.1622 -0.3883
 3339TIP3   OH231507   6.038   1.679  11.757 -0.5088  0.3011 -0.2145
 3339TIP3    H131508   5.989   1.607  11.797  0.8644  0.2423  1.4438
 3339TIP3    H231509   5.978   1.713  11.690 -2.6049 -0.1355  1.3139
 3340TIP3   OH231510   6.377   6.101   3.854  0.2791  0.0627 -0.3727
 3340TIP3    H131511   6.300   6.132   3.901 -0.3524 -2.0272  0.0944
 3340TIP3    H231512   6.452   6.138   3.901 -0.3974  0.9066  0.0610
 3341TIP3   OH231513   6.739   4.654  14.908  0.3934  0.2970  0.7774
 3341TIP3    H131514   6.750   4.666  14.814 -0.1992  1.7516  0.8715
 3341TIP3    H231515   6.813   4.599  14.934  1.2152  0.8381 -0.3496
 3342TIP3   OH231516   5.457   0.144   5.465  0.0802 -0.2504 -0.5021
 3342TIP3    H131517   5.481   0.210   5.530  0.3793  1.2960 -2.1138
 3342TIP3    H231518   5.373   0.174   5.430  0.1585 -0.8097 -1.1795
 3343TIP3   OH231519   0.451   5.597  13.210 -0.2549 -0.1178 -0.0817
 3343TIP3    H131520   0.425   5.639  13.128 -0.2307 -0.3077 -0.1872
 3343TIP3    H231521   0.393   5.522  13.218 -0.3114 -0.0534  0.1164
 3344TIP3   OH231522   0.383   4.126  11.940 -0.6377  0.2547 -0.2220
 3344TIP3    H131523   0.340   4.067  12.003 -1.0480  0.7231 -0.0544
 3344TIP3    H231524   0.311   4.178  11.904 -0.3935  0.0570 -1.0157
 3345TIP3   OH231525   1.218   4.491   0.202  0.1463  0.3932 -0.0008
 3345TIP3    H131526   1.240   4.581   0.225  1.2206  0.0030  0.5627
 3345TIP3    H231527   1.142   4.470   0.256 -1.7439  1.7454 -1.9396
 3346TIP3   OH231528   6.321   6.275  14.225  0.4324  0.2089 -0.2838
 3346TIP3    H131529   6.312   6.325  14.306 -2.4703 -0.5055 -0.0812
 3346TIP3    H231530   6.354   6.190  14.254  1.3583  0.5913 -0.1493
 3347TIP3   OH231531   4.601   4.404   1.224 -0.0687 -0.0315  0.1847
 3347TIP3    H131532   4.552   4.477   1.185  0.0620  0.6318  1.2190
 3347TIP3    H231533   4.545   4.328   1.211 -1.5741  0.7614  1.6188
 3348TIP3   OH231534   5.641   5.122  11.945  0.4667 -0.1419  0.0004
 3348TIP3    H131535   5.599   5.118  12.031  0.0945  0.3916 -0.1538
 3348TIP3    H231536   5.585   5.180  11.893 -0.2468 -1.7821 -1.1283
 3349TIP3   OH231537   0.554   5.552   1.220 -0.0797  0.1526  0.5222
 3349TIP3    H131538   0.513   5.467   1.204  0.4738  0.0010 -0.1444
 3349TIP3    H231539   0.640   5.530   1.255  1.3633  0.3063 -2.6056
 3350TIP3   OH231540   0.624   5.046   5.900  0.0665 -0.3291  0.2192
 3350TIP3    H131541   0.583   5.001   5.974 -1.8011 -1.3064 -1.3073
 3350TIP3    H231542   0.556   5.106   5.868  1.2219  0.8652 -0.0648
 3351TIP3   OH231543   3.538   1.700  16.885  0.4797 -0.1075 -0.2992
 3351TIP3    H131544   3.463   1.658  16.843  0.6979  0.0237 -0.8244
 3351TIP3    H231545   3.533   1.791  16.857  0.3382  0.0960  0.3730
 3352TIP3   OH231546   2.246   0.754   1.018 -0.2471 -0.2581 -0.3558
 3352TIP3    H131547   2.246   0.700   1.097  1.8062 -0.4467 -0.4269
 3352TIP3    H231548   2.154   0.777   1.004 -0.8923 -1.8879  0.9336
 3353TIP3   OH231549   5.823   0.640  14.826  0.2716  0.1072 -0.5055
 3353TIP3    H131550   5.759   0.678  14.765  0.5662  3.1160  0.8433
 3353TIP3    H231551   5.907   0.649  14.782  0.2864  0.7170 -0.3695
 3354TIP3   OH231552   4.687   2.365  16.637  0.0551  0.1535  0.0022
 3354TIP3    H131553   4.719   2.361  16.727  0.7552  2.0548 -0.1132
 3354TIP3    H231554   4.766   2.372  16.583 -0.3970  0.3547 -0.6514
 3355TIP3   OH231555   0.971   4.508   0.857  0.2207  0.2583 -0.0629
 3355TIP3    H131556   0.884   4.526   0.821  0.2000  0.5272  0.1196
 3355TIP3    H231557   0.990   4.583   0.914  1.0856  0.8118 -1.0321
 3356TIP3   OH231558   5.478   3.010   3.150 -0.3603  0.6183  0.2743
 3356TIP3    H131559   5.436   3.095   3.147 -3.2751 -0.6717  1.0080
 3356TIP3    H231560   5.489   2.991   3.243 -1.4195 -0.5202  0.1936
 3357TIP3   OH231561   4.378   2.240  11.864  1.3529 -0.3405 -0.7128
 3357TIP3    H131562   4.370   2.319  11.810  1.7683  1.5691  1.8318
 3357TIP3    H231563   4.288   2.217  11.887  1.2844  0.0780 -0.5541
 3358TIP3   OH231564   4.685   4.795  14.973  0.2364 -0.0058  0.1312
 3358TIP3    H131565   4.727   4.876  15.000  0.7806 -0.0631 -0.5119
 3358TIP3    H231566   4.651   4.813  14.885 -0.1650 -0.2885  0.2248
 3359TIP3   OH231567   1.632   6.509  13.951 -0.3520 -0.0588 -0.5056
 3359TIP3    H131568   1.666   6.496  14.039  0.2806 -0.2352 -0.7722
 3359TIP3    H231569   1.606   6.422  13.921 -2.7510  0.2705  0.3523
 3360TIP3   OH231570   5.492   3.232  15.550 -0.0003  0.8673  0.4556
 3360TIP3    H131571   5.429   3.220  15.622 -0.5663 -1.7065 -0.3727
 3360TIP3    H231572   5.562   3.285  15.589 -1.0849  0.9781  2.4043
 3361TIP3   OH231573   0.590   5.291   4.692  0.5246 -0.4263  0.3532
 3361TIP3    H131574   0.650   5.318   4.762  0.6232 -1.1938  0.5789
 3361TIP3    H231575   0.566   5.372   4.648 -0.2418  0.2066  1.8361
 3362TIP3   OH231576   0.540   3.954   4.656  0.1621 -0.0609 -0.8429
 3362TIP3    H131577   0.459   3.912   4.626  1.0394 -1.5382 -1.2297
 3362TIP3    H231578   0.520   3.984   4.745 -0.6341 -0.9547 -0.7064
 3363TIP3   OH231579   1.743   1.531   3.795  0.1303  0.4564  0.1790
 3363TIP3    H131580   1.685   1.468   3.753  0.2835  0.1739  0.3845
 3363TIP3    H231581   1.764   1.595   3.727  1.4049 -0.6873 -0.5615
 3364TIP3   OH231582   5.218   6.627   2.625  0.4994 -0.6054  0.0288
 3364TIP3    H131583   5.212   6.703   2.567  0.2774 -0.4597  0.2424
 3364TIP3    H231584   5.288   6.574   2.587  1.8913  0.5471  0.8659
 3365TIP3   OH231585   6.132   0.159   1.469 -0.4622  0.0853  0.3093
 3365TIP3    H131586   6.043   0.145   1.501 -0.1328  0.1861  1.2973
 3365TIP3    H231587   6.127   0.240   1.418 -1.0365 -0.1925 -0.0850
 3366TIP3   OH231588   2.068   6.512  16.442  0.5121 -0.5852  0.1073
 3366TIP3    H131589   2.003   6.526  16.373 -0.5254 -1.6288  0.8428
 3366TIP3    H231590   2.087   6.600  16.474 -1.9520 -0.3378  1.1213
 3367TIP3   OH231591   4.874   2.378  14.004 -0.4115 -0.1187 -0.4898
 3367TIP3    H131592   4.962   2.346  14.023  0.1073  1.3153 -0.3750
 3367TIP3    H231593   4.816   2.311  14.040  0.6224 -0.9761 -0.3669
 3368TIP3   OH231594   3.471   3.117   6.444  0.4490 -0.4854 -0.2450
 3368TIP3    H131595   3.428   3.035   6.419 -0.3165  0.1829 -1.2108
 3368TIP3    H231596   3.538   3.091   6.507  0.6624 -1.9396 -1.0235
 3369TIP3   OH231597   4.658   0.536   4.095 -0.7018  0.3971  0.1477
 3369TIP3    H131598   4.575   0.490   4.082 -0.5886  0.1207  0.3986
 3369TIP3    H231599   4.666   0.594   4.019 -1.3038  0.6955  0.3131
 3370TIP3   OH231600   2.127   1.950   3.131 -0.4982  0.1403  0.2696
 3370TIP3    H131601   2.103   1.907   3.213  1.1343 -2.2883 -0.4312
 3370TIP3    H231602   2.111   1.884   3.064 -0.4564  1.5980 -1.2374
 3371TIP3   OH231603   6.625   0.201  15.275  0.1379  0.3177  0.4491
 3371TIP3    H131604   6.568   0.127  15.297 -1.7746  1.5851  0.0029
 3371TIP3    H231605   6.582   0.242  15.200  1.3065  1.7218  0.5283
 3372TIP3   OH231606   0.364   0.101   4.988  0.1123  0.3618  0.3805
 3372TIP3    H131607   0.417   0.179   5.006  1.4652 -0.2007 -1.0385
 3372TIP3    H231608   0.427   0.033   4.968 -1.0389 -1.2034  1.7631
 3373TIP3   OH231609   0.651   1.126   1.503  0.1599 -0.1345 -0.9720
 3373TIP3    H131610   0.709   1.052   1.490  0.9414  0.3707 -0.4666
 3373TIP3    H231611   0.678   1.164   1.587  0.1157  1.0008 -1.4415
 3374TIP3   OH231612   2.584   0.891   4.358  0.5693  0.0257  0.0643
 3374TIP3    H131613   2.585   0.977   4.400 -0.2786 -0.5883  1.3985
 3374TIP3    H231614   2.493   0.863   4.361  0.8528 -0.9800 -0.2239
 3375TIP3   OH231615   3.652   5.451  14.969 -0.1410 -0.2224 -0.2482
 3375TIP3    H131616   3.732   5.503  14.978 -0.5196  0.4742 -0.7452
 3375TIP3    H231617   3.677   5.363  14.996  0.5959  0.1529  0.3309
 3376TIP3   OH231618   3.312   3.075  15.239  0.0356  0.0103 -0.1571
 3376TIP3    H131619   3.292   3.075  15.145 -0.0316 -2.0368 -0.1854
 3376TIP3    H231620   3.407   3.066  15.243 -0.0885 -1.3613 -0.0481
 3377TIP3   OH231621   0.719   1.969   5.472 -0.3390 -0.0343 -0.0974
 3377TIP3    H131622   0.665   1.891   5.460 -1.6440  0.7378  0.6026
 3377TIP3    H231623   0.754   1.961   5.561 -1.2222  0.6154  0.3175
 3378TIP3   OH231624   1.015   6.193   4.548 -0.1239 -0.3451  0.4887
 3378TIP3    H131625   0.921   6.203   4.562 -0.1884 -0.1110 -0.1042
 3378TIP3    H231626   1.041   6.123   4.609 -0.8701 -1.1641 -0.1187
 3379TIP3   OH231627   2.196   6.371  12.785  0.2215  0.2459 -0.1658
 3379TIP3    H131628   2.275   6.416  12.754 -0.0712  0.0132 -1.2938
 3379TIP3    H231629   2.131   6.387  12.716 -1.2873  1.9042  1.5385
 3380TIP3   OH231630   6.111   3.030  15.790  0.2682  0.9738 -0.0694
 3380TIP3    H131631   6.036   2.972  15.773  1.1351 -0.2062  0.0052
 3380TIP3    H231632   6.072   3.118  15.796 -0.8753  0.6558 -1.8873
 3381TIP3   OH231633   1.276   4.713  17.171  0.0364 -0.4714  0.0656
 3381TIP3    H131634   1.244   4.665  17.247 -2.3527 -0.5689 -0.9251
 3381TIP3    H231635   1.272   4.650  17.099 -0.9414  0.5418 -0.7970
 3382TIP3   OH231636   1.491   2.938   1.812  0.3971  0.0650 -0.2482
 3382TIP3    H131637   1.468   3.009   1.752  1.4930 -0.3914 -1.2321
 3382TIP3    H231638   1.507   2.862   1.756  0.5007 -0.6226  0.6907
 3383TIP3   OH231639   6.653   2.364   2.467 -0.0572 -1.0149 -0.7431
 3383TIP3    H131640   6.669   2.344   2.559  0.4669  1.2976 -0.2504
 3383TIP3    H231641   6.558   2.357   2.457 -0.2580 -0.1754  0.3214
 3384TIP3   OH231642   6.443   5.248   1.538 -0.0940  0.2791 -0.2700
 3384TIP3    H131643   6.488   5.296   1.469  1.0195 -0.3343  0.0073
 3384TIP3    H231644   6.510   5.233   1.605 -0.2268 -2.1000 -0.5748
 3385TIP3   OH231645   3.567   6.014   4.533 -0.1006  0.3519 -0.3345
 3385TIP3    H131646   3.643   5.959   4.513 -0.6648 -0.2995 -0.7500
 3385TIP3    H231647   3.574   6.032   4.626 -0.1453 -0.8117 -0.0968
 3386TIP3   OH231648   4.789   6.221  15.124  0.0284  0.2146 -0.7036
 3386TIP3    H131649   4.826   6.232  15.211 -1.5618 -0.4986  0.0948
 3386TIP3    H231650   4.694   6.221  15.137 -0.2480 -0.2523 -2.3913
 3387TIP3   OH231651   0.577   6.779  14.349  0.1822 -0.6378 -0.2539
 3387TIP3    H131652   0.578   6.827  14.266 -0.0275 -0.7293 -0.3103
 3387TIP3    H231653   0.550   6.690  14.324  1.3495 -1.0078 -0.2705
 3388TIP3   OH231654   2.887   0.940   4.741 -0.0901 -0.1221  0.0667
 3388TIP3    H131655   2.921   0.860   4.702 -0.2139  0.2670 -0.8815
 3388TIP3    H231656   2.961   1.001   4.741 -0.7978  0.9096 -2.5128
 3389TIP3   OH231657   0.190   6.582   2.780  0.1027  0.2104 -0.0543
 3389TIP3    H131658   0.193   6.492   2.813  0.0369  0.8469  1.8121
 3389TIP3    H231659   0.258   6.584   2.712  2.2451 -0.5267  1.9053
 3390TIP3   OH231660   2.074   2.385  11.505  0.5213  0.0063 -0.0776
 3390TIP3    H131661   2.039   2.344  11.427  0.4302  1.7026 -0.9621
 3390TIP3    H231662   2.009   2.367  11.573 -1.5010  2.0128 -1.3796
 3391TIP3   OH231663   3.067   4.496  16.512 -0.7190 -0.3474  0.1500
 3391TIP3    H131664   3.116   4.577  16.528 -0.8583 -0.2745  0.2101
 3391TIP3    H231665   3.101   4.435  16.578  1.2878 -1.1822 -1.5382
 3392TIP3   OH231666   4.868   6.257  12.322  0.2609  0.3599  0.4550
 3392TIP3    H131667   4.850   6.166  12.346 -0.7080  0.8402  1.6557
 3392TIP3    H231668   4.804   6.308  12.372 -0.2201  1.6097 -1.3569
 3393TIP3   OH231669   6.725   3.400   4.223  0.6324 -0.0246 -0.2228
 3393TIP3    H131670   6.658   3.465   4.201  0.6535 -0.0599 -0.3858
 3393TIP3    H231671   6.803   3.452   4.240  0.8866 -0.0651 -1.2295
 3394TIP3   OH231672   5.087   4.559   0.727  0.0666  0.0163 -0.0432
 3394TIP3    H131673   4.993   4.554   0.708 -0.2378  0.3237  1.2734
 3394TIP3    H231674   5.095   4.530   0.817  0.9063  2.3046  0.6831
 3395TIP3   OH231675   5.756   2.791  15.198 -0.7840  0.2145  0.5111
 3395TIP3    H131676   5.757   2.701  15.165  0.8075  0.5298 -0.3917
 3395TIP3    H231677   5.690   2.836  15.145  0.7141  0.3482 -1.3438
 3396TIP3   OH231678   5.741   2.708  12.801 -0.1161  0.4535 -0.3513
 3396TIP3    H131679   5.745   2.763  12.879 -0.7870  1.8862 -1.2889
 3396TIP3    H231680   5.758   2.768  12.729 -1.9825 -0.3313 -1.5132
 3397TIP3   OH231681   3.095   3.342   5.516 -0.6233 -0.2754  0.0908
 3397TIP3    H131682   3.142   3.374   5.593  0.0947  1.0610 -0.8634
 3397TIP3    H231683   3.164   3.326   5.452 -1.3160 -0.2094 -0.6737
 3398TIP3   OH231684   2.625   2.079  16.678 -0.2828 -0.8005  0.2684
 3398TIP3    H131685   2.614   2.008  16.741 -0.8074 -2.0687 -1.1778
 3398TIP3    H231686   2.552   2.138  16.694  0.8616  0.1453  2.3384
 3399TIP3   OH231687   1.218   0.570   5.497 -0.2679  0.2359  0.2711
 3399TIP3    H131688   1.191   0.493   5.448 -1.8495  0.9967 -0.1191
 3399TIP3    H231689   1.218   0.542   5.588  1.3247 -0.7946  0.0078
 3400TIP3   OH231690   4.169   0.579  17.001 -0.1826  0.1548 -0.0977
 3400TIP3    H131691   4.165   0.502  17.058  2.8890 -0.7324 -0.8809
 3400TIP3    H231692   4.078   0.603  16.986 -1.2783 -3.1929  0.4085
 3401TIP3   OH231693   5.434   1.040   4.121  0.4326  0.0626 -0.4784
 3401TIP3    H131694   5.493   0.972   4.153  0.5515  1.0176  1.4616
 3401TIP3    H231695   5.491   1.114   4.100  0.0226  1.1420  1.8064
 3402TIP3   OH231696   4.833   1.768  14.125  0.2116 -0.3813 -0.0635
 3402TIP3    H131697   4.906   1.760  14.186  0.7543 -1.4099 -0.8193
 3402TIP3    H231698   4.757   1.788  14.180  0.9215 -0.0383  0.8045
 3403TIP3   OH231699   4.982   2.663  11.132  0.3195 -0.4031  0.2445
 3403TIP3    H131700   5.060   2.696  11.087  0.2714 -1.4472 -0.6518
 3403TIP3    H231701   4.910   2.715  11.099  0.3825 -0.7101 -0.3899
 3404TIP3   OH231702   0.465   6.229  12.012 -0.2747 -0.2011 -0.2290
 3404TIP3    H131703   0.494   6.198  12.098 -2.3798 -2.0051 -0.0828
 3404TIP3    H231704   0.491   6.159  11.952 -1.4293 -0.3602 -0.5655
 3405TIP3   OH231705   6.347   6.152  13.767  0.0408  0.8221  0.7047
 3405TIP3    H131706   6.392   6.232  13.793 -0.5949  1.2722  0.4660
 3405TIP3    H231707   6.256   6.166  13.794  0.0826 -0.1705  1.4171
 3406TIP3   OH231708   4.892   6.787  16.341 -0.1327 -0.6397 -0.3517
 3406TIP3    H131709   4.882   6.732  16.263 -2.4746 -0.2709 -0.3809
 3406TIP3    H231710   4.899   6.724  16.413  1.6670 -0.9765 -0.7574
 3407TIP3   OH231711   2.118   2.200   3.009  0.2036  0.1116  0.0259
 3407TIP3    H131712   2.136   2.119   3.057  1.1752 -0.8642 -1.8962
 3407TIP3    H231713   2.195   2.255   3.026  1.1793 -0.7503 -1.3885
 3408TIP3   OH231714   4.387   3.817  12.350  0.8245  0.1008 -0.1099
 3408TIP3    H131715   4.382   3.722  12.350 -1.3916  0.0838  2.5521
 3408TIP3    H231716   4.304   3.846  12.311  1.6688  0.9659 -1.3235
 3409TIP3   OH231717   4.724   1.150   1.243 -0.3046 -0.0148 -0.3360
 3409TIP3    H131718   4.705   1.236   1.281 -1.3252 -0.7175  0.8059
 3409TIP3    H231719   4.667   1.090   1.291  0.7667 -1.4084 -0.7594
 3410TIP3   OH231720   2.242   1.878   1.776  0.2628  0.2199 -0.3147
 3410TIP3    H131721   2.282   1.944   1.720  3.2755 -0.2173  1.1101
 3410TIP3    H231722   2.221   1.924   1.857  0.9447 -0.2074  0.1200
 3411TIP3   OH231723   0.355   1.865  16.231  0.1003  0.0257  0.3059
 3411TIP3    H131724   0.301   1.803  16.279  0.2437  0.0718  0.5317
 3411TIP3    H231725   0.426   1.887  16.292  1.2089 -1.1533 -0.4899
 3412TIP3   OH231726   5.130   4.889   2.287  0.3444 -0.1186  0.0239
 3412TIP3    H131727   5.179   4.918   2.363  0.8953 -0.2337 -0.2800
 3412TIP3    H231728   5.163   4.943   2.215 -0.6388  0.4511 -0.0188
 3413TIP3   OH231729   5.972   3.283   0.042  0.7101 -0.0710 -0.1200
 3413TIP3    H131730   6.029   3.353   0.074 -0.8778  0.8373  0.9106
 3413TIP3    H231731   5.979   3.214   0.108  2.2959 -0.9474 -1.1491
 3414TIP3   OH231732   3.243   2.780  15.702 -0.5306 -0.5516 -1.2210
 3414TIP3    H131733   3.295   2.844  15.751 -0.2882 -0.9072 -1.0094
 3414TIP3    H231734   3.190   2.833  15.642  0.5742 -0.2130 -1.9249
 3415TIP3   OH231735   4.913   3.345   6.272  0.2028 -0.2550 -0.5766
 3415TIP3    H131736   5.005   3.324   6.259  0.2112 -0.2269 -0.5623
 3415TIP3    H231737   4.913   3.438   6.295  0.2158 -0.3755 -0.0801
 3416TIP3   OH231738   3.521   0.331   1.883 -0.0796  0.3335 -0.1433
 3416TIP3    H131739   3.473   0.282   1.817 -0.8297 -1.3475  1.5942
 3416TIP3    H231740   3.487   0.421   1.875  1.3373  0.7493 -3.3790
 3417TIP3   OH231741   0.672   5.179  17.302  0.0601  0.5536 -0.4620
 3417TIP3    H131742   0.743   5.209  17.359  0.4562 -1.0532 -0.0441
 3417TIP3    H231743   0.612   5.253  17.297  0.9545  1.3817  0.5118
 3418TIP3   OH231744   1.511   3.884   4.223  0.0457 -0.0789  0.0991
 3418TIP3    H131745   1.436   3.836   4.258 -0.1808 -0.2829 -0.6519
 3418TIP3    H231746   1.534   3.946   4.292 -0.6114 -0.2341  0.4655
 3419TIP3   OH231747   5.409   1.697   2.863  0.0339  0.3789  0.1244
 3419TIP3    H131748   5.483   1.757   2.863  1.2126 -0.9980  1.5631
 3419TIP3    H231749   5.384   1.690   2.956 -0.6419 -0.6591 -0.1198
 3420TIP3   OH231750   4.402   4.321  11.194  0.0614  0.3823 -0.3912
 3420TIP3    H131751   4.309   4.314  11.173  0.3425 -2.0379 -1.1172
 3420TIP3    H231752   4.404   4.324  11.290 -0.7540  0.1851 -0.3572
 3421TIP3   OH231753   4.534   4.906  11.759 -0.3984  0.0167  0.4199
 3421TIP3    H131754   4.537   4.810  11.758 -0.8833 -0.0323 -1.4312
 3421TIP3    H231755   4.618   4.933  11.796  0.7239 -1.1522 -1.1393
 3422TIP3   OH231756   4.520   5.580  11.471 -0.5614  0.0495 -0.2729
 3422TIP3    H131757   4.551   5.515  11.408 -2.2493 -1.8920  0.7796
 3422TIP3    H231758   4.471   5.529  11.536 -1.4558  2.3231  0.9500
 3423TIP3   OH231759   0.915   4.229  13.108 -0.1802  0.9258  0.2511
 3423TIP3    H131760   0.844   4.166  13.095 -0.1012  1.3434 -3.3058
 3423TIP3    H231761   0.875   4.314  13.088  0.6607  1.5270  1.0492
 3424TIP3   OH231762   5.787   0.406   6.685 -0.4452  0.2330 -0.4532
 3424TIP3    H131763   5.876   0.370   6.684 -0.4759  0.1352  0.2565
 3424TIP3    H231764   5.770   0.430   6.593  0.7534  1.3357 -0.4224
 3425TIP3   OH231765   6.625   3.212   6.071  0.4303 -0.2949  0.0876
 3425TIP3    H131766   6.560   3.149   6.037 -3.0425  2.8707  0.1862
 3425TIP3    H231767   6.612   3.210   6.165  0.6539  0.1891  0.1292
 3426TIP3   OH231768   1.219   0.012  15.962  0.2587 -0.1856  0.3986
 3426TIP3    H131769   1.223  -0.006  15.868  0.3006  1.2074  0.1141
 3426TIP3    H231770   1.187  -0.070  16.001 -0.7737 -0.4441 -0.9315
 3427TIP3   OH231771   2.024   2.551   1.995  0.1089 -0.0241  0.1798
 3427TIP3    H131772   1.987   2.571   1.909 -0.1097 -0.1062  0.2542
 3427TIP3    H231773   2.118   2.567   1.985  0.0163  0.4780  0.0718
 3428TIP3   OH231774   4.421   1.160   0.889  0.0053  0.1679 -0.1955
 3428TIP3    H131775   4.471   1.151   0.807 -1.0738 -1.1985 -0.7285
 3428TIP3    H231776   4.391   1.072   0.909 -1.0707  0.7448  0.8443
 3429TIP3   OH231777   4.037   4.765   5.042  0.1478 -0.3289 -0.2710
 3429TIP3    H131778   3.990   4.684   5.062  1.9007 -1.6293 -1.0967
 3429TIP3    H231779   4.069   4.752   4.952  3.4777 -0.3156  0.7980
 3430TIP3   OH231780   5.808   0.341   1.549  0.4933  0.5468  0.1061
 3430TIP3    H131781   5.753   0.419   1.553  0.0523  0.2955 -0.8865
 3430TIP3    H231782   5.747   0.268   1.539  0.8809  0.0270  1.2925
 3431TIP3   OH231783   1.872   0.234   4.731 -0.1788 -0.1062 -0.4419
 3431TIP3    H131784   1.910   0.176   4.797 -1.4379 -0.1828  0.2471
 3431TIP3    H231785   1.921   0.316   4.742  0.4104 -0.4758 -0.2110
 3432TIP3   OH231786   4.127   4.426  12.347 -0.2554 -1.2396 -0.2986
 3432TIP3    H131787   4.043   4.451  12.385  0.2837 -1.5492  1.1688
 3432TIP3    H231788   4.116   4.438  12.252 -2.0737 -1.6530 -0.1678
 3433TIP3   OH231789   0.978   1.946   0.374  0.3800  0.0963  0.0828
 3433TIP3    H131790   0.919   1.955   0.299  0.2895  3.0881  0.3844
 3433TIP3    H231791   1.064   1.930   0.334 -0.2331 -2.2437 -0.4325
 3434TIP3   OH231792   1.239   1.297   4.824  0.3076  0.2277 -0.3418
 3434TIP3    H131793   1.286   1.232   4.875  0.8258  0.9397  0.1114
 3434TIP3    H231794   1.307   1.341   4.773 -0.1074  0.0375 -1.0764
 3435TIP3   OH231795   6.005   3.721   5.234  0.2230  0.1155  0.6638
 3435TIP3    H131796   5.974   3.694   5.148 -0.0636  0.7784  0.5530
 3435TIP3    H231797   6.080   3.779   5.216  1.2473 -1.0827  0.9121
 3436TIP3   OH231798   4.447   6.157  13.434  0.0755 -0.2801  0.0850
 3436TIP3    H131799   4.421   6.074  13.395  1.9235 -1.7153  1.7137
 3436TIP3    H231800   4.368   6.190  13.476 -1.1459 -0.2244 -2.0948
 3437TIP3   OH231801   3.032   5.004   0.108 -0.5630 -0.4661 -0.5668
 3437TIP3    H131802   3.058   4.913   0.095  0.4547 -0.3512  0.5026
 3437TIP3    H231803   3.020   5.012   0.203  0.2741  0.7446 -0.5406
 3438TIP3   OH231804   4.158   1.191   2.645 -0.2039  0.0131  0.5542
 3438TIP3    H131805   4.135   1.282   2.663 -0.5413 -0.0961  0.6753
 3438TIP3    H231806   4.077   1.142   2.661  0.1635 -0.3975  1.1669
 3439TIP3   OH231807   4.158   3.559  12.182 -0.1950 -0.0212 -0.0968
 3439TIP3    H131808   4.241   3.524  12.152 -0.6396  1.2837 -3.2178
 3439TIP3    H231809   4.169   3.654  12.179 -1.3313  0.1797  0.9817
 3440TIP3   OH231810   5.910   3.088   3.365 -0.0093  0.0333  0.1801
 3440TIP3    H131811   5.911   3.097   3.270 -0.9656  0.7101  0.2263
 3440TIP3    H231812   5.821   3.063   3.387  0.1620  0.0215  0.9103
 3441TIP3   OH231813   2.764   4.991  16.005  0.5635 -0.0904 -0.3056
 3441TIP3    H131814   2.797   4.950  16.084 -1.4120  0.6044  0.9528
 3441TIP3    H231815   2.691   5.047  16.035  0.9486  1.6556 -2.3547
 3442TIP3   OH231816   5.445   6.428  16.304  0.3732  0.5671 -0.2859
 3442TIP3    H131817   5.423   6.337  16.286 -0.1824  0.4121  0.9988
 3442TIP3    H231818   5.459   6.430  16.399  1.6252  1.5747 -0.4719
 3443TIP3   OH231819   4.563   1.017  14.552 -0.4093 -0.5465  0.0421
 3443TIP3    H131820   4.620   0.959  14.602  1.3195 -0.6919 -1.9212
 3443TIP3    H231821   4.616   1.096  14.539 -1.3703  0.0607 -0.3182
 3444TIP3   OH231822   4.044   4.774  15.510  0.7547 -0.0506 -0.1959
 3444TIP3    H131823   4.110   4.813  15.567  2.0989 -2.8857  0.3627
 3444TIP3    H231824   4.009   4.700  15.561 -1.1256 -0.0989 -1.4374
 3445TIP3   OH231825   3.381   0.546   1.699  0.2184  0.0281 -0.3142
 3445TIP3    H131826   3.300   0.520   1.743  1.3776 -1.5621  1.0155
 3445TIP3    H231827   3.354   0.568   1.610 -1.9161  1.2975  0.5488
 3446TIP3   OH231828   3.671   0.838   0.494  0.8055  0.0154 -0.3366
 3446TIP3    H131829   3.698   0.766   0.437 -0.7370 -0.4818 -0.4832
 3446TIP3    H231830   3.629   0.901   0.436 -1.5122 -0.8668  0.2831
 3447TIP3   OH231831   3.950   2.930   2.015  0.2817  0.2553  0.3372
 3447TIP3    H131832   3.969   3.007   2.069  2.2149 -2.1167  3.3722
 3447TIP3    H231833   4.027   2.920   1.959 -0.8707  1.5600 -1.6400
 3448TIP3   OH231834   4.793   2.742   3.741 -0.6680 -0.7365 -0.3733
 3448TIP3    H131835   4.839   2.759   3.659  0.0621 -0.9647 -0.0281
 3448TIP3    H231836   4.812   2.651   3.761 -1.7790 -1.0086 -0.5194
 3449TIP3   OH231837   2.453   1.715  14.226 -0.2931  0.2152  0.0291
 3449TIP3    H131838   2.536   1.712  14.179 -0.2009 -1.4600  0.2358
 3449TIP3    H231839   2.387   1.703  14.158 -0.3876  1.3518 -0.1078
 3450TIP3   OH231840   0.784   4.775   0.725 -0.4314 -0.0975 -0.1040
 3450TIP3    H131841   0.696   4.767   0.762  0.2646 -0.0153  1.6339
 3450TIP3    H231842   0.799   4.692   0.681 -0.4902 -1.0684  1.6366
 3451TIP3   OH231843   5.830   1.453   3.714 -0.1537  0.3838 -0.4690
 3451TIP3    H131844   5.790   1.524   3.664 -0.0230  0.6363 -0.2214
 3451TIP3    H231845   5.897   1.417   3.657 -0.8637 -0.1755 -0.9681
 3452TIP3   OH231846   4.973   3.602  14.037 -0.3610  0.2719 -0.0368
 3452TIP3    H131847   4.998   3.579  14.127 -0.4718  1.9699  0.4571
 3452TIP3    H231848   5.037   3.558  13.982  2.3968  2.6010  1.0859
 3453TIP3   OH231849   0.936   4.129  12.317  0.1515 -0.0644 -0.2313
 3453TIP3    H131850   0.891   4.113  12.400  0.4715 -0.1494 -0.0735
 3453TIP3    H231851   1.002   4.195  12.338 -0.9895  1.3236 -0.8208
 3454TIP3   OH231852   1.438   6.416   1.541 -0.4184  0.2195 -0.1349
 3454TIP3    H131853   1.470   6.354   1.476  1.4946  0.0217  0.9155
 3454TIP3    H231854   1.432   6.500   1.494  2.2556  0.3997 -0.3250
 3455TIP3   OH231855   0.232   2.950   3.047  0.1652  0.3787  0.1681
 3455TIP3    H131856   0.262   2.920   2.961  1.2045 -1.2396  1.0528
 3455TIP3    H231857   0.312   2.953   3.100 -0.8691 -2.1987  2.0632
 3456TIP3   OH231858   0.662   2.553  13.122  0.0122  0.2989  0.6312
 3456TIP3    H131859   0.625   2.483  13.175 -0.8099  0.0394 -0.2563
 3456TIP3    H231860   0.756   2.550  13.140 -0.1949 -0.0467  1.7324
 3457TIP3   OH231861   0.453   1.041  15.023 -0.0310 -0.5263  0.3540
 3457TIP3    H131862   0.417   1.121  14.985  0.4758 -0.4878 -0.0518
 3457TIP3    H231863   0.477   1.065  15.113  0.6240 -0.0735  0.0628
 3458TIP3   OH231864   2.822   5.369  11.663  0.1997 -0.4447  0.2678
 3458TIP3    H131865   2.901   5.398  11.618 -1.3604  1.6705 -1.3444
 3458TIP3    H231866   2.847   5.364  11.755  2.2898 -0.2837 -0.2323
 3459TIP3   OH231867   5.456   2.426  12.365  0.0038 -0.1559 -0.0812
 3459TIP3    H131868   5.502   2.343  12.351 -0.9076 -0.8051  0.6122
 3459TIP3    H231869   5.385   2.404  12.426 -1.1723  0.8275 -1.0458
 3460TIP3   OH231870   4.804   2.643  14.011 -0.1128  0.0829 -0.2227
 3460TIP3    H131871   4.823   2.550  14.014 -1.9229 -0.3658 -0.8483
 3460TIP3    H231872   4.785   2.660  13.918 -1.0392  0.7685  0.0723
 3461TIP3   OH231873   1.208   2.863  15.532 -0.5574  0.0663 -0.1207
 3461TIP3    H131874   1.188   2.899  15.619 -1.4131 -0.9482  0.1376
 3461TIP3    H231875   1.205   2.768  15.545  1.6212 -0.1584 -0.7570
 3462TIP3   OH231876   0.706   5.851  11.924 -0.5571 -0.0567  0.2445
 3462TIP3    H131877   0.769   5.791  11.964 -1.3575 -2.3096 -1.6327
 3462TIP3    H231878   0.666   5.897  11.998  1.0447 -0.8496  1.6724
 3463TIP3   OH231879   0.473   1.318   4.820 -0.3754 -0.6360 -0.6096
 3463TIP3    H131880   0.437   1.316   4.732 -1.4821 -0.8721 -0.1593
 3463TIP3    H231881   0.416   1.262   4.872 -0.7580  0.8124  0.6233
 3464TIP3   OH231882   0.413   6.569   5.117 -0.1981  0.2366 -0.3001
 3464TIP3    H131883   0.346   6.565   5.048 -0.3363  1.1687 -0.2300
 3464TIP3    H231884   0.496   6.575   5.069 -0.2291  0.0317 -0.3828
 3465TIP3   OH231885   4.065   2.148  13.266 -0.4728  0.5987  0.0427
 3465TIP3    H131886   3.977   2.140  13.228 -1.0931 -0.5414  1.6168
 3465TIP3    H231887   4.105   2.063  13.251 -0.7517  0.1028  1.9138
 3466TIP3   OH231888   5.757   1.337   5.125  0.2454  0.2149  0.0239
 3466TIP3    H131889   5.704   1.275   5.074  2.1727 -0.0975 -1.7563
 3466TIP3    H231890   5.831   1.285   5.157  1.0253  1.2244 -0.0777
 3467TIP3   OH231891   1.569   0.547  11.950 -0.2732 -0.5064  0.3330
 3467TIP3    H131892   1.483   0.568  11.912 -0.2118  0.4605  0.7109
 3467TIP3    H231893   1.555   0.463  11.994 -1.2926  0.1072  1.2350
 3468TIP3   OH231894   2.861   0.937  11.045 -0.6030 -0.9850  0.1658
 3468TIP3    H131895   2.950   0.946  11.078 -1.0282 -0.0353  1.0780
 3468TIP3    H231896   2.805   0.958  11.119 -1.5913  1.4592 -1.1468
 3469TIP3   OH231897   2.809   6.419   4.274  0.2014  0.0347 -0.3482
 3469TIP3    H131898   2.756   6.339   4.273 -0.6776  0.6055 -2.0782
 3469TIP3    H231899   2.849   6.419   4.361 -3.9921  0.4892  1.8371
 3470TIP3   OH231900   4.408   2.321  16.664 -0.3511  0.3851  0.5124
 3470TIP3    H131901   4.395   2.401  16.715 -0.9194 -0.3046  1.4690
 3470TIP3    H231902   4.329   2.270  16.678  0.1495 -0.5033  0.1751
 3471TIP3   OH231903   1.308   5.441  13.912 -0.2390  0.2500 -0.4547
 3471TIP3    H131904   1.273   5.353  13.930 -0.8202  0.3710 -0.9457
 3471TIP3    H231905   1.400   5.437  13.939  0.3788 -1.1966 -2.5535
 3472TIP3   OH231906   6.391   3.760  16.071  0.2702  0.2559 -0.2757
 3472TIP3    H131907   6.464   3.791  16.125 -0.2475  0.1381  0.5051
 3472TIP3    H231908   6.349   3.840  16.039 -0.7073  0.3886  1.2537
 3473TIP3   OH231909   1.949   3.406   3.581  0.2402  0.5272  0.5394
 3473TIP3    H131910   1.915   3.451   3.504 -0.0417  0.4820  0.6358
 3473TIP3    H231911   1.981   3.477   3.638  1.4416  0.5068 -0.0754
 3474TIP3   OH231912   2.974   4.682   3.899  0.0719 -0.4759  0.2682
 3474TIP3    H131913   3.012   4.767   3.919  2.8198 -1.3428 -0.8619
 3474TIP3    H231914   3.048   4.622   3.897 -1.4046 -2.3935 -1.6011
 3475TIP3   OH231915   3.175   3.673  11.457 -0.3526  0.0147 -0.8987
 3475TIP3    H131916   3.182   3.579  11.468 -2.4847 -0.2373 -1.1596
 3475TIP3    H231917   3.236   3.694  11.387  1.1772 -0.9193  0.1014
 3476TIP3   OH231918   1.708   2.073  15.571 -0.2145 -0.5105 -0.3422
 3476TIP3    H131919   1.662   1.990  15.588  1.2544 -1.1846  0.5769
 3476TIP3    H231920   1.795   2.046  15.542  0.3286  0.7060  0.1048
 3477TIP3   OH231921   4.509   5.058   2.221 -0.1804 -0.0356  0.0820
 3477TIP3    H131922   4.503   5.073   2.316  0.8168 -1.9791  0.4933
 3477TIP3    H231923   4.594   5.093   2.197  0.6754 -1.8044  0.4132
 3478TIP3   OH231924   6.621   2.887  12.794  0.1423  0.9379  0.1090
 3478TIP3    H131925   6.657   2.865  12.708  0.2990 -1.7743  0.7920
 3478TIP3    H231926   6.527   2.899  12.778  0.1742  0.4909 -0.4444
 3479TIP3   OH231927   6.329   1.223   1.166 -0.0573 -0.3722 -0.2424
 3479TIP3    H131928   6.333   1.317   1.185  0.5228 -0.0250 -1.8525
 3479TIP3    H231929   6.329   1.219   1.070  1.8302 -2.0569 -0.2243
 3480TIP3   OH231930   5.386   6.037   1.441 -0.1879 -0.4289  0.0020
 3480TIP3    H131931   5.377   6.109   1.504  0.6301 -1.2310  1.0698
 3480TIP3    H231932   5.329   6.062   1.368  0.7358  1.7192 -0.0519
 3481TIP3   OH231933   3.093   3.348   1.580 -0.6670  0.0110  0.4923
 3481TIP3    H131934   3.171   3.356   1.525 -0.6399  0.3503  0.5797
 3481TIP3    H231935   3.128   3.341   1.669 -0.6734 -1.2670  0.4252
 3482TIP3   OH231936   1.158   2.264  12.699 -0.4299 -0.0590 -0.3867
 3482TIP3    H131937   1.147   2.171  12.679  0.1166  0.4054 -3.4182
 3482TIP3    H231938   1.180   2.267  12.792 -0.9896 -2.8833 -0.0790
 3483TIP3   OH231939   5.649   4.255   0.191  0.4959  0.9196 -0.4312
 3483TIP3    H131940   5.715   4.321   0.168  2.1621  0.1413  1.7600
 3483TIP3    H231941   5.653   4.191   0.120  0.5159  2.0007 -1.4190
 3484TIP3   OH231942   3.264   4.226  10.887 -0.1249  0.0147 -0.4569
 3484TIP3    H131943   3.284   4.196  10.798 -1.2557 -0.4235 -0.5752
 3484TIP3    H231944   3.169   4.214  10.896  0.0685 -0.6300  1.0560
 3485TIP3   OH231945   1.809   5.522   2.605 -0.5969  0.1530  0.0911
 3485TIP3    H131946   1.815   5.613   2.574 -2.2774  0.8915  1.7002
 3485TIP3    H231947   1.718   5.514   2.634  0.1867 -1.2654  2.3054
 3486TIP3   OH231948   1.163   2.574  15.592  0.0337 -0.0484 -0.4092
 3486TIP3    H131949   1.068   2.574  15.598  0.0119  3.0274  1.1793
 3486TIP3    H231950   1.184   2.498  15.537 -3.4279  0.4515 -2.7164
 3487TIP3   OH231951   2.563   1.272   1.297 -0.3126 -0.0952 -0.0517
 3487TIP3    H131952   2.481   1.293   1.343  0.0272  2.0226 -0.3202
 3487TIP3    H231953   2.611   1.355   1.294  1.8871 -1.2780  0.1295
 3488TIP3   OH231954   2.258   2.494  13.769  0.0175 -0.2131 -0.2280
 3488TIP3    H131955   2.318   2.420  13.779  4.6286  3.0194 -1.2708
 3488TIP3    H231956   2.289   2.560  13.831 -2.2952  1.8384 -1.0729
 3489TIP3   OH231957   4.298   3.247  13.633  0.6715  0.1788  1.1259
 3489TIP3    H131958   4.203   3.249  13.634  0.6563 -0.3184  1.7035
 3489TIP3    H231959   4.323   3.233  13.725  1.3501  1.8804  1.2486
 3490TIP3   OH231960   4.229   2.536  12.282  0.0838  0.1596 -0.4430
 3490TIP3    H131961   4.280   2.610  12.315 -1.8679  0.3937  2.4517
 3490TIP3    H231962   4.141   2.571  12.271 -0.2070 -0.9990 -2.2061
 3491TIP3   OH231963   1.186   3.269   5.112 -0.1378  0.7275  1.2277
 3491TIP3    H131964   1.117   3.234   5.168 -1.2569  2.4823  1.0327
 3491TIP3    H231965   1.156   3.357   5.089  0.7134  0.4459 -1.3485
 3492TIP3   OH231966   0.242   2.108   3.191 -0.3198 -0.2646 -0.6553
 3492TIP3    H131967   0.316   2.169   3.192 -1.1595  0.8248  0.8094
 3492TIP3    H231968   0.187   2.140   3.119 -0.3005  0.1394 -0.4975
 3493TIP3   OH231969   3.546   2.426   3.073  0.1641  0.2812 -0.6202
 3493TIP3    H131970   3.476   2.364   3.095 -1.9231  1.7533 -2.7308
 3493TIP3    H231971   3.625   2.372   3.069 -1.5175 -2.2552 -2.1770
 3494TIP3   OH231972   2.894   5.776  16.266  0.4798  0.0950  0.6366
 3494TIP3    H131973   2.926   5.718  16.197 -0.8718  0.4374 -0.3116
 3494TIP3    H231974   2.973   5.802  16.313  1.2555 -1.4826  0.2885
 3495TIP3   OH231975   5.925   5.990  15.243  0.5129 -0.3111  0.0810
 3495TIP3    H131976   5.997   5.940  15.281  0.0322 -0.0187  1.4411
 3495TIP3    H231977   5.890   6.041  15.316 -1.7207 -1.1883 -0.2915
 3496TIP3   OH231978   3.144   3.077  14.166  0.5618  0.2897  0.2383
 3496TIP3    H131979   3.056   3.040  14.166  0.4966  0.4368  0.5765
 3496TIP3    H231980   3.149   3.125  14.250  0.2511  1.9276 -0.6287
 3497TIP3   OH231981   1.465   6.385   4.341  0.1646 -0.8845  0.6180
 3497TIP3    H131982   1.449   6.310   4.398  0.5930 -1.3650  0.1147
 3497TIP3    H231983   1.542   6.427   4.379 -0.9113  0.1709  1.7583
 3498TIP3   OH231984   5.331   3.224   3.129  0.0289  0.2853  0.4575
 3498TIP3    H131985   5.285   3.284   3.071 -0.3992 -0.6253 -0.1768
 3498TIP3    H231986   5.293   3.240   3.215  0.1500  1.1375  0.3607
 3499TIP3   OH231987   1.241   0.548  11.330 -0.0056  0.4188 -0.0276
 3499TIP3    H131988   1.241   0.572  11.237 -0.3458 -2.2661 -0.7998
 3499TIP3    H231989   1.289   0.465  11.334 -1.0002 -0.1265  2.0148
 3500TIP3   OH231990   4.738   3.169  11.793  0.3048 -0.3112 -0.6326
 3500TIP3    H131991   4.669   3.139  11.733 -0.2153 -2.5896  0.9648
 3500TIP3    H231992   4.713   3.132  11.878  2.0404  1.1908  0.6042
 3501TIP3   OH231993   3.092   2.742  15.243 -0.5944  0.3725 -0.0500
 3501TIP3    H131994   3.007   2.701  15.262  0.1927 -1.2962 -0.0029
 3501TIP3    H231995   3.137   2.679  15.187  0.7397  1.0999  0.1826
 3502TIP3   OH231996   1.763   0.694   5.221 -0.0504  0.0154 -0.0832
 3502TIP3    H131997   1.674   0.672   5.196 -0.0884  0.5295 -0.4150
 3502TIP3    H231998   1.755   0.776   5.270 -0.0089 -1.0929  1.8816
 3503TIP3   OH231999   5.538   3.990  13.409 -0.0275 -0.1868  0.3347
 3503TIP3    H132000   5.618   4.002  13.459  0.2495  0.2488 -0.2191
 3503TIP3    H232001   5.468   4.019  13.469 -0.0419 -2.7569  1.7296
 3504TIP3   OH232002   4.716   2.995   1.038  0.3235  0.7461 -0.2606
 3504TIP3    H132003   4.755   3.035   1.116  1.4166  1.8246 -1.3328
 3504TIP3    H232004   4.718   3.064   0.972 -0.6160 -0.1461 -1.2519
 3505TIP3   OH232005   2.950   3.445  14.809  0.3397  0.0759  0.0621
 3505TIP3    H132006   2.907   3.417  14.728 -0.4110 -0.9056  0.7793
 3505TIP3    H232007   2.943   3.370  14.867 -0.0936  1.1310  1.4207
 3506TIP3   OH232008   5.607   6.000   4.769 -0.0440  0.3895 -0.1186
 3506TIP3    H132009   5.611   5.994   4.673  0.8884 -0.7063 -0.0339
 3506TIP3    H232010   5.690   5.963   4.799 -0.3971  0.5557  1.1290
 3507TIP3   OH232011   6.605   6.019  14.033  0.2047 -0.3824 -0.4582
 3507TIP3    H132012   6.593   6.014  13.938  1.0389  0.3130 -0.6039
 3507TIP3    H232013   6.690   5.977  14.049 -0.3787 -1.3978  0.1012
 3508TIP3   OH232014   1.410   2.652   4.403 -0.3878  0.1519 -0.7224
 3508TIP3    H132015   1.500   2.674   4.377  0.3583 -1.1866  0.5636
 3508TIP3    H232016   1.379   2.730   4.451  0.4536  0.2579 -0.3322
 3509TIP3   OH232017   6.707   4.210  16.717  0.4330 -0.5828 -0.1955
 3509TIP3    H132018   6.787   4.213  16.664  0.1876  0.8613 -0.5190
 3509TIP3    H232019   6.733   4.164  16.796  1.7530  0.3625 -0.0385
 3510TIP3   OH232020   3.301   4.306   4.200  0.5688 -0.5781 -0.0472
 3510TIP3    H132021   3.233   4.245   4.230  0.3964 -0.3297  0.0741
 3510TIP3    H232022   3.373   4.294   4.262 -0.0415  0.4126  0.8932
 3511TIP3   OH232023   2.957   1.550  13.890  0.3527  0.6767 -0.3844
 3511TIP3    H132024   2.964   1.459  13.921 -1.5138  0.3784 -0.7646
 3511TIP3    H232025   2.876   1.552  13.840  0.5448  2.4902 -0.6609
 3512TIP3   OH232026   0.677   4.150  12.752  0.2801 -0.0972  0.0775
 3512TIP3    H132027   0.649   4.138  12.842  0.4183  0.5139  0.2087
 3512TIP3    H232028   0.696   4.244  12.745 -1.5041  0.2255 -1.0880
 3513TIP3   OH232029   4.157   4.000   5.044  0.6063 -0.1369 -0.0148
 3513TIP3    H132030   4.072   3.958   5.032  0.0179  0.6827  1.1243
 3513TIP3    H232031   4.197   3.999   4.957 -0.5796 -0.5060 -0.5671
 3514TIP3   OH232032   4.836   6.465  13.593 -0.5064 -0.0824  0.2982
 3514TIP3    H132033   4.826   6.553  13.628 -2.1701  0.6189 -1.7165
 3514TIP3    H232034   4.757   6.419  13.620 -0.3191 -0.5113  0.1314
 3515TIP3   OH232035   4.439   6.746   4.704 -0.3089 -0.4480 -0.4222
 3515TIP3    H132036   4.527   6.757   4.738  0.0749 -1.6834 -0.9666
 3515TIP3    H232037   4.404   6.835   4.698  1.1215  0.1093 -0.7955
 3516TIP3   OH232038   2.689   2.536  17.373 -1.0600 -0.1573 -0.0043
 3516TIP3    H132039   2.666   2.517  17.464 -0.7880 -0.3825  0.0158
 3516TIP3    H232040   2.749   2.610  17.379 -1.9818  0.6212 -0.0711
 3517TIP3   OH232041   6.112   2.374  13.051  0.6095 -0.2860  1.1310
 3517TIP3    H132042   6.049   2.443  13.075  0.3686 -0.4768  1.0482
 3517TIP3    H232043   6.093   2.302  13.111 -0.0702 -0.8097  0.3090
 3518TIP3   OH232044   4.767   0.188   3.897  0.1038 -0.8431  0.6237
 3518TIP3    H132045   4.744   0.279   3.876  1.6220 -0.7327 -0.7343
 3518TIP3    H232046   4.696   0.158   3.954  0.2716  1.6358  2.2983
 3519TIP3   OH232047   3.759   5.511   3.393  0.3538  0.1022 -0.2348
 3519TIP3    H132048   3.807   5.483   3.315  1.8324  1.6102  0.0715
 3519TIP3    H232049   3.741   5.604   3.378 -2.4070 -0.3505 -0.2554
 3520TIP3   OH232050   5.674   6.256   2.627  0.1970 -0.2771 -0.8818
 3520TIP3    H132051   5.614   6.209   2.569  1.2517 -1.9934 -0.6449
 3520TIP3    H232052   5.750   6.275   2.572  0.3985 -0.1809 -0.5722
 3521TIP3   OH232053   6.602   3.061   3.232 -0.5516 -0.3150 -0.1924
 3521TIP3    H132054   6.616   3.152   3.207 -0.9942  0.1746  1.1977
 3521TIP3    H232055   6.610   3.062   3.328  1.3938 -2.1062 -0.2901
 3522TIP3   OH232056   5.220   6.741   1.684  0.6846 -0.0804 -0.5796
 3522TIP3    H132057   5.178   6.805   1.742  1.3745 -0.4225  0.3125
 3522TIP3    H232058   5.211   6.657   1.730 -0.0278 -0.6181 -1.6402
 3523TIP3   OH232059   2.516   3.866  17.033  0.3552  0.0478  0.6592
 3523TIP3    H132060   2.425   3.848  17.009  0.1906  1.0400  0.4963
 3523TIP3    H232061   2.531   3.956  17.004  1.4297 -0.1469  0.5782
 3524TIP3   OH232062   3.900   3.669   2.731  0.3627 -0.0469  0.0241
 3524TIP3    H132063   3.867   3.754   2.701  1.8424 -0.5100 -3.3292
 3524TIP3    H232064   3.980   3.689   2.780  0.2142  0.5147  0.0375
 3525TIP3   OH232065   0.608   0.668  13.407 -0.1007  0.1916 -0.1162
 3525TIP3    H132066   0.576   0.722  13.335 -0.7618 -1.9948 -1.5491
 3525TIP3    H232067   0.695   0.702  13.426 -0.7971  2.2667 -0.3538
 3526TIP3   OH232068   3.981   5.126  14.569 -0.3657  0.0488 -1.1295
 3526TIP3    H132069   4.067   5.105  14.531 -0.6697  0.2815 -1.9801
 3526TIP3    H232070   3.937   5.042  14.576  1.0132 -0.5445  2.2043
 3527TIP3   OH232071   4.909   4.109   5.902  0.0432  0.6738 -0.1275
 3527TIP3    H132072   4.996   4.124   5.865  0.2654  0.1290  0.1590
 3527TIP3    H232073   4.920   4.034   5.960 -0.7902  0.0623 -0.7283
 3528TIP3   OH232074   4.568   2.004  11.704  0.0628 -0.0315  0.0119
 3528TIP3    H132075   4.535   2.059  11.632  2.2161  1.4074  0.0261
 3528TIP3    H232076   4.490   1.967  11.743 -1.3420  1.0803 -1.5775
 3529TIP3   OH232077   0.165   5.892   1.426  0.5688 -0.2919  0.6495
 3529TIP3    H132078   0.074   5.918   1.432  0.6356 -0.1412  1.0519
 3529TIP3    H232079   0.179   5.835   1.502  0.7598 -0.4613  0.4892
 3530TIP3   OH232080   5.754   0.468  15.508  0.1841  0.3902  0.3756
 3530TIP3    H132081   5.826   0.528  15.488 -0.6645  0.8784 -1.4310
 3530TIP3    H232082   5.782   0.423  15.588  1.4767  2.1469  0.9753
 3531TIP3   OH232083   0.475   2.667   5.134  0.0609  0.7597  0.1705
 3531TIP3    H132084   0.451   2.692   5.044  0.0948 -2.4568 -0.8905
 3531TIP3    H232085   0.394   2.674   5.183 -0.8555 -0.6817 -1.0255
 3532TIP3   OH232086   2.174   1.431   5.623  0.1008  0.2613  0.5426
 3532TIP3    H132087   2.147   1.387   5.703 -0.2234  1.8951  1.3761
 3532TIP3    H232088   2.098   1.482   5.596  0.3323  0.0393 -0.6114
 3533TIP3   OH232089   4.381   5.767   0.335  0.1513  0.2690  0.0881
 3533TIP3    H132090   4.318   5.821   0.383  0.2421 -0.6567  1.3118
 3533TIP3    H232091   4.458   5.764   0.392  1.7439  2.1715 -1.7989
 3534TIP3   OH232092   5.034   5.804   0.202  0.6482  0.0295 -0.1764
 3534TIP3    H132093   5.044   5.814   0.107  0.6260 -1.2981 -0.3469
 3534TIP3    H232094   5.093   5.869   0.240  2.1861 -0.7563 -1.1262
 3535TIP3   OH232095   0.777   2.808   0.809 -0.3254  0.3936  0.0413
 3535TIP3    H132096   0.770   2.742   0.877 -0.7601 -0.6217 -0.9625
 3535TIP3    H232097   0.701   2.864   0.821 -1.5597 -1.0142 -0.8456
 3536TIP3   OH232098   3.353   1.445   3.853  0.1525 -0.6168  0.4722
 3536TIP3    H132099   3.385   1.386   3.921  0.6375 -2.1615 -1.0285
 3536TIP3    H232100   3.296   1.390   3.798 -1.3835  0.9295  0.4146
 3537TIP3   OH232101   5.212   3.364   4.815  0.1378  0.2014  0.1243
 3537TIP3    H132102   5.299   3.402   4.816  0.4913 -0.5660 -0.6556
 3537TIP3    H232103   5.222   3.281   4.769 -0.9627  0.0073  0.2026
 3538TIP3   OH232104   6.305   2.436   2.002 -0.9271  0.2473 -0.2645
 3538TIP3    H132105   6.376   2.491   2.035  0.5122 -1.2616 -0.7278
 3538TIP3    H232106   6.253   2.414   2.079 -0.4114  0.6942  0.2167
 3539TIP3   OH232107   6.533   4.822   0.940 -0.0252 -0.0865 -0.5179
 3539TIP3    H132108   6.485   4.777   1.009  0.2158 -1.7570 -1.3993
 3539TIP3    H232109   6.625   4.806   0.960  0.0528 -2.9103 -2.6027
 3540TIP3   OH232110   0.851   4.514   3.865 -0.0961  0.1893  0.0145
 3540TIP3    H132111   0.882   4.425   3.851 -0.6479 -0.1151  0.6447
 3540TIP3    H232112   0.756   4.505   3.876  0.0410  0.6162  1.8539
 3541TIP3   OH232113   1.148   1.987   6.581  0.1442  0.2059 -0.2010
 3541TIP3    H132114   1.107   1.919   6.634  0.2279 -0.4741 -1.0007
 3541TIP3    H232115   1.082   2.010   6.516 -0.2459  1.5791  0.6277
 3542TIP3   OH232116   4.320   3.821   1.079  0.1126 -0.0249 -0.3201
 3542TIP3    H132117   4.400   3.830   1.132 -1.6735 -0.8953  2.7817
 3542TIP3    H232118   4.291   3.911   1.064  0.0240  0.2616  1.3384
 3543TIP3   OH232119   3.478   0.850   4.259  0.2491  0.6613 -0.1353
 3543TIP3    H132120   3.563   0.875   4.221  0.7681 -1.2555 -0.3078
 3543TIP3    H232121   3.429   0.814   4.185 -0.2280  0.5608  0.2266
 3544TIP3   OH232122   5.331   0.577  13.032  0.2620  0.5268  0.1784
 3544TIP3    H132123   5.358   0.506  12.975 -1.2464 -0.0204  0.0837
 3544TIP3    H232124   5.400   0.643  13.024  1.0671 -0.3914 -0.6947
 3545TIP3   OH232125   3.050   1.452   1.148  0.1170 -0.4428  0.0889
 3545TIP3    H132126   2.970   1.505   1.138  1.1848  1.1642 -0.3953
 3545TIP3    H232127   3.047   1.390   1.076 -0.7535 -0.4865  0.1534
 3546TIP3   OH232128   3.544   4.666   5.701 -0.1738 -0.2676  0.0307
 3546TIP3    H132129   3.617   4.725   5.719 -0.6731 -0.2618  2.2986
 3546TIP3    H232130   3.472   4.701   5.752 -0.6944 -2.4229  0.8654
 3547TIP3   OH232131   1.781   5.795   0.015  0.4090 -0.0775  0.4486
 3547TIP3    H132132   1.694   5.761   0.036  0.5720 -0.0728  1.1572
 3547TIP3    H232133   1.840   5.748   0.075  0.6404  1.4606  1.4893
 3548TIP3   OH232134   4.961   3.535   5.998  0.3105  0.5333  0.1277
 3548TIP3    H132135   4.960   3.520   5.903 -0.8811 -1.7130  0.4105
 3548TIP3    H232136   4.887   3.593   6.014  0.3753  0.7371 -0.2971
 3549TIP3   OH232137   5.812   4.418   6.818  0.3260  0.5703  0.1726
 3549TIP3    H132138   5.787   4.360   6.747  0.5557 -0.6364  1.0512
 3549TIP3    H232139   5.836   4.360   6.890 -0.0693  1.7595  1.3069
 3550TIP3   OH232140   6.232   3.590   4.808  0.4861  0.2184 -0.0111
 3550TIP3    H132141   6.199   3.503   4.784  0.4780  0.4122 -0.7041
 3550TIP3    H232142   6.281   3.620   4.732 -0.1643  1.1500 -0.0830
 3551TIP3   OH232143   0.557   6.033   2.601 -0.2128 -0.3145  0.4687
 3551TIP3    H132144   0.587   5.944   2.582  3.8945  0.6895  1.2968
 3551TIP3    H232145   0.529   6.067   2.516  0.7896 -1.5228 -0.3895
 3552TIP3   OH232146   0.749   4.127   4.573 -0.3274 -0.4606  0.1469
 3552TIP3    H132147   0.678   4.183   4.541 -0.9279 -0.0347  2.0603
 3552TIP3    H232148   0.704   4.057   4.620  0.4929 -0.7942  0.4440
 3553TIP3   OH232149   2.076   3.184   3.512 -0.3708 -0.1002  0.1963
 3553TIP3    H132150   2.040   3.269   3.537  1.4956  0.7587  0.1614
 3553TIP3    H232151   2.094   3.192   3.418  0.0423 -0.4280  0.2423
 3554TIP3   OH232152   6.585   1.244   4.589 -0.3482  0.9688 -0.0368
 3554TIP3    H132153   6.666   1.200   4.612 -0.9812  0.3653  1.0827
 3554TIP3    H232154   6.612   1.334   4.567  0.4626  1.1843  1.7023
 3555TIP3   OH232155   6.726   6.231  11.243  0.2857  0.6943  0.3525
 3555TIP3    H132156   6.820   6.222  11.233  0.0913  0.5968 -1.7262
 3555TIP3    H232157   6.699   6.291  11.174 -1.5101 -1.4008 -0.9024
 3556TIP3   OH232158   2.404   4.558   5.403  0.4699  0.4318  0.2267
 3556TIP3    H132159   2.464   4.485   5.389 -1.4476 -0.9141 -1.5000
 3556TIP3    H232160   2.317   4.519   5.400 -0.5954  2.6710 -0.0390
 3557TIP3   OH232161   2.019   5.871  15.629  0.1108  0.2690  0.3260
 3557TIP3    H132162   2.084   5.902  15.692  0.6906  0.0304 -0.1437
 3557TIP3    H232163   2.067   5.864  15.547 -0.3240 -0.6531  0.1397
 3558TIP3   OH232164   3.569   3.291  11.835 -0.2751 -0.2086 -0.0529
 3558TIP3    H132165   3.583   3.221  11.771  1.3655  1.1642 -1.2920
 3558TIP3    H232166   3.513   3.354  11.791  0.2556  0.3987  0.1161
 3559TIP3   OH232167   1.952   5.904   2.473  0.0179  0.7761 -0.2510
 3559TIP3    H132168   1.934   5.877   2.383  2.3012 -2.4028  0.0873
 3559TIP3    H232169   2.044   5.930   2.472  0.3097 -0.0898  1.2900
 3560TIP3   OH232170   1.535   1.079  16.055  0.2513 -0.2124 -0.0546
 3560TIP3    H132171   1.517   1.115  16.142  0.3602 -0.0473 -0.1003
 3560TIP3    H232172   1.449   1.071  16.014  0.1558 -0.7476  0.2493
 3561TIP3   OH232173   1.447   5.679   4.615 -0.4321  0.4440  0.1571
 3561TIP3    H132174   1.415   5.766   4.639  0.1119  0.3978  1.0793
 3561TIP3    H232175   1.530   5.670   4.660  0.0942 -0.0986 -0.8752
 3562TIP3   OH232176   3.934   0.788   0.648 -0.2712  0.3227  0.4988
 3562TIP3    H132177   3.850   0.808   0.690 -0.6021  0.3502 -0.1624
 3562TIP3    H232178   3.960   0.870   0.606  0.3119  0.4398  1.0734
 3563TIP3   OH232179   2.991   5.731   3.385 -0.3533  0.5271 -0.3197
 3563TIP3    H132180   2.949   5.647   3.366 -0.5303  0.0765  1.7410
 3563TIP3    H232181   3.011   5.769   3.300 -1.8519 -0.8141 -1.3178
 3564TIP3   OH232182   2.029   1.753   2.621  0.1974 -0.4773  0.0683
 3564TIP3    H132183   2.094   1.688   2.592  1.3960  0.6968  0.0210
 3564TIP3    H232184   2.080   1.833   2.634 -1.1829  0.3544  0.5125
 3565TIP3   OH232185   4.656   5.490   2.453 -0.2186 -0.2258  0.4564
 3565TIP3    H132186   4.700   5.405   2.446  0.3477 -0.0818  1.9674
 3565TIP3    H232187   4.575   5.478   2.404  0.3646 -1.2738 -0.3132
 3566TIP3   OH232188   3.124   2.473  12.610 -0.0105 -0.1393  0.3850
 3566TIP3    H132189   3.145   2.381  12.595  0.3530  0.1666 -1.2903
 3566TIP3    H232190   3.035   2.482  12.577 -0.4736 -0.1222  1.6217
 3567TIP3   OH232191   2.551   5.349  10.878 -0.3269 -0.4518 -0.4101
 3567TIP3    H132192   2.561   5.439  10.910  1.3032 -0.8191  0.1792
 3567TIP3    H232193   2.463   5.323  10.907 -1.2278  1.2487 -1.4306
 3568TIP3   OH232194   1.109   3.457   4.907  0.3119 -0.2992 -0.2903
 3568TIP3    H132195   1.107   3.505   4.824 -0.0290  1.1429  0.5209
 3568TIP3    H232196   1.048   3.385   4.894 -0.6486  0.5912 -0.9131
 3569TIP3   OH232197   4.822   4.119   1.918 -0.3284 -0.6608 -0.0499
 3569TIP3    H132198   4.867   4.185   1.866 -3.4961  0.7576 -1.2534
 3569TIP3    H232199   4.862   4.125   2.004  0.9799  1.2582 -0.7275
 3570TIP3   OH232200   2.892   1.596   5.040  0.1689 -0.1830  0.0936
 3570TIP3    H132201   2.808   1.580   5.083  0.8540 -0.7217  1.2777
 3570TIP3    H232202   2.945   1.519   5.062  1.1298  0.3736 -0.2158
 3571TIP3   OH232203   3.060   3.647   1.734  0.2072  0.4457 -0.6371
 3571TIP3    H132204   3.097   3.559   1.722  1.8205  0.9845  0.1876
 3571TIP3    H232205   3.119   3.690   1.795 -1.3676  1.6496  0.1069
 3572TIP3   OH232206   5.182   3.692  11.351 -0.8133 -0.0280 -0.4319
 3572TIP3    H132207   5.128   3.613  11.348 -3.2694  1.5687 -1.7470
 3572TIP3    H232208   5.147   3.748  11.282  1.8284  1.6440 -0.5739
 3573TIP3   OH232209   3.066   6.074  16.560  0.2021  0.3776 -0.2691
 3573TIP3    H132210   3.031   6.162  16.547  0.2308  0.2066 -1.6832
 3573TIP3    H232211   3.003   6.030  16.617 -0.5443  0.8815 -0.6960
 3574TIP3   OH232212   6.554   6.420  11.844 -0.5771  0.6637  0.1593
 3574TIP3    H132213   6.543   6.430  11.750  0.5292 -1.8271 -0.3034
 3574TIP3    H232214   6.465   6.408  11.877 -1.1733  3.2797 -0.2228
 3575TIP3   OH232215   5.652   4.085  16.942 -0.3248 -0.1190  0.3441
 3575TIP3    H132216   5.608   4.053  17.021 -0.4605 -0.1904  0.2393
 3575TIP3    H232217   5.596   4.057  16.870 -0.0312 -0.3363  0.1995
 3576TIP3   OH232218   5.362   2.620  11.916  0.0784  0.2455  0.2866
 3576TIP3    H132219   5.392   2.643  12.004 -2.6620 -0.7291  1.6160
 3576TIP3    H232220   5.362   2.703  11.868 -1.0918  1.4030  2.1442
 3577TIP3   OH232221   1.729   2.233   4.905 -0.1554 -0.4773  0.1037
 3577TIP3    H132222   1.801   2.295   4.897  1.0261 -1.9461 -1.4565
 3577TIP3    H232223   1.729   2.208   4.997  0.5313  0.4557  0.3766
 3578TIP3   OH232224   1.395   2.511  14.497  0.6859 -0.0790  0.2687
 3578TIP3    H132225   1.463   2.468  14.549 -0.3196 -1.5533  0.4488
 3578TIP3    H232226   1.392   2.601  14.531  2.0082 -0.2021  0.7638
 3579TIP3   OH232227   2.954   6.424   4.500 -0.3614 -0.1499  0.1280
 3579TIP3    H132228   3.041   6.393   4.527 -0.6360 -0.8615  0.2195
 3579TIP3    H232229   2.899   6.408   4.577 -0.7356 -0.4010 -0.1932
 3580TIP3   OH232230   4.213   2.777   3.176 -0.4593 -0.0310  0.0278
 3580TIP3    H132231   4.134   2.805   3.130 -0.2926  0.6831  0.1668
 3580TIP3    H232232   4.185   2.700   3.226 -1.1781  0.4324  0.3739
 3581TIP3   OH232233   4.392   1.391  16.303 -0.1796 -0.1671  0.5086
 3581TIP3    H132234   4.360   1.432  16.223  0.9138 -0.8837 -0.3310
 3581TIP3    H232235   4.347   1.306  16.305  0.8842 -0.7637 -0.1500
 3582TIP3   OH232236   6.487   1.040  14.757 -0.0781 -0.1928  0.0435
 3582TIP3    H132237   6.420   1.029  14.824  0.0537  0.6639  0.3350
 3582TIP3    H232238   6.471   0.970  14.695  0.0372 -1.2499  1.1711
 3583TIP3   OH232239   3.278   4.743   0.544 -0.5441 -0.1369 -0.0818
 3583TIP3    H132240   3.281   4.717   0.452  1.3658 -0.0432 -0.0853
 3583TIP3    H232241   3.207   4.690   0.581 -0.6817 -0.9181 -1.3866
 3584TIP3   OH232242   4.296   3.619   4.254 -0.6500 -0.0962  0.2334
 3584TIP3    H132243   4.242   3.695   4.277 -2.1141 -1.0348 -0.0315
 3584TIP3    H232244   4.377   3.633   4.303 -2.1161  0.0143  2.7977
 3585TIP3   OH232245   5.701   0.536   1.984 -0.0596  0.1436 -0.5799
 3585TIP3    H132246   5.625   0.595   1.986 -1.9696 -2.1247 -1.2217
 3585TIP3    H232247   5.683   0.472   2.053  1.8907  0.2192  0.0323
 3586TIP3   OH232248   2.294   2.785  13.399  0.1358  0.0019  0.3519
 3586TIP3    H132249   2.362   2.834  13.444  0.7157 -0.0191 -0.4828
 3586TIP3    H232250   2.320   2.694  13.407 -0.7833 -0.1819  1.6370
 3587TIP3   OH232251   3.670   0.238  16.631 -0.0504  0.4900 -0.1498
 3587TIP3    H132252   3.589   0.284  16.610 -0.5555 -0.1800  0.3105
 3587TIP3    H232253   3.703   0.282  16.709 -1.9667 -1.5921  1.9833
 3588TIP3   OH232254   2.622   2.678  13.884  0.2948  0.1426 -0.7206
 3588TIP3    H132255   2.700   2.705  13.932  0.2588  1.5811 -1.4148
 3588TIP3    H232256   2.648   2.683  13.792 -0.2758 -0.4682 -0.9202
 3589TIP3   OH232257   2.595   2.130   0.159 -0.6545 -0.3986 -0.1264
 3589TIP3    H132258   2.533   2.059   0.144 -0.0890 -0.6453 -1.4425
 3589TIP3    H232259   2.547   2.209   0.134 -0.6198 -0.5275 -0.5958
 3590TIP3   OH232260   0.801   5.718   4.020  0.4952  0.1676 -0.5439
 3590TIP3    H132261   0.894   5.700   4.006  0.3004  0.1172 -1.9156
 3590TIP3    H232262   0.768   5.746   3.934 -0.7889  0.0425 -0.1219
 3591TIP3   OH232263   2.394   3.210   0.545 -0.0931  0.1752  0.1087
 3591TIP3    H132264   2.442   3.206   0.627  1.9014  2.7008 -0.7998
 3591TIP3    H232265   2.348   3.294   0.548 -1.6077 -0.5834 -0.5765
 3592TIP3   OH232266   4.383   0.488  14.660 -0.1343  0.3171  0.4980
 3592TIP3    H132267   4.380   0.498  14.755  1.3903 -1.4856  0.7969
 3592TIP3    H232268   4.294   0.506  14.631 -0.3414  2.1856  2.0927
 3593TIP3   OH232269   0.912   3.464  11.181 -0.5319 -0.3581  0.2891
 3593TIP3    H132270   0.936   3.554  11.205 -0.8058 -0.5884  1.5157
 3593TIP3    H232271   0.826   3.472  11.140  0.4651  0.1860 -1.8407
 3594TIP3   OH232272   6.468   5.189   3.137  0.3898 -0.2357  0.2514
 3594TIP3    H132273   6.409   5.221   3.204 -0.5505 -0.4783 -0.4484
 3594TIP3    H232274   6.424   5.114   3.098  0.6840  0.1880 -0.9654
 3595TIP3   OH232275   3.042   1.112  14.734  0.0574 -0.4763  0.6072
 3595TIP3    H132276   3.134   1.115  14.758 -0.2231 -0.5933  1.7429
 3595TIP3    H232277   3.021   1.018  14.730  0.0369 -0.4551  0.1263
 3596TIP3   OH232278   0.619   4.878   3.950 -0.4892  0.2934  0.1877
 3596TIP3    H132279   0.568   4.849   3.875  0.6225 -0.4239 -0.3160
 3596TIP3    H232280   0.709   4.852   3.930  0.0651  1.3767  1.1178
 3597TIP3   OH232281   5.710   0.654  16.193  0.0594 -0.1541  0.0759
 3597TIP3    H132282   5.792   0.619  16.227  0.6024 -0.4839 -1.4691
 3597TIP3    H232283   5.693   0.601  16.114 -1.2768  0.3556  0.0001
 3598TIP3   OH232284   3.836   5.671  16.283 -0.5489  0.4773 -0.2619
 3598TIP3    H132285   3.865   5.759  16.307  1.0110  0.6211 -2.4321
 3598TIP3    H232286   3.780   5.683  16.207  0.5662 -0.4519 -1.2716
 3599TIP3   OH232287   1.293   4.360  16.127  0.3836 -0.9358  0.0078
 3599TIP3    H132288   1.343   4.279  16.122 -0.3381 -1.3289 -1.1573
 3599TIP3    H232289   1.275   4.383  16.035 -1.3951 -0.7109  0.3736
 3600TIP3   OH232290   1.325   5.769  14.122  0.1991 -0.1641  0.7432
 3600TIP3    H132291   1.269   5.709  14.073  1.4892 -0.8646  0.0717
 3600TIP3    H232292   1.324   5.735  14.212 -0.0854 -0.4301  0.6408
 3601TIP3   OH232293   2.570   2.801   0.230  0.2652 -0.1191  0.1184
 3601TIP3    H132294   2.660   2.832   0.223 -0.2473  1.0100 -2.3491
 3601TIP3    H232295   2.534   2.848   0.305  1.3011  0.5207  0.2379
 3602TIP3   OH232296   5.049   5.272  11.567  0.0965 -0.0522  0.4010
 3602TIP3    H132297   5.026   5.184  11.598 -0.6864 -0.5178 -1.3636
 3602TIP3    H232298   4.977   5.327  11.598 -1.4160 -0.7656 -1.6320
 3603TIP3   OH232299   1.726   6.617   5.681  0.2420  0.2756  0.5149
 3603TIP3    H132300   1.645   6.664   5.703  1.6726  2.6798  1.0304
 3603TIP3    H232301   1.702   6.525   5.685 -3.0257  0.8536 -1.4399
 3604TIP3   OH232302   1.165   5.235  13.489  0.2507  0.2129 -0.3744
 3604TIP3    H132303   1.152   5.250  13.583 -0.2807  0.3054 -0.4550
 3604TIP3    H232304   1.248   5.278  13.469 -0.1872  1.1910 -0.1650
 3605TIP3   OH232305   2.399   4.913   4.870 -0.1203 -0.3188  0.1518
 3605TIP3    H132306   2.416   4.848   4.938  3.6018 -0.9952 -1.2173
 3605TIP3    H232307   2.335   4.870   4.813 -1.6470 -0.5936  1.9651
 3606TIP3   OH232308   2.652   0.505   4.974 -0.9721 -0.1723 -0.1718
 3606TIP3    H132309   2.598   0.427   4.958 -0.1209 -0.5883 -1.1388
 3606TIP3    H232310   2.643   0.522   5.068 -1.2185 -1.4040  0.0459
 3607TIP3   OH232311   5.040   0.430  11.917 -0.2153 -0.3327 -0.0504
 3607TIP3    H132312   5.060   0.401  11.828 -2.3260 -0.9010 -0.3885
 3607TIP3    H232313   5.061   0.524  11.916 -4.9268  1.0546 -2.8932
 3608TIP3   OH232314   1.298   3.398  13.436  0.2229  0.9552 -0.0296
 3608TIP3    H132315   1.209   3.388  13.470  0.3472 -1.7802 -0.2266
 3608TIP3    H232316   1.354   3.362  13.504  0.8724 -0.1479 -1.0997
 3609TIP3   OH232317   4.541   1.674   1.544  0.0751 -0.2946 -0.2800
 3609TIP3    H132318   4.457   1.638   1.515  0.2121 -0.0194 -1.0513
 3609TIP3    H232319   4.518   1.748   1.600 -0.2010 -1.1620  0.7786
 3610TIP3   OH232320   6.800   5.558   1.293 -0.0600 -0.6495  0.1105
 3610TIP3    H132321   6.776   5.586   1.204 -1.7987 -0.9033  0.4657
 3610TIP3    H232322   6.896   5.560   1.293 -0.0144  1.7004 -1.0316
 3611TIP3   OH232323   6.763   5.554   5.494  0.2357 -0.3710 -0.2926
 3611TIP3    H132324   6.796   5.481   5.547 -0.3646  0.1427  0.8307
 3611TIP3    H232325   6.668   5.549   5.503  0.1535  0.1082 -0.8299
 3612TIP3   OH232326   4.216   1.145  12.783  0.1270  0.2878  0.1948
 3612TIP3    H132327   4.305   1.181  12.778 -0.1460  1.1218  0.9676
 3612TIP3    H232328   4.182   1.153  12.694  0.3702  1.2150  0.1713
 3613TIP3   OH232329   4.899   2.210  15.600  0.4507 -0.2369  0.2486
 3613TIP3    H132330   4.813   2.250  15.584 -0.4951 -2.1669  0.1429
 3613TIP3    H232331   4.945   2.273  15.655 -2.5520 -0.8074  3.8612
 3614TIP3   OH232332   5.715   3.674   5.646 -0.0717  0.2055  0.0556
 3614TIP3    H132333   5.645   3.686   5.582 -0.2559  0.0241  0.2235
 3614TIP3    H232334   5.700   3.587   5.682 -0.7869  0.8222  1.3376
 3615TIP3   OH232335   1.343   3.465  13.750  0.1353 -0.2899  0.0935
 3615TIP3    H132336   1.270   3.515  13.786 -1.7830 -2.4059 -0.6544
 3615TIP3    H232337   1.378   3.417  13.825 -0.5785 -0.8327  0.0851
 3616TIP3   OH232338   3.934   5.252   5.705  0.0400 -0.5489 -0.3983
 3616TIP3    H132339   3.904   5.187   5.769 -0.2534  0.2887  0.3209
 3616TIP3    H232340   3.957   5.199   5.628 -0.3825 -1.4925  0.0975
 3617TIP3   OH232341   6.305   0.482  11.745 -0.0596 -0.1865  0.3105
 3617TIP3    H132342   6.255   0.423  11.801  0.7950 -0.4694  0.8043
 3617TIP3    H232343   6.339   0.549  11.805 -1.1349  0.9201 -0.2616
 3618TIP3   OH232344   5.411   2.389  13.429  0.2765  0.9315  0.0297
 3618TIP3    H132345   5.393   2.474  13.390 -0.1532  0.4908 -0.7465
 3618TIP3    H232346   5.325   2.347  13.437  0.5543  0.2905 -0.2541
 3619TIP3   OH232347   2.299   5.646   4.955 -0.0202 -0.1287 -0.5094
 3619TIP3    H132348   2.317   5.561   4.914  2.0570  1.4914 -3.3896
 3619TIP3    H232349   2.384   5.678   4.983 -0.4953  1.6125 -0.9049
 3620TIP3   OH232350   3.035   4.057  15.457  0.2908 -0.2518  0.3026
 3620TIP3    H132351   3.043   4.058  15.552  0.3291 -0.5537  0.3019
 3620TIP3    H232352   3.121   4.087  15.425  0.0070  0.6755  0.3752
 3621TIP3   OH232353   1.406   0.664   4.663 -0.1209  0.5290  0.2387
 3621TIP3    H132354   1.453   0.693   4.742  0.8097 -0.4744  0.0796
 3621TIP3    H232355   1.466   0.683   4.591 -0.3126 -0.0025 -0.0656
 3622TIP3   OH232356   5.410   5.019  10.852 -0.6492 -0.0020 -0.4628
 3622TIP3    H132357   5.397   4.965  10.774  0.0231 -0.8385 -0.0133
 3622TIP3    H232358   5.328   5.066  10.862 -1.4258 -1.2848 -0.6086
 3623TIP3   OH232359   6.219   2.136  16.955 -0.7396 -0.7388 -0.3023
 3623TIP3    H132360   6.196   2.061  17.009  0.0326 -1.4643 -0.9500
 3623TIP3    H232361   6.172   2.121  16.872  0.2873 -1.0974 -0.8356
 3624TIP3   OH232362   4.642   5.341   1.725  0.2418 -0.3598 -0.3966
 3624TIP3    H132363   4.635   5.437   1.731 -1.2138 -0.5080  0.8159
 3624TIP3    H232364   4.552   5.310   1.728  0.6486 -1.7571 -1.6505
 3625TIP3   OH232365   1.551   6.359  12.511 -0.3058  0.1424  0.2863
 3625TIP3    H132366   1.610   6.387  12.581  0.1399  0.9818 -0.4091
 3625TIP3    H232367   1.467   6.347  12.555  0.1891 -0.2853  1.1404
 3626TIP3   OH232368   3.489   1.078  15.327 -0.4776 -0.8767  0.0948
 3626TIP3    H132369   3.583   1.095  15.330 -0.6424  0.0659  3.0203
 3626TIP3    H232370   3.480   0.987  15.354 -0.4105 -1.0329 -0.3985
 3627TIP3   OH232371   4.941   5.974  15.429  0.8706  0.0945  0.3463
 3627TIP3    H132372   4.940   6.046  15.492  2.0468  0.7410 -0.3313
 3627TIP3    H232373   4.853   5.937  15.433  0.3618  1.3230  1.0021
 3628TIP3   OH232374   6.796   1.619  12.517  0.4112 -0.5689  0.7786
 3628TIP3    H132375   6.885   1.631  12.549 -0.3353  0.5082  2.6257
 3628TIP3    H232376   6.740   1.653  12.588 -1.4528 -0.7950 -0.5056
 3629TIP3   OH232377   6.675   1.579   3.043  0.3683  0.4138 -0.0368
 3629TIP3    H132378   6.723   1.661   3.029  0.9899  0.1954  0.7640
 3629TIP3    H232379   6.736   1.511   3.014  0.8555  0.0856  1.6847
 3630TIP3   OH232380   3.506   0.834  11.581  0.1306 -0.0393  0.0093
 3630TIP3    H132381   3.464   0.880  11.508 -1.1226 -2.3238 -0.8152
 3630TIP3    H232382   3.591   0.808  11.547 -0.0977 -0.3315 -0.3458
 3631TIP3   OH232383   2.489   3.470   6.546  0.2127 -0.2276 -0.0834
 3631TIP3    H132384   2.407   3.504   6.510 -0.3485  0.7193  1.9164
 3631TIP3    H232385   2.461   3.404   6.610  1.1015 -1.0806 -0.5546
 3632TIP3   OH232386   1.496   0.421   0.895  0.0035  0.6432  0.0845
 3632TIP3    H132387   1.458   0.505   0.869 -0.7467  1.0254  2.2348
 3632TIP3    H232388   1.578   0.445   0.939  0.1134  0.2114  0.1121
 3633TIP3   OH232389   0.984   0.426  16.244 -0.5210  0.5374 -0.7635
 3633TIP3    H132390   0.991   0.510  16.197  0.6588 -0.6166 -2.8224
 3633TIP3    H232391   1.042   0.436  16.319  0.7699  1.1140 -1.7874
 3634TIP3   OH232392   2.759   3.848  16.314 -0.6389 -0.1274 -0.3459
 3634TIP3    H132393   2.674   3.877  16.280 -0.4795  1.3753  0.4559
 3634TIP3    H232394   2.751   3.857  16.409  0.2599 -0.4332 -0.2357
 3635TIP3   OH232395   4.952   5.063   4.551 -0.2986  0.3179  0.3905
 3635TIP3    H132396   4.914   4.994   4.605 -1.0051 -1.7813 -2.5615
 3635TIP3    H232397   4.928   5.144   4.597 -2.3062 -1.2269  2.3039
 3636TIP3   OH232398   3.999   2.421  16.077  0.3086  0.5634  0.2654
 3636TIP3    H132399   3.927   2.483  16.066 -0.9140 -0.9362 -0.5034
 3636TIP3    H232400   4.067   2.452  16.017 -0.2730  1.1755 -0.0874
 3637TIP3   OH232401   1.514   5.587  12.396 -0.3458  0.0096  0.0497
 3637TIP3    H132402   1.560   5.670  12.386 -0.4293 -0.0360 -0.7490
 3637TIP3    H232403   1.425   5.604  12.365 -0.3439 -0.3966 -0.1830
 3638TIP3   OH232404   4.279   4.403  11.472  0.1089  0.0328 -0.2415
 3638TIP3    H132405   4.362   4.361  11.492  0.0168  0.3539  0.9392
 3638TIP3    H232406   4.214   4.333  11.478  0.1521  0.0181  0.1066
 3639TIP3   OH232407   5.177   4.990   5.496 -0.3500 -0.4671 -0.0194
 3639TIP3    H132408   5.244   5.058   5.490 -0.7391 -0.1078 -0.4090
 3639TIP3    H232409   5.098   5.037   5.523 -0.6306 -0.7558 -0.3350
 3640TIP3   OH232410   0.889   3.177  14.749 -0.4688 -0.1298  0.3645
 3640TIP3    H132411   0.876   3.147  14.839  3.3187  0.0539  1.1215
 3640TIP3    H232412   0.894   3.272  14.756  1.0727 -0.1774  0.2231
 3641TIP3   OH232413   3.965   4.991  16.715 -0.0568  0.4520  0.5957
 3641TIP3    H132414   3.923   5.077  16.718 -2.0712 -0.4959  3.4520
 3641TIP3    H232415   3.902   4.935  16.671  0.6805  0.1413 -0.0826
 3642TIP3   OH232416   2.771   4.636  16.228  0.6112  0.5588  0.1632
 3642TIP3    H132417   2.683   4.618  16.262  0.6297 -2.2413 -0.9850
 3642TIP3    H232418   2.764   4.620  16.134  2.6129 -1.1053  0.2288
 3643TIP3   OH232419   4.029   1.052  13.581 -0.1663 -0.0495  0.3955
 3643TIP3    H132420   4.056   1.142  13.603 -0.1775  0.0170  0.1350
 3643TIP3    H232421   4.105   0.998  13.601  0.0548  0.0971 -0.0386
 3644TIP3   OH232422   3.135   2.451   0.933 -0.0326  0.1569 -0.3299
 3644TIP3    H132423   3.051   2.458   0.979 -0.3999 -1.7840 -0.6356
 3644TIP3    H232424   3.117   2.395   0.858  1.5664 -0.4251 -0.3184
 3645TIP3   OH232425   1.539   1.154   3.857  0.4676 -0.2713  0.0137
 3645TIP3    H132426   1.469   1.198   3.905  0.6118 -0.1808  0.1432
 3645TIP3    H232427   1.504   1.066   3.839 -0.0423  0.0799 -0.7494
 3646TIP3   OH232428   0.589   0.815   3.422  0.5040 -0.0748  0.2135
 3646TIP3    H132429   0.669   0.763   3.412  0.1507 -0.7922  1.0569
 3646TIP3    H232430   0.619   0.906   3.409  1.1972 -0.4326 -0.8392
 3647TIP3   OH232431   2.828   0.656  13.645  1.0282  0.4573  0.2865
 3647TIP3    H132432   2.738   0.627  13.653  1.3225 -0.1210  1.9424
 3647TIP3    H232433   2.827   0.719  13.573 -0.7128  0.5787  0.3796
 3648TIP3   OH232434   5.159   5.239  12.022 -0.1434 -0.1176 -0.3732
 3648TIP3    H132435   5.094   5.200  12.081  1.2277 -1.4118  0.3503
 3648TIP3    H232436   5.167   5.176  11.951  1.0489 -0.5085  0.0747
 3649TIP3   OH232437   4.687   2.950  12.020  0.6586 -0.3026  0.0551
 3649TIP3    H132438   4.633   2.871  12.021 -0.2781  0.3195  0.2161
 3649TIP3    H232439   4.777   2.918  12.018  0.2849 -1.3663 -0.2521
 3650TIP3   OH232440   4.559   6.340  13.282 -0.0987  0.4683  0.2882
 3650TIP3    H132441   4.650   6.322  13.260 -0.0978  0.2682  0.4587
 3650TIP3    H232442   4.528   6.262  13.328 -0.3048  0.6033  0.3846
 3651TIP3   OH232443   5.308   5.424  15.228  0.7150 -0.3005  0.0038
 3651TIP3    H132444   5.213   5.420  15.219  0.3903  3.5849  0.0493
 3651TIP3    H232445   5.325   5.399  15.319 -0.4122  0.2355  0.3711
 3652TIP3   OH232446   5.635   6.311   4.148  0.2606  0.4670 -0.2993
 3652TIP3    H132447   5.608   6.271   4.065 -1.3953  0.7302  0.0572
 3652TIP3    H232448   5.552   6.339   4.188  0.8087 -1.3648  2.3462
 3653TIP3   OH232449   0.273   6.373   4.258 -0.5592  0.0985  0.1456
 3653TIP3    H132450   0.331   6.440   4.295 -0.6804  1.0154 -1.2202
 3653TIP3    H232451   0.324   6.335   4.186 -2.0887  1.9610 -2.0579
 3654TIP3   OH232452   1.004   3.117   5.417  0.0338 -0.4593 -0.3681
 3654TIP3    H132453   0.956   3.117   5.500  1.7982  0.4386  0.7172
 3654TIP3    H232454   0.949   3.169   5.358 -0.3337  0.5661  0.8310
 3655TIP3   OH232455   5.785   2.082   5.309 -0.2560 -0.4456 -0.5615
 3655TIP3    H132456   5.846   2.134   5.361 -1.8353  0.8940  0.0307
 3655TIP3    H232457   5.824   2.080   5.221 -0.1682  1.8225 -0.6137
 3656TIP3   OH232458   1.058   2.256  13.242  0.9101 -0.1129  0.4807
 3656TIP3    H132459   1.152   2.236  13.247  0.8451 -0.3214  0.9005
 3656TIP3    H232460   1.015   2.181  13.284  0.5098 -0.3745 -0.3906
 3657TIP3   OH232461   1.043   5.495  16.875  0.4370  0.2192  0.4005
 3657TIP3    H132462   0.980   5.460  16.812 -1.4374  0.6046  1.9587
 3657TIP3    H232463   1.037   5.590  16.863  1.0599  0.2456  0.2771
 3658TIP3   OH232464   3.250   0.319  12.771 -0.1082  0.0453 -0.4902
 3658TIP3    H132465   3.314   0.308  12.701  0.8124 -1.5093  0.5270
 3658TIP3    H232466   3.302   0.336  12.849 -0.8858 -1.3479  0.3836
 3659TIP3   OH232467   6.556   1.487   4.046  0.4551 -0.4613  0.1846
 3659TIP3    H132468   6.474   1.529   4.071  1.4414  1.3014  0.6147
 3659TIP3    H232469   6.530   1.403   4.009 -1.5687  0.2721 -0.1526
 3660TIP3   OH232470   4.779   5.135  15.467  0.1894 -0.0985 -0.0771
 3660TIP3    H132471   4.874   5.147  15.468  0.4021 -1.0847  2.7232
 3660TIP3    H232472   4.767   5.043  15.443  0.0655 -0.3426  0.8756
 3661TIP3   OH232473   4.197   0.379   3.710 -0.3592  0.0485 -0.0359
 3661TIP3    H132474   4.159   0.409   3.793 -1.5855 -2.0037  0.2152
 3661TIP3    H232475   4.289   0.402   3.716 -0.9312  2.4218  0.6955
 3662TIP3   OH232476   0.565   1.339   1.984 -0.2920  0.1928  0.2272
 3662TIP3    H132477   0.599   1.322   2.072 -1.4640 -1.7180  0.3506
 3662TIP3    H232478   0.475   1.307   1.986  0.4568 -2.4742 -2.4227
 3663TIP3   OH232479   3.902   6.639  11.117  0.0584 -0.1518 -0.1842
 3663TIP3    H132480   3.821   6.614  11.072  0.2849  0.9736 -1.2521
 3663TIP3    H232481   3.911   6.732  11.100  1.5578 -0.2529 -0.0383
 3664TIP3   OH232482   1.951   0.857   1.061  0.4699 -0.1140  0.4692
 3664TIP3    H132483   1.914   0.832   0.976 -0.6883 -0.9569  1.1801
 3664TIP3    H232484   1.945   0.952   1.063 -0.6088 -0.1582  0.0790
 3665TIP3   OH232485   6.402   0.736   1.824  0.2728 -0.2892 -0.3235
 3665TIP3    H132486   6.490   0.756   1.793 -0.0359 -1.9785 -2.5069
 3665TIP3    H232487   6.345   0.753   1.749 -1.0763 -0.6696  0.5707
 3666TIP3   OH232488   0.747   1.953   1.277 -0.0913  0.0423 -0.5334
 3666TIP3    H132489   0.722   1.979   1.366 -0.3789  0.6659 -0.7941
 3666TIP3    H232490   0.756   1.858   1.282 -0.7539 -0.0008  0.0036
 3667TIP3   OH232491   6.669   4.089   4.349  0.0810  0.3613  0.0201
 3667TIP3    H132492   6.613   4.082   4.271 -0.5189 -1.3757  0.5604
 3667TIP3    H232493   6.680   4.183   4.362 -1.1171  0.7094 -1.2452
 3668TIP3   OH232494   2.635   4.598   5.919  0.4816  0.0013 -0.4923
 3668TIP3    H132495   2.600   4.626   6.003 -4.0831 -0.8866 -1.8223
 3668TIP3    H232496   2.659   4.679   5.874 -1.2456  0.8664  0.0820
 3669TIP3   OH232497   5.706   3.792  11.370  0.4746  0.3593 -0.1938
 3669TIP3    H132498   5.631   3.734  11.356  0.0844  0.7297  0.3063
 3669TIP3    H232499   5.750   3.757  11.447 -0.4936  1.4484  0.8823
 3670TIP3   OH232500   0.948   3.959   6.941 -0.1076 -0.2652  0.0867
 3670TIP3    H132501   0.938   4.018   7.016 -0.1803 -0.3994  0.1839
 3670TIP3    H232502   0.898   3.881   6.965  1.6041 -1.1811  0.8407
 3671TIP3   OH232503   5.561   3.233   3.950 -0.2270  0.1354  0.8709
 3671TIP3    H132504   5.492   3.299   3.939  0.0445  0.1075 -1.5069
 3671TIP3    H232505   5.638   3.271   3.909  0.1496 -1.3268  0.1578
 3672TIP3   OH232506   3.948   6.572  16.010  0.0953  0.5088  0.0274
 3672TIP3    H132507   3.982   6.576  16.099 -0.6407  0.8048  0.3014
 3672TIP3    H232508   3.933   6.479  15.993  0.5022  0.4275  0.1045
 3673TIP3   OH232509   1.974   5.764   0.677 -0.4389 -0.1424  0.6703
 3673TIP3    H132510   1.963   5.858   0.661  0.3246 -0.2824 -0.7968
 3673TIP3    H232511   1.955   5.722   0.593 -1.7535 -1.4183  1.5383
 3674TIP3   OH232512   2.861   2.369   2.040 -0.2866 -0.4135  0.0919
 3674TIP3    H132513   2.885   2.295   1.984 -2.1369 -0.2523 -1.0092
 3674TIP3    H232514   2.766   2.361   2.051 -0.7316  2.3430 -0.9152
 3675TIP3   OH232515   3.985   5.616   1.469 -0.2203 -0.6031  0.0810
 3675TIP3    H132516   4.076   5.589   1.476  0.9056  2.7215 -0.3421
 3675TIP3    H232517   3.955   5.624   1.560 -0.4832 -2.5398  0.2284
 3676TIP3   OH232518   6.216   5.398  11.538  0.3201 -0.3352 -0.2362
 3676TIP3    H132519   6.233   5.481  11.583 -2.5567  0.2373 -0.0005
 3676TIP3    H232520   6.205   5.335  11.609 -1.3339 -0.0369 -0.1769
 3677TIP3   OH232521   5.828   3.449   1.464 -0.1266  0.3036 -0.6360
 3677TIP3    H132522   5.740   3.443   1.501 -0.0729  1.7731 -0.1877
 3677TIP3    H232523   5.813   3.464   1.370 -0.3091 -0.7972 -0.7976
 3678TIP3   OH232524   5.286   5.015   5.017 -0.4089  0.0388 -0.2277
 3678TIP3    H132525   5.267   5.026   4.924  0.2184  1.9143 -0.1728
 3678TIP3    H232526   5.200   5.014   5.060 -0.7254 -1.4521 -0.8602
 3679TIP3   OH232527   2.467   2.332   6.975  0.6222  0.1556  0.5232
 3679TIP3    H132528   2.496   2.423   6.970 -0.1219  0.3852  0.1474
 3679TIP3    H232529   2.373   2.337   6.994  0.5060 -0.5199  0.1937
 3680TIP3   OH232530   4.852   3.967  13.920  0.1244 -0.2858 -0.3093
 3680TIP3    H132531   4.787   4.020  13.966 -0.6963 -0.3528 -1.3421
 3680TIP3    H232532   4.917   4.030  13.889 -0.3666  0.0178 -0.7478
 3681TIP3   OH232533   3.326   3.255   2.848 -0.6193  0.3755  0.1120
 3681TIP3    H132534   3.389   3.320   2.881 -0.1267  0.8851 -1.7251
 3681TIP3    H232535   3.289   3.215   2.927  1.0577  0.9787  1.2491
 3682TIP3   OH232536   1.634   2.266  15.765 -0.1260  0.6402  0.5631
 3682TIP3    H132537   1.540   2.251  15.755 -0.2122  1.1344  0.6379
 3682TIP3    H232538   1.674   2.198  15.711 -0.4858 -0.5924  1.7876
 3683TIP3   OH232539   0.099   3.214   1.892 -0.4859 -0.5673  0.3771
 3683TIP3    H132540   0.010   3.231   1.861 -1.0279 -0.7838  1.7687
 3683TIP3    H232541   0.127   3.296   1.931 -0.0459 -0.4834 -0.1112
 3684TIP3   OH232542   5.670   0.023  10.986  0.3004  0.2387 -0.5143
 3684TIP3    H132543   5.764   0.021  10.967 -0.0345 -3.1896 -2.6393
 3684TIP3    H232544   5.666   0.028  11.082  2.5519  1.6947 -0.4069
 3685TIP3   OH232545   1.638   4.196   5.631  0.2361  0.8052 -0.4323
 3685TIP3    H132546   1.556   4.242   5.612  1.1292  1.9440 -1.7956
 3685TIP3    H232547   1.649   4.204   5.726 -1.9539 -0.7259  0.0133
 3686TIP3   OH232548   5.480   4.898  10.475 -0.4286  0.2290  0.1001
 3686TIP3    H132549   5.517   4.980  10.444 -1.1872  0.8119  0.7085
 3686TIP3    H232550   5.390   4.897  10.443 -0.9594  0.4490  1.5236
 3687TIP3   OH232551   2.247   6.392   5.340 -0.0774 -0.0507  0.4077
 3687TIP3    H132552   2.326   6.403   5.392  0.4970  1.1364 -0.6449
 3687TIP3    H232553   2.179   6.440   5.388  0.0280 -0.3715  0.8873
 3688TIP3   OH232554   2.921   3.664  15.634  0.0901 -0.1540 -0.7273
 3688TIP3    H132555   3.001   3.678  15.685  0.1304 -1.2363 -0.4616
 3688TIP3    H232556   2.907   3.569  15.638 -2.9151  0.2203  1.8463
 3689TIP3   OH232557   2.627   5.758  16.170 -0.4512 -0.5164 -0.5312
 3689TIP3    H132558   2.619   5.742  16.076  0.2108 -1.0218 -0.5116
 3689TIP3    H232559   2.719   5.739  16.190 -0.1398  1.2343 -0.0905
 3690TIP3   OH232560   1.368   1.180   3.452 -0.1234 -0.7767 -0.3829
 3690TIP3    H132561   1.305   1.138   3.393  1.2439 -4.0085  0.2501
 3690TIP3    H232562   1.448   1.189   3.400 -0.0149 -0.0577 -0.1096
 3691TIP3   OH232563   0.324   4.169   2.312 -0.1900  0.2881  0.0615
 3691TIP3    H132564   0.399   4.212   2.270 -0.2617  0.7796  0.4270
 3691TIP3    H232565   0.253   4.232   2.302  0.0430  0.8608  1.8043
 3692TIP3   OH232566   1.135   1.351   4.454  0.5849  0.0741  0.3812
 3692TIP3    H132567   1.060   1.299   4.425  2.2396 -0.9546 -2.4868
 3692TIP3    H232568   1.097   1.434   4.483 -1.6377 -0.2200 -1.4149
 3693TIP3   OH232569   0.696   6.639   4.569 -0.2265 -0.6470  0.3234
 3693TIP3    H132570   0.756   6.714   4.576  1.3898 -2.0105  1.7480
 3693TIP3    H232571   0.717   6.600   4.484 -1.6549  0.8995 -0.8223
 3694TIP3   OH232572   0.782   0.190   1.764  0.2170  0.0599  0.7331
 3694TIP3    H132573   0.782   0.098   1.737  1.2439  0.6381 -1.4899
 3694TIP3    H232574   0.703   0.227   1.725 -1.4859 -0.3260  3.6118
 3695TIP3   OH232575   3.723   3.006  13.987 -0.2689  0.2538 -0.0804
 3695TIP3    H132576   3.737   2.933  13.926 -2.5874 -0.1138 -0.2651
 3695TIP3    H232577   3.697   3.079  13.932 -2.4616 -0.1006  0.3936
 3696TIP3   OH232578   3.331   1.533   5.743 -0.2713 -0.5480 -0.4619
 3696TIP3    H132579   3.240   1.502   5.738 -0.2337 -0.9667  1.0085
 3696TIP3    H232580   3.340   1.568   5.831  0.7423  0.3984 -0.9050
 3697TIP3   OH232581   6.073   6.072  17.255  0.9096 -0.1602  0.1885
 3697TIP3    H132582   6.119   6.014  17.316  0.2351  1.3747  2.2735
 3697TIP3    H232583   5.999   6.106  17.306 -0.9075 -0.3307 -2.1534
 3698TIP3   OH232584   5.632   4.789   3.404  0.1510 -0.1178  0.1344
 3698TIP3    H132585   5.695   4.836   3.350 -0.4512 -0.2580 -0.7170
 3698TIP3    H232586   5.639   4.830   3.490 -0.9659  2.1934 -0.7648
 3699TIP3   OH232587   2.810   1.355   4.452 -0.1903 -0.2839  0.2724
 3699TIP3    H132588   2.897   1.373   4.415 -0.9465 -0.7061 -1.8597
 3699TIP3    H232589   2.749   1.395   4.391 -1.5485 -0.9312  1.1540
 3700TIP3   OH232590   1.788   1.934   2.990 -0.1157 -0.0203 -0.0788
 3700TIP3    H132591   1.879   1.948   2.962 -0.1249 -0.2660 -0.2326
 3700TIP3    H232592   1.759   2.020   3.021  0.8140 -0.3446  1.8566
 3701TIP3   OH232593   6.456   5.731   3.370 -0.2375 -0.4237 -0.2580
 3701TIP3    H132594   6.472   5.820   3.341 -1.3995 -0.6647 -1.7818
 3701TIP3    H232595   6.385   5.738   3.434  1.1254 -0.0745  1.2819
 3702TIP3   OH232596   2.090   6.120  16.688 -0.1319  0.3439 -0.2430
 3702TIP3    H132597   2.162   6.167  16.644  0.0073  1.2039  0.8555
 3702TIP3    H232598   2.081   6.164  16.772 -3.1239  1.4054 -1.0128
 3703TIP3   OH232599   1.003   5.680   2.471 -0.2961  0.1401  0.5959
 3703TIP3    H132600   1.095   5.661   2.452 -0.2128 -0.3916  1.4807
 3703TIP3    H232601   0.964   5.700   2.386  0.8331  1.2274  0.3107
 3704TIP3   OH232602   3.938   4.411   1.335 -1.0442  0.4142 -0.4483
 3704TIP3    H132603   3.872   4.354   1.295 -1.0562  0.8398 -1.0498
 3704TIP3    H232604   3.886   4.474   1.385 -0.9977 -0.6534  0.9886
 3705TIP3   OH232605   3.372   2.343   3.731  0.2403 -0.2280  0.2111
 3705TIP3    H132606   3.334   2.427   3.759 -1.4628 -1.5025  2.0665
 3705TIP3    H232607   3.308   2.278   3.761  0.8330 -2.1352 -2.3646
 3706TIP3   OH232608   1.913   0.096   5.046  0.0836  0.5588 -0.1810
 3706TIP3    H132609   1.971   0.172   5.053  1.7927 -0.8197  1.3804
 3706TIP3    H232610   1.871   0.089   5.131  0.0148 -0.2969 -0.2719
 3707TIP3   OH232611   1.734   2.046   0.424  0.4618  0.7931 -0.6470
 3707TIP3    H132612   1.687   2.129   0.435 -1.0930  0.0820 -1.5695
 3707TIP3    H232613   1.676   1.993   0.369  1.6609 -0.7216 -0.5097
 3708TIP3   OH232614   0.167   0.838   0.926 -0.1087 -0.3801  0.6909
 3708TIP3    H132615   0.104   0.871   0.990 -0.1799 -3.0393  2.1211
 3708TIP3    H232616   0.252   0.868   0.957 -0.4372  1.7186 -0.2665
 3709TIP3   OH232617   0.532   4.538   4.583 -0.3431 -0.6489 -0.0899
 3709TIP3    H132618   0.522   4.574   4.671 -0.7375 -2.4338  0.6316
 3709TIP3    H232619   0.522   4.444   4.594  2.2022 -1.1809 -1.6592
 3710TIP3   OH232620   3.728   1.943   0.716 -0.5347  0.2795  0.2550
 3710TIP3    H132621   3.666   1.884   0.760  0.1812 -0.2393  0.5796
 3710TIP3    H232622   3.806   1.890   0.700 -0.4430  0.7059 -0.8534
 3711TIP3   OH232623   4.119   2.728   1.890  0.1358 -0.1472 -0.3315
 3711TIP3    H132624   4.126   2.756   1.799  3.8795 -1.2944 -0.5951
 3711TIP3    H232625   4.110   2.633   1.886 -2.2107 -0.0223  0.5674
 3712TIP3   OH232626   4.576   2.571   1.072 -1.1005  0.9598  0.3841
 3712TIP3    H132627   4.509   2.601   1.012  0.7687  1.7459 -1.4440
 3712TIP3    H232628   4.619   2.651   1.103 -0.0420  0.4423  0.3155
 3713TIP3   OH232629   0.564   3.505   3.797 -0.1055  0.6109  0.6198
 3713TIP3    H132630   0.502   3.518   3.725  1.0293 -0.4305 -0.5892
 3713TIP3    H232631   0.534   3.426   3.840  0.3221  0.1463  0.0778
 3714TIP3   OH232632   4.522   3.136  14.670  0.4192  0.1622 -0.0982
 3714TIP3    H132633   4.505   3.183  14.588 -0.5497 -0.4665 -0.2737
 3714TIP3    H232634   4.519   3.044  14.646  1.5586 -0.0130  0.3896
 3715TIP3   OH232635   0.093   1.528   0.582  0.5209 -0.0148  0.7652
 3715TIP3    H132636   0.091   1.483   0.667  2.9160  1.2185  1.5717
 3715TIP3    H232637   0.175   1.499   0.542  0.1198  0.5371 -0.5083
 3716TIP3   OH232638   6.440   0.185   6.184 -0.0431 -0.2914  0.2915
 3716TIP3    H132639   6.353   0.182   6.145  0.0633  0.8010 -0.0734
 3716TIP3    H232640   6.440   0.263   6.239  0.0928 -1.3533  1.8612
 3717TIP3   OH232641   6.746   3.188  13.801  0.6295  0.3432  0.6993
 3717TIP3    H132642   6.841   3.199  13.807  0.5220  0.5894  2.0722
 3717TIP3    H232643   6.734   3.096  13.780  1.1758  0.3692  0.2426
 3718TIP3   OH232644   0.430   0.650  16.296  0.5005  0.1650 -0.4351
 3718TIP3    H132645   0.499   0.696  16.247  0.2498 -0.2809 -1.2261
 3718TIP3    H232646   0.434   0.560  16.264  0.5201 -0.2139  0.5954
 3719TIP3   OH232647   2.119   3.394  14.240 -0.0152  0.7096 -0.5185
 3719TIP3    H132648   2.126   3.348  14.156  1.3648  1.3984 -0.8134
 3719TIP3    H232649   2.173   3.472  14.228 -0.6340  1.3397  0.6766
 3720TIP3   OH232650   0.589   1.940   5.822  0.1137  0.2311 -0.2187
 3720TIP3    H132651   0.515   1.977   5.871 -0.1800  0.8020 -1.0604
 3720TIP3    H232652   0.561   1.944   5.731  0.7544 -0.5718 -0.4595
 3721TIP3   OH232653   4.740   0.119  17.252 -0.2860  0.9605 -0.0444
 3721TIP3    H132654   4.772   0.033  17.224 -3.1415  0.3418 -1.7770
 3721TIP3    H232655   4.711   0.105  17.343  1.5820  0.8229  0.5695
 3722TIP3   OH232656   4.097   1.450   3.792 -0.0242 -0.0000  0.4704
 3722TIP3    H132657   4.070   1.467   3.882 -1.0730  0.8283  0.0159
 3722TIP3    H232658   4.192   1.436   3.798  0.4444  2.9001  1.3559
 3723TIP3   OH232659   5.872   5.410  13.082 -0.2506 -0.2894 -0.0308
 3723TIP3    H132660   5.821   5.435  13.006  0.0400 -0.4726 -0.2860
 3723TIP3    H232661   5.809   5.408  13.154 -0.7005 -1.0224 -0.4425
 3724TIP3   OH232662   2.653   6.223   1.267 -0.5352  0.9441  0.2764
 3724TIP3    H132663   2.609   6.289   1.320 -1.1295  0.7699  0.0072
 3724TIP3    H232664   2.734   6.265   1.238 -0.3480  1.1485  1.0639
 3725TIP3   OH232665   4.054   6.604  12.257 -0.3022  0.5537 -0.4543
 3725TIP3    H132666   4.106   6.679  12.228 -0.4865  0.4820 -0.9969
 3725TIP3    H232667   4.084   6.586  12.346  1.1078  0.0881 -0.9822
 3726TIP3   OH232668   3.499   2.143   4.038 -0.5786 -0.2454  0.0331
 3726TIP3    H132669   3.458   2.194   4.107  1.6595  1.5626  0.1196
 3726TIP3    H232670   3.457   2.174   3.957 -1.4201 -0.5735  0.3274
 3727TIP3   OH232671   6.095   1.380  12.710 -0.5800 -0.0992  0.0074
 3727TIP3    H132672   6.177   1.330  12.705 -0.0544  0.5205  1.8115
 3727TIP3    H232673   6.061   1.379  12.620  0.9037 -1.1893 -0.5820
 3728TIP3   OH232674   3.117   1.756   1.758 -0.8575  0.1861 -0.3060
 3728TIP3    H132675   3.199   1.799   1.783 -0.2761 -0.8905 -0.3121
 3728TIP3    H232676   3.143   1.668   1.732 -2.3203 -1.0954  2.2267
 3729TIP3   OH232677   1.290   6.179   0.276 -0.0886  0.0052  0.0427
 3729TIP3    H132678   1.228   6.119   0.234 -2.2596  1.3428  1.1565
 3729TIP3    H232679   1.289   6.257   0.220  0.8917 -0.0799 -0.1115
 3730TIP3   OH232680   2.003   0.487   2.509 -0.4752 -0.1154 -0.4217
 3730TIP3    H132681   2.037   0.400   2.488  2.5586  0.4722  1.4367
 3730TIP3    H232682   1.951   0.475   2.588  1.0763 -0.1401  0.6460
 3731TIP3   OH232683   0.068   6.469   1.103  0.0286  0.5389 -0.7338
 3731TIP3    H132684   0.071   6.377   1.128  0.0910  0.9766  0.9777
 3731TIP3    H232685   0.091   6.470   1.010  0.0041 -1.1629 -0.7786
 3732TIP3   OH232686   3.488   0.417  11.678 -0.3021 -0.3962 -0.3112
 3732TIP3    H132687   3.555   0.445  11.740 -2.6460  5.3585  0.2689
 3732TIP3    H232688   3.414   0.391  11.732 -0.5261 -0.8122 -0.8077
 3733TIP3   OH232689   3.872   2.127  12.904 -0.2815  0.3384  0.2374
 3733TIP3    H132690   3.880   2.054  12.966 -0.5026 -0.6813 -0.8929
 3733TIP3    H232691   3.957   2.171  12.907  0.2089 -0.5865  0.1909
 3734TIP3   OH232692   4.399   3.321   5.668 -0.2976 -0.5456 -0.1246
 3734TIP3    H132693   4.438   3.265   5.735 -0.2687 -0.7181 -0.2816
 3734TIP3    H232694   4.451   3.401   5.669  1.1753 -1.4351 -1.5090
 3735TIP3   OH232695   2.595   2.892   3.640  0.3350  0.1302 -0.4764
 3735TIP3    H132696   2.629   2.909   3.552 -1.8213 -0.4002 -1.4768
 3735TIP3    H232697   2.650   2.946   3.698  1.4488  0.9214 -2.1829
 3736TIP3   OH232698   1.991   3.469  11.480 -0.0799  0.0601  0.0158
 3736TIP3    H132699   1.924   3.523  11.437 -1.9185 -0.5248  1.9538
 3736TIP3    H232700   2.054   3.531  11.515 -2.0662  1.0811  2.0624
 3737TIP3   OH232701   3.070   3.630  17.289 -0.4752 -0.3741  0.4779
 3737TIP3    H132702   3.162   3.605  17.279 -0.3318 -0.2964  1.5315
 3737TIP3    H232703   3.041   3.584  17.368 -0.6712  1.4319  1.5206
 3738TIP3   OH232704   4.480   3.952   0.453  0.2104  0.3439  0.9392
 3738TIP3    H132705   4.428   3.986   0.380  0.8299  0.4765  0.5533
 3738TIP3    H232706   4.482   4.023   0.517 -0.8012  0.0294  1.3401
 3739TIP3   OH232707   4.879   0.895  15.564  0.3065 -0.0192  0.0844
 3739TIP3    H132708   4.936   0.940  15.501  1.1581  1.5300  1.8641
 3739TIP3    H232709   4.931   0.821  15.596  0.8668  0.6471  0.7613
 3740TIP3   OH232710   0.177   2.039   3.748  0.2612 -0.9887 -0.0560
 3740TIP3    H132711   0.253   2.092   3.771 -0.3832 -0.5064  1.0493
 3740TIP3    H232712   0.166   2.053   3.653  0.5169  0.3222  0.0838
 3741TIP3   OH232713   5.575   0.816   5.237  0.5613  0.0057 -0.2707
 3741TIP3    H132714   5.569   0.872   5.314  0.7821 -0.3216 -0.0105
 3741TIP3    H232715   5.654   0.764   5.251  0.6250 -0.0304 -0.7380
 3742TIP3   OH232716   4.864   1.565   2.479  0.2081  0.4020  0.5333
 3742TIP3    H132717   4.861   1.479   2.438  0.1175  0.3256  0.6974
 3742TIP3    H232718   4.849   1.627   2.408  1.5134  0.3490  0.1848
 3743TIP3   OH232719   3.068   2.261  12.838 -0.1719  0.3812 -0.0938
 3743TIP3    H132720   3.156   2.229  12.821 -0.1734  0.2861  0.0764
 3743TIP3    H232721   3.081   2.347  12.878 -0.1292 -0.0742  0.8883
 3744TIP3   OH232722   0.213   2.875  14.257 -0.1429 -0.1394  0.3507
 3744TIP3    H132723   0.217   2.927  14.177 -0.7594 -0.5838  0.0167
 3744TIP3    H232724   0.285   2.906  14.310 -2.1056  3.0496  1.3931
 3745TIP3   OH232725   1.734   2.315  15.043  0.3528  0.2446  0.0185
 3745TIP3    H132726   1.767   2.302  14.954  0.1590 -0.6471  0.0606
 3745TIP3    H232727   1.664   2.249  15.052  0.2583  0.4362  0.7718
 3746TIP3   OH232728   6.507   1.855  11.160 -0.1383  0.2876  0.2220
 3746TIP3    H132729   6.448   1.868  11.086 -1.2602  1.7136  1.3129
 3746TIP3    H232730   6.589   1.894  11.132  0.0806 -0.9409 -0.9829
 3747TIP3   OH232731   0.189   3.080  17.045  0.2656  0.1930 -0.6779
 3747TIP3    H132732   0.175   3.175  17.040  1.0062  0.2688 -1.5737
 3747TIP3    H232733   0.253   3.069  17.115 -1.0781  0.1938  0.5895
 3748TIP3   OH232734   0.826   0.371  14.263 -0.9429 -0.2635  0.3224
 3748TIP3    H132735   0.826   0.292  14.210  1.5960 -0.5327  0.5814
 3748TIP3    H232736   0.918   0.396  14.269 -1.0076 -0.2117  4.5135
 3749TIP3   OH232737   1.193   3.118  12.215  0.6377 -0.0181  0.1769
 3749TIP3    H132738   1.154   3.104  12.129 -0.0133 -1.3461  0.6629
 3749TIP3    H232739   1.263   3.053  12.222  2.9945  2.2583 -0.6310
 3750TIP3   OH232740   0.554   1.311   3.118 -0.1518  0.1562  0.7241
 3750TIP3    H132741   0.501   1.278   3.045  1.1699  0.5075 -0.4426
 3750TIP3    H232742   0.539   1.406   3.116  0.0884  0.1934  0.7510
 3751TIP3   OH232743   0.650   4.693   1.010  0.8497 -0.0577 -0.7593
 3751TIP3    H132744   0.567   4.701   1.057  0.1798 -0.1996 -1.9003
 3751TIP3    H232745   0.629   4.713   0.919  2.3762  1.4975 -0.8316
 3752TIP3   OH232746   4.929   3.941   4.571  0.2401  0.3777  0.2679
 3752TIP3    H132747   4.870   3.954   4.497 -0.5601  0.6176  0.9298
 3752TIP3    H232748   4.972   3.857   4.554 -0.4098  0.1253 -0.1531
 3753TIP3   OH232749   1.256   0.314  11.523  0.2679 -0.0642  0.0142
 3753TIP3    H132750   1.250   0.235  11.577  1.6712 -0.2919 -0.1249
 3753TIP3    H232751   1.174   0.360  11.539 -2.1769 -3.0947 -2.4017
 3754TIP3   OH232752   1.165   0.260  14.559  0.0442 -0.0713 -0.2839
 3754TIP3    H132753   1.229   0.192  14.538 -1.0033 -1.2051  0.0366
 3754TIP3    H232754   1.214   0.325  14.609  0.8218 -1.2154  0.5012
 3755TIP3   OH232755   6.640   5.480   3.429  0.2449  0.6601 -0.0628
 3755TIP3    H132756   6.698   5.549   3.460  0.0254  0.9103 -0.2006
 3755TIP3    H232757   6.566   5.527   3.390  0.7947  0.3817 -1.5254
 3756TIP3   OH232758   1.296   3.644   3.833  0.0662 -0.0695 -0.1866
 3756TIP3    H132759   1.296   3.704   3.758 -0.3755  2.2256  1.5275
 3756TIP3    H232760   1.380   3.598   3.827 -0.0129 -0.0051 -2.1181
 3757TIP3   OH232761   4.368   1.352   3.819 -0.1520  0.3299 -0.0033
 3757TIP3    H132762   4.431   1.283   3.838 -0.2430  0.3342  0.3065
 3757TIP3    H232763   4.415   1.433   3.837  0.1583  0.3744 -0.9530
 3758TIP3   OH232764   4.715   0.474   5.339 -0.2225 -0.0236 -0.4001
 3758TIP3    H132765   4.684   0.522   5.416 -0.7675 -0.6607 -0.2095
 3758TIP3    H232766   4.744   0.542   5.278 -2.9050  0.7357 -0.9983
 3759TIP3   OH232767   1.756   4.204   4.738 -0.1562  0.1051  0.6418
 3759TIP3    H132768   1.745   4.118   4.779 -0.2483  0.6003  1.6552
 3759TIP3    H232769   1.732   4.267   4.805  2.5715  1.0358  0.8879
 3760TIP3   OH232770   1.928   3.591  13.967  0.5298 -0.6302  0.2331
 3760TIP3    H132771   1.897   3.636  14.045  0.4114 -0.5127  0.1190
 3760TIP3    H232772   2.023   3.605  13.967  0.3792  0.4687 -0.3290
 3761TIP3   OH232773   5.704   6.081   5.399 -0.2027  0.0931  0.0882
 3761TIP3    H132774   5.654   6.151   5.357  0.4946  1.2263  1.0886
 3761TIP3    H232775   5.683   6.002   5.348 -2.9960  0.4922  0.4722
 3762TIP3   OH232776   3.586   3.305  15.754  0.0690  0.1271  0.7743
 3762TIP3    H132777   3.556   3.257  15.677  0.4494  0.8483  0.1623
 3762TIP3    H232778   3.576   3.244  15.827  0.7314 -0.9483 -0.0159
 3763TIP3   OH232779   1.355   0.774  16.073 -0.2027 -0.4367 -0.0073
 3763TIP3    H132780   1.294   0.746  16.005 -1.0681  0.2162  0.4811
 3763TIP3    H232781   1.315   0.743  16.155 -0.7774  1.4520  0.4824
 3764TIP3   OH232782   2.860   6.649  13.677  0.2518 -0.3548  0.2234
 3764TIP3    H132783   2.858   6.599  13.596  0.5014  0.2825 -0.1892
 3764TIP3    H232784   2.768   6.655  13.703  0.1057 -0.0679 -0.3347
 3765TIP3   OH232785   0.264   2.191   5.545  0.1035  0.4816  0.6454
 3765TIP3    H132786   0.235   2.131   5.614  0.1157  0.0281  0.2650
 3765TIP3    H232787   0.308   2.262   5.592 -0.3034  0.4189  1.1316
 3766TIP3   OH232788   0.450   0.918   1.731 -0.3006  0.2589 -0.3144
 3766TIP3    H132789   0.392   0.891   1.659 -1.6797  2.7493 -0.2545
 3766TIP3    H232790   0.538   0.897   1.699 -0.9652 -0.0519 -2.0978
 3767TIP3   OH232791   2.969   5.380   3.695 -0.0743  0.1477 -0.0500
 3767TIP3    H132792   3.056   5.358   3.729  0.7201  0.4165 -1.8423
 3767TIP3    H232793   2.954   5.470   3.724 -1.1879 -0.8743  2.9850
 3768TIP3   OH232794   5.017   4.358   2.595 -0.5739 -0.6838 -0.3340
 3768TIP3    H132795   5.034   4.374   2.688  0.8025  1.3632 -0.8608
 3768TIP3    H232796   4.959   4.430   2.569  0.0863 -0.4916 -1.3124
 3769TIP3   OH232797   0.756   5.599  13.747 -0.2567  0.1700  0.6142
 3769TIP3    H132798   0.839   5.583  13.703 -0.0007 -0.1183  1.1967
 3769TIP3    H232799   0.695   5.620  13.676  0.4437  0.9599  0.2264
 3770TIP3   OH232800   2.385   6.084  12.372 -0.3091 -0.4073 -0.0432
 3770TIP3    H132801   2.342   6.147  12.313 -2.4951 -0.2810  1.5413
 3770TIP3    H232802   2.458   6.049  12.321  0.7138  2.9968 -1.1945
 3771TIP3   OH232803   2.100   4.864  17.157 -0.3176 -0.6098 -0.4572
 3771TIP3    H132804   2.068   4.779  17.187 -0.9065  0.0344  0.8347
 3771TIP3    H232805   2.084   4.864  17.063 -0.8138 -1.7126 -0.3893
 3772TIP3   OH232806   3.981   6.616   1.936  0.2753 -0.1268  0.4607
 3772TIP3    H132807   3.894   6.631   1.899  0.7345  1.0829 -0.2008
 3772TIP3    H232808   4.025   6.561   1.872  0.5116  0.5798  0.0021
 3773TIP3   OH232809   1.698   2.323   1.118 -0.0507  0.4638 -0.5930
 3773TIP3    H132810   1.709   2.413   1.090  1.7036  0.5786  0.3179
 3773TIP3    H232811   1.618   2.293   1.074 -0.6985  2.4530 -0.8542
 3774TIP3   OH232812   4.489   1.615  14.594  0.1337  0.4023  0.4040
 3774TIP3    H132813   4.561   1.589  14.536 -1.8726 -1.5269 -1.4168
 3774TIP3    H232814   4.462   1.534  14.637 -1.6701  0.8321  0.1652
 3775TIP3   OH232815   6.002   5.168  14.947 -0.3265  0.9505 -0.1431
 3775TIP3    H132816   5.997   5.135  15.036 -0.1941 -1.3630 -0.9306
 3775TIP3    H232817   6.096   5.174  14.929 -0.3083 -1.0676 -0.9297
 3776TIP3   OH232818   3.463   6.717  14.944  0.1371  0.1784 -0.3216
 3776TIP3    H132819   3.537   6.659  14.924  1.3589  1.0907  1.2701
 3776TIP3    H232820   3.446   6.764  14.863  0.9781 -0.4092 -0.8607
 3777TIP3   OH232821   0.595   1.092  14.700 -0.1135  0.3551  0.6494
 3777TIP3    H132822   0.557   1.029  14.761  2.3825 -1.0772  0.8868
 3777TIP3    H232823   0.674   1.049  14.667 -0.4125  1.7946 -2.3026
 3778TIP3   OH232824   3.732   4.253   2.903 -0.4066  0.3044 -0.3789
 3778TIP3    H132825   3.813   4.215   2.939 -0.0787  1.9200  0.7030
 3778TIP3    H232826   3.759   4.293   2.820 -0.4446 -0.4993 -0.7892
 3779TIP3   OH232827   3.942   4.651   3.633  0.3262  0.2342 -0.5901
 3779TIP3    H132828   3.995   4.572   3.636 -0.3673 -0.2382 -0.4891
 3779TIP3    H232829   4.004   4.721   3.613  1.3868  0.0748  1.8227
 3780TIP3   OH232830   3.684   3.359   6.677  0.8726 -0.9159  0.5962
 3780TIP3    H132831   3.642   3.305   6.610 -0.5313  1.3402 -0.4473
 3780TIP3    H232832   3.618   3.368   6.746  1.2605 -0.9004  0.9701
 3781TIP3   OH232833   3.942   5.278  10.788  0.1625  0.4819  0.0525
 3781TIP3    H132834   3.956   5.339  10.715  0.1404  0.9979  0.4773
 3781TIP3    H232835   3.863   5.230  10.764  1.5835 -1.2393 -1.5435
 3782TIP3   OH232836   0.173   0.765   3.147  0.6951  0.2166  0.1827
 3782TIP3    H132837   0.220   0.682   3.151  1.1820  0.2814 -2.3838
 3782TIP3    H232838   0.131   0.773   3.232  0.3930 -2.8060  0.4200
 3783TIP3   OH232839   1.204   0.444   4.739  0.0229  0.0347  0.2247
 3783TIP3    H132840   1.171   0.438   4.828 -0.7239  0.2684 -0.0309
 3783TIP3    H232841   1.299   0.440   4.749 -0.0229  0.7515  1.0906
 3784TIP3   OH232842   3.018   6.100   3.755 -0.2048 -0.0160 -0.5581
 3784TIP3    H132843   3.101   6.126   3.715  1.3503  0.0582  2.4025
 3784TIP3    H232844   2.973   6.050   3.687  2.3605 -0.2567 -2.2268
 3785TIP3   OH232845   2.594   0.451  16.119 -0.0112 -0.7200  0.3557
 3785TIP3    H132846   2.503   0.447  16.150  0.4644 -1.5387  1.7588
 3785TIP3    H232847   2.596   0.527  16.061 -1.1993  0.4038  1.6955
 3786TIP3   OH232848   6.729   6.706  15.997 -0.1088 -0.4587  0.3838
 3786TIP3    H132849   6.757   6.641  15.932  0.7722  0.5674 -0.2964
 3786TIP3    H232850   6.805   6.716  16.055  0.2494  0.8545 -0.2657
 3787TIP3   OH232851   0.329   3.271   6.032  0.1426  0.0888 -0.0498
 3787TIP3    H132852   0.247   3.223   6.022  0.4018 -0.1884 -0.9469
 3787TIP3    H232853   0.393   3.218   5.986  0.4114  1.3905 -1.2276
 3788TIP3   OH232854   5.253   1.947  16.479 -0.0551  0.8153  0.2521
 3788TIP3    H132855   5.303   1.898  16.544  0.9057  0.2656 -0.8623
 3788TIP3    H232856   5.226   2.027  16.524 -2.1703 -0.9080  2.3319
 3789TIP3   OH232857   6.649   4.032   3.924 -0.1815 -0.4794  0.1094
 3789TIP3    H132858   6.593   4.086   3.868 -1.0899 -1.3609  0.1464
 3789TIP3    H232859   6.623   4.055   4.013  0.6983  0.3257  0.1783
 3790TIP3   OH232860   5.202   0.949   2.778  0.9798  0.1087  0.0018
 3790TIP3    H132861   5.270   0.979   2.839  0.1407  0.9533  0.5548
 3790TIP3    H232862   5.188   0.857   2.801  2.7222 -0.4282 -0.8896
 3791TIP3   OH232863   4.384   5.412  16.243  0.1547  0.0184  0.1672
 3791TIP3    H132864   4.418   5.345  16.302 -0.6740 -0.7890 -0.2566
 3791TIP3    H232865   4.309   5.371  16.200 -1.4081  1.7609  1.1020
 3792TIP3   OH232866   4.856   4.299   0.780 -0.0427 -0.1659 -0.4336
 3792TIP3    H132867   4.914   4.235   0.822 -0.6176 -0.9229 -0.7835
 3792TIP3    H232868   4.839   4.364   0.849  0.7150 -0.2669 -0.1376
 3793TIP3   OH232869   3.701   2.545  16.838 -0.2164 -0.4255  0.7456
 3793TIP3    H132870   3.706   2.599  16.917 -1.7071 -0.7015  1.0712
 3793TIP3    H232871   3.610   2.553  16.811  0.2619 -0.4050 -0.9180
 3794TIP3   OH232872   6.705   2.333  14.476  0.1594 -0.1395 -0.0804
 3794TIP3    H132873   6.728   2.343  14.568  1.5675  1.9182 -0.5715
 3794TIP3    H232874   6.781   2.288  14.438 -0.3148 -0.7665 -0.3138
 3795TIP3   OH232875   5.226   3.756   2.232 -0.6771  0.8159  0.6308
 3795TIP3    H132876   5.226   3.713   2.317  0.3527  0.9673  0.7191
 3795TIP3    H232877   5.303   3.812   2.233 -0.4636  0.5667 -0.5313
 3796TIP3   OH232878   1.866   3.279   2.429  1.0337 -0.2566 -0.0788
 3796TIP3    H132879   1.796   3.340   2.407  1.7542  0.5803 -0.0781
 3796TIP3    H232880   1.904   3.314   2.510 -0.7249 -2.5651  1.9078
 3797TIP3   OH232881   3.060   1.938   2.275 -0.2486 -0.3851  0.0191
 3797TIP3    H132882   3.057   2.021   2.228  0.3687  0.4822  1.4496
 3797TIP3    H232883   3.065   1.962   2.368  1.6913 -1.9658  0.4133
 3798TIP3   OH232884   6.252   3.913   6.097 -0.9910  0.0722  0.0317
 3798TIP3    H132885   6.247   3.831   6.048  1.5787  0.8240 -1.7073
 3798TIP3    H232886   6.337   3.909   6.140 -0.0100  2.4883 -1.4991
 3799TIP3   OH232887   5.437   4.703  16.857 -0.4033  0.1544 -0.1143
 3799TIP3    H132888   5.446   4.649  16.778 -0.5470 -0.1524  0.0763
 3799TIP3    H232889   5.366   4.764  16.835 -1.1668 -0.6141  0.1431
 3800TIP3   OH232890   1.731   1.728   6.064 -0.3169  0.4000 -0.2656
 3800TIP3    H132891   1.716   1.823   6.068  1.5131  0.7398 -0.5761
 3800TIP3    H232892   1.815   1.716   6.109 -0.1667 -0.9850 -0.8882
 3801TIP3   OH232893   3.607   5.125   0.353 -0.4874 -0.3157  0.0258
 3801TIP3    H132894   3.562   5.056   0.401 -0.3753  0.4236  1.2207
 3801TIP3    H232895   3.542   5.194   0.342 -0.4088 -0.3272 -0.5935
 3802TIP3   OH232896   0.092   6.226  10.429 -0.1007 -0.2712 -0.4282
 3802TIP3    H132897   0.127   6.280  10.358  0.1926  2.9229  1.9598
 3802TIP3    H232898  -0.003   6.229  10.417 -0.0656  0.4520 -0.5350
 3803TIP3   OH232899   3.935   1.521  14.647 -0.1624 -0.1376  0.3199
 3803TIP3    H132900   3.907   1.612  14.652  1.1814  0.2543  1.5868
 3803TIP3    H232901   3.855   1.472  14.626 -0.5549  1.4807 -2.4205
 3804TIP3   OH232902   3.922   3.510   4.438 -0.8827 -0.2286  0.2109
 3804TIP3    H132903   3.920   3.532   4.531  1.5147  1.0707  0.0546
 3804TIP3    H232904   3.998   3.452   4.430 -0.4945  0.4163 -1.0221
 3805TIP3   OH232905   1.871   6.620  11.967 -0.2344 -0.3466  0.3646
 3805TIP3    H132906   1.849   6.712  11.982  1.5077 -0.1577  2.0888
 3805TIP3    H232907   1.880   6.613  11.872 -0.9022  1.1138  0.1557
 3806TIP3   OH232908   3.748   3.242  17.054  0.1718  0.4992 -0.0447
 3806TIP3    H132909   3.686   3.239  16.982 -2.3677  0.5345  2.0026
 3806TIP3    H232910   3.822   3.188  17.026 -1.5752 -1.0382 -1.8845
 3807TIP3   OH232911   0.980   1.614   1.768  0.4215 -0.5066 -0.4424
 3807TIP3    H132912   0.918   1.557   1.812  0.7393 -2.6124 -2.5114
 3807TIP3    H232913   1.065   1.588   1.801  0.4395  0.2464  0.1299
 3808TIP3   OH232914   6.597   1.456   1.259  0.4027  0.4451  0.4070
 3808TIP3    H132915   6.672   1.504   1.292 -0.9332  2.2816  0.9456
 3808TIP3    H232916   6.541   1.444   1.335 -0.0835 -0.4663 -0.0740
 3809TIP3   OH232917   1.354   0.806   3.241 -0.0383  0.1393 -0.5594
 3809TIP3    H132918   1.425   0.825   3.302  1.8677 -0.5092 -2.4647
 3809TIP3    H232919   1.397   0.792   3.156 -2.1974 -2.2952 -1.4202
 3810TIP3   OH232920   4.675   5.375  15.524 -0.2145 -0.0136 -0.0868
 3810TIP3    H132921   4.715   5.288  15.523  2.2314  0.9905  1.4715
 3810TIP3    H232922   4.629   5.380  15.607  1.4107  0.8271  0.8200
 3811TIP3   OH232923   0.964   1.017   5.855  1.1493  0.2398 -0.4877
 3811TIP3    H132924   0.976   0.981   5.767  0.0127 -0.1369 -0.5030
 3811TIP3    H232925   1.042   1.070   5.870  0.3805  2.1172 -2.6250
 3812TIP3   OH232926   5.730   0.667  15.228 -0.3826  0.1587 -0.4503
 3812TIP3    H132927   5.661   0.606  15.256  0.3749 -0.7247 -0.4568
 3812TIP3    H232928   5.784   0.679  15.306  0.5528 -0.6783 -0.9552
 3813TIP3   OH232929   6.494   3.027  15.919  0.2852 -0.1179 -0.2060
 3813TIP3    H132930   6.576   3.065  15.889 -0.0778  0.2074 -0.8135
 3813TIP3    H232931   6.480   2.951  15.864  1.2314 -1.4456  1.2977
 3814TIP3   OH232932   4.993   2.779  11.713 -0.6324  0.8462 -0.5460
 3814TIP3    H132933   4.968   2.838  11.642  2.6358  1.2378 -1.5028
 3814TIP3    H232934   4.978   2.691  11.678  0.0145  1.0500 -1.3584
 3815TIP3   OH232935   4.405   3.578  15.146 -0.1345  0.2676  0.0472
 3815TIP3    H132936   4.456   3.498  15.137  0.5757  0.6392  0.6239
 3815TIP3    H232937   4.331   3.567  15.087 -0.2203 -0.9485  0.3656
 3816TIP3   OH232938   3.281   2.688  13.028  0.1865  0.3028  0.7685
 3816TIP3    H132939   3.293   2.779  13.057  0.4002  0.4999  0.0814
 3816TIP3    H232940   3.340   2.638  13.085 -0.0414  0.5724  1.2520
 3817TIP3   OH232941   6.009   0.654  11.415  0.2173  0.0266  0.2656
 3817TIP3    H132942   5.982   0.614  11.333 -0.1276 -0.6454  0.6986
 3817TIP3    H232943   5.970   0.742  11.413 -1.1156 -0.5406  0.3907
 3818TIP3   OH232944   3.243   5.439  12.576  0.3548  0.3538 -0.5637
 3818TIP3    H132945   3.168   5.424  12.519 -0.2913  0.0598  0.3367
 3818TIP3    H232946   3.207   5.433  12.665  1.5436 -0.3591 -0.1105
 3819TIP3   OH232947   5.159   0.123  11.352 -0.1049 -0.0396 -0.2049
 3819TIP3    H132948   5.129   0.051  11.408  0.2348  0.1608  0.2420
 3819TIP3    H232949   5.079   0.158  11.313 -0.7410  1.7316  2.4467
 3820TIP3   OH232950   1.209   3.524  15.843  0.3196  0.3309  0.2468
 3820TIP3    H132951   1.187   3.610  15.808 -0.8257  1.1977  2.8510
 3820TIP3    H232952   1.124   3.483  15.863  0.6903  1.1418  4.5657
 3821TIP3   OH232953   0.346   0.209  15.129  0.1391  0.4880  0.1836
 3821TIP3    H132954   0.364   0.210  15.223  1.0399 -1.1679  0.0645
 3821TIP3    H232955   0.276   0.144  15.119  0.3595  0.3189 -0.3270
 3822TIP3   OH232956   0.467   3.566   2.915  0.3879 -0.1203 -0.0148
 3822TIP3    H132957   0.553   3.532   2.940  0.3754 -0.1924 -0.0676
 3822TIP3    H232958   0.477   3.661   2.916  0.7856 -0.1315 -1.0999
 3823TIP3   OH232959   0.459   0.425  12.009  0.1331 -0.0550  0.3171
 3823TIP3    H132960   0.475   0.331  12.006  1.1479  0.1033  0.3916
 3823TIP3    H232961   0.393   0.440  11.941  0.6394 -0.6917 -0.3335
 3824TIP3   OH232962   0.114   1.841   2.038  0.3984  0.7362  0.2321
 3824TIP3    H132963   0.203   1.835   2.073  0.1498  1.0892  0.9373
 3824TIP3    H232964   0.122   1.898   1.962  0.4147  2.6324  1.5946
 3825TIP3   OH232965   2.260   2.824  13.816  0.1362  0.2125  0.0197
 3825TIP3    H132966   2.225   2.898  13.767  0.1998  0.4263  0.3008
 3825TIP3    H232967   2.355   2.838  13.817  0.0912  0.5014  0.6791
 3826TIP3   OH232968   3.367   6.113   0.138  0.1545 -0.2298 -0.5999
 3826TIP3    H132969   3.339   6.115   0.230 -0.9588 -0.8419 -0.9103
 3826TIP3    H232970   3.432   6.044   0.134  0.7569  0.2923 -0.1374
 3827TIP3   OH232971   6.637   3.918   5.222 -0.3034  0.1611  0.7267
 3827TIP3    H132972   6.605   4.008   5.233  0.7285  0.9566 -1.8913
 3827TIP3    H232973   6.577   3.879   5.159 -0.6798 -0.9856  1.7668
 3828TIP3   OH232974   3.764   1.893   5.824  0.2944 -0.0637  0.1577
 3828TIP3    H132975   3.787   1.958   5.758 -1.1681  0.1137 -0.2086
 3828TIP3    H232976   3.749   1.812   5.775 -1.8742  0.3337  0.0959
 3829TIP3   OH232977   5.234   5.408   6.154 -0.2652  0.1546 -0.3998
 3829TIP3    H132978   5.214   5.501   6.142  0.2463  0.2122 -0.8793
 3829TIP3    H232979   5.298   5.405   6.225  2.2825  0.5135 -2.5209
 3830TIP3   OH232980   1.641   1.117  14.072  0.1056  0.1911 -0.1986
 3830TIP3    H132981   1.566   1.085  14.123 -0.7800  1.1272 -0.8730
 3830TIP3    H232982   1.699   1.157  14.136 -0.5434  0.5101  0.1970
 3831TIP3   OH232983   2.886   1.373  16.671  0.1587  0.0554  0.1653
 3831TIP3    H132984   2.895   1.385  16.576  2.0221 -0.0515  0.2877
 3831TIP3    H232985   2.959   1.422  16.708 -0.2222 -0.3612  1.5268
 3832TIP3   OH232986   2.862   1.400  12.594 -0.2308 -0.0408 -0.3171
 3832TIP3    H132987   2.772   1.383  12.622  0.2676 -0.8771  0.8595
 3832TIP3    H232988   2.915   1.339  12.645  0.8925 -0.5310 -1.9843
 3833TIP3   OH232989   2.817   3.976  11.876 -0.1292  0.0599 -0.0007
 3833TIP3    H132990   2.897   4.027  11.860 -0.7353  1.6380  1.7520
 3833TIP3    H232991   2.750   4.041  11.894 -1.6960 -1.2778 -0.8073
 3834TIP3   OH232992   3.024   6.434   1.493  0.5784  0.7748  0.1107
 3834TIP3    H132993   3.044   6.344   1.467 -1.7615  0.4753 -0.9380
 3834TIP3    H232994   3.100   6.485   1.465  1.5018 -0.7103 -0.1993
 3835TIP3   OH232995   2.782   0.871   0.550  0.1820  0.0540  0.6263
 3835TIP3    H132996   2.739   0.796   0.591 -1.2234  1.0894  1.0889
 3835TIP3    H232997   2.875   0.859   0.573  0.3289 -2.5164 -0.8838
 3836TIP3   OH232998   0.255   0.851  16.310  0.1032  1.2718 -0.1562
 3836TIP3    H132999   0.310   0.785  16.268 -0.1679  2.0578 -1.8338
 3836TIP3    H233000   0.166   0.816  16.302  0.1257  1.0194  0.5929
 3837TIP3   OH233001   2.016   4.180  16.843 -0.2952  0.1764  0.1251
 3837TIP3    H133002   1.956   4.209  16.911 -0.4122  0.9794 -0.3175
 3837TIP3    H233003   2.002   4.240  16.770  1.0176  0.3713  0.0011
 3838TIP3   OH233004   0.793   5.288  15.564  0.3557  0.1474 -0.2583
 3838TIP3    H133005   0.772   5.377  15.594 -0.3623  0.0562 -0.4931
 3838TIP3    H233006   0.797   5.295  15.469 -2.3744 -0.5995 -0.5104
 3839TIP3   OH233007   6.660   6.276   5.521 -0.0636  0.4336  0.2726
 3839TIP3    H133008   6.715   6.353   5.508  0.1090  0.1368 -0.8649
 3839TIP3    H233009   6.661   6.231   5.436 -0.1259 -0.8454  0.9246
 3840TIP3   OH233010   4.557   5.873   3.062  0.2920 -0.6713 -0.3408
 3840TIP3    H133011   4.650   5.856   3.053  0.3528  0.0131 -1.1466
 3840TIP3    H233012   4.537   5.936   2.992 -0.8926 -1.3014 -0.6051
 3841TIP3   OH233013   2.790   3.560  12.269 -0.0697 -0.0251  0.1107
 3841TIP3    H133014   2.883   3.564  12.250  0.1227 -1.7287  0.5686
 3841TIP3    H233015   2.782   3.491  12.335 -1.6696 -0.0116 -0.0358
 3842TIP3   OH233016   3.510   5.978  16.140 -0.2634 -0.2858  0.3873
 3842TIP3    H133017   3.484   5.886  16.145  1.0977 -0.7016  0.3841
 3842TIP3    H233018   3.542   5.999  16.227 -2.4531  0.8272  0.9823
 3843TIP3   OH233019   2.530   3.997   1.351 -0.4418 -0.3153  0.3753
 3843TIP3    H133020   2.619   4.030   1.341  0.4444 -2.4951  0.5313
 3843TIP3    H233021   2.500   4.033   1.435  0.8272 -0.6580  1.0000
 3844TIP3   OH233022   0.173   0.701  12.310  0.0830 -0.3136  0.4112
 3844TIP3    H133023   0.168   0.758  12.387 -1.8883  0.6918 -0.3742
 3844TIP3    H233024   0.099   0.641  12.319  0.8729 -1.3497  0.1507
 3845TIP3   OH233025   2.042   1.548  13.815  0.3870 -0.4251 -0.3173
 3845TIP3    H133026   2.130   1.583  13.799  0.6641 -1.3060 -0.8081
 3845TIP3    H233027   1.999   1.550  13.730  0.7542 -2.1617 -0.5737
 3846TIP3   OH233028   0.020   2.871   0.168 -0.5869 -0.0791 -0.0921
 3846TIP3    H133029  -0.045   2.909   0.110  1.2814  1.8418 -1.0846
 3846TIP3    H233030  -0.013   2.784   0.188 -2.2918 -0.0569 -2.4278
 3847TIP3   OH233031   3.921   1.696   4.900  0.2240  0.0412  0.0498
 3847TIP3    H133032   3.922   1.778   4.851  0.5394 -0.6447 -1.1177
 3847TIP3    H233033   3.829   1.673   4.908  0.1071  0.6953  0.7357
 3848TIP3   OH233034   4.039   1.447  11.259  0.1944 -0.3093  0.2098
 3848TIP3    H133035   3.982   1.495  11.200  2.5449  0.8745 -1.2470
 3848TIP3    H233036   4.117   1.502  11.267  1.3377 -2.0232  1.7697
 3849TIP3   OH233037   0.626   6.580  16.304 -0.0483  0.0737 -0.3540
 3849TIP3    H133038   0.642   6.662  16.257 -1.8610  0.5213 -0.2325
 3849TIP3    H233039   0.658   6.596  16.393 -0.7089  0.7619 -0.2407
 3850TIP3   OH233040   1.655   2.775  15.145  0.2956  0.1302 -0.1309
 3850TIP3    H133041   1.750   2.781  15.150  0.3673 -0.1912 -0.8553
 3850TIP3    H233042   1.639   2.718  15.069 -0.4384 -1.3175  1.0507
 3851TIP3   OH233043   5.333   6.597  16.041 -0.1624  0.0552  0.0848
 3851TIP3    H133044   5.425   6.620  16.058 -0.5427 -0.0368  2.7272
 3851TIP3    H233045   5.336   6.504  16.018  0.4404  0.1827 -0.3880
 3852TIP3   OH233046   1.410   1.743  15.664 -0.5373  0.1062 -0.1045
 3852TIP3    H133047   1.322   1.780  15.650 -0.4608  0.6975  0.8559
 3852TIP3    H233048   1.429   1.763  15.756  1.4297  1.7748 -0.8169
 3853TIP3   OH233049   5.144   4.985  17.015 -0.1587 -0.0866  0.2231
 3853TIP3    H133050   5.120   5.075  17.038  1.1704 -0.0585  1.5855
 3853TIP3    H233051   5.071   4.932  17.048 -1.4919  0.5144 -1.5453
 3854TIP3   OH233052   6.041   1.463  17.377 -0.0743  0.2248  0.1031
 3854TIP3    H133053   6.053   1.394  17.312  0.8072  1.3591 -1.0055
 3854TIP3    H233054   5.968   1.434  17.430  1.2095 -2.2780  0.6490
 3855TIP3   OH233055   4.904   0.171  15.077  0.3381 -0.5133  0.6372
 3855TIP3    H133056   4.933   0.129  15.158 -1.9415 -0.2267  1.6792
 3855TIP3    H233057   4.895   0.264  15.101 -0.6306 -0.4741  0.1644
 3856TIP3   OH233058   6.695   2.922  13.769  0.1150 -0.0698  0.2011
 3856TIP3    H133059   6.650   2.861  13.826 -2.1435  2.0046  0.8190
 3856TIP3    H233060   6.643   2.923  13.689  0.8954  0.0794 -0.3238
 3857TIP3   OH233061   4.361   1.529   3.316  0.0585  0.3402  0.2685
 3857TIP3    H133062   4.377   1.622   3.298  0.3468  0.5040  1.3074
 3857TIP3    H233063   4.358   1.523   3.412  0.4137 -0.7910  0.2219
 3858TIP3   OH233064   5.626   1.919   3.826 -0.9645  0.1278  0.1959
 3858TIP3    H133065   5.536   1.893   3.805 -1.0571  2.2326 -2.3971
 3858TIP3    H233066   5.679   1.883   3.755 -0.0851  0.7774  0.5082
 3859TIP3   OH233067   6.010   6.033  16.930  0.3259  0.0102 -0.6120
 3859TIP3    H133068   6.090   5.997  16.967  0.0899  0.1100  0.0002
 3859TIP3    H233069   5.952   6.045  17.005  0.5570  2.0977 -0.7007
 3860TIP3   OH233070   5.649   5.584  15.897  0.3990  0.7077  0.5669
 3860TIP3    H133071   5.563   5.571  15.935  0.7114  0.4020  1.1820
 3860TIP3    H233072   5.678   5.496  15.873 -0.5641  1.0285 -2.1519
 3861TIP3   OH233073   3.633   2.217   2.083  0.0298 -0.3664 -0.0516
 3861TIP3    H133074   3.714   2.166   2.088  0.3403  0.1583  0.3386
 3861TIP3    H233075   3.655   2.301   2.123  0.4220  1.2494 -3.2791
 3862TIP3   OH233076   1.079   0.840  11.871 -0.3916 -0.0882 -0.1837
 3862TIP3    H133077   1.079   0.861  11.777  1.3556 -1.3348 -0.5047
 3862TIP3    H233078   0.986   0.833  11.893 -0.8537  0.6996 -1.6934
 3863TIP3   OH233079   2.487   6.363   5.512  0.1501  0.6377  0.4109
 3863TIP3    H133080   2.529   6.341   5.594 -1.1150 -0.3032  0.8438
 3863TIP3    H233081   2.485   6.459   5.510  1.7154  0.7033  0.6371
 3864TIP3   OH233082   2.429   1.141   2.146  0.1841 -0.3491 -0.0137
 3864TIP3    H133083   2.461   1.051   2.138 -1.1967 -0.7902 -0.8011
 3864TIP3    H233084   2.454   1.183   2.064 -0.5015 -0.4572 -0.2822
 3865TIP3   OH233085   4.352   2.799   1.356  0.0739 -0.5131  0.2226
 3865TIP3    H133086   4.378   2.709   1.336 -0.3395 -0.7748  0.8100
 3865TIP3    H233087   4.372   2.809   1.449 -0.8752 -0.3676  0.4258
 3866TIP3   OH233088   6.331   6.336  15.133  1.1737 -0.5187 -0.1554
 3866TIP3    H133089   6.365   6.364  15.049 -1.7064 -0.2925 -1.3744
 3866TIP3    H233090   6.336   6.240  15.130  0.3214 -0.5550 -0.9927
 3867TIP3   OH233091   1.180   1.774  15.090  0.0042 -0.0104 -0.0080
 3867TIP3    H133092   1.209   1.862  15.068  0.9689  0.0842  1.4894
 3867TIP3    H233093   1.104   1.758  15.034  0.3232  1.4401 -0.8921
 3868TIP3   OH233094   6.690   5.442   0.202  0.1304 -0.1596  0.0414
 3868TIP3    H133095   6.602   5.479   0.206  0.0491 -0.2104 -1.0768
 3868TIP3    H233096   6.692   5.377   0.273 -1.0793 -0.8849 -0.5510
 3869TIP3   OH233097   3.786   4.770  11.954 -0.1232 -0.2217 -0.2115
 3869TIP3    H133098   3.792   4.687  11.908  1.8535 -0.1815 -0.1263
 3869TIP3    H233099   3.783   4.746  12.047  0.6921 -0.2191 -0.1753
 3870TIP3   OH233100   3.480   1.664  13.960 -0.2737  0.0705  0.7356
 3870TIP3    H133101   3.545   1.620  13.905 -0.2022 -0.0420  0.9093
 3870TIP3    H233102   3.396   1.645  13.917 -0.0575  1.7906 -0.5694
 3871TIP3   OH233103   4.291   1.009  11.511  0.2667 -0.0414  0.1775
 3871TIP3    H133104   4.246   0.993  11.594  0.3105 -1.1742 -0.0053
 3871TIP3    H233105   4.363   1.068  11.534  0.4704 -0.5984  1.0106
 3872TIP3   OH233106   1.962   0.502   2.070 -0.6218 -0.1143  0.4982
 3872TIP3    H133107   1.974   0.588   2.112  1.3731 -0.1617  0.1174
 3872TIP3    H233108   1.924   0.523   1.984  3.2319  0.8484 -1.1628
 3873TIP3   OH233109   4.091   5.148   4.481 -0.5661  0.3442  0.0005
 3873TIP3    H133110   4.116   5.104   4.562 -0.5291  1.5528  0.6714
 3873TIP3    H233111   3.996   5.140   4.478 -0.4261 -1.4661 -0.9082
 3874TIP3   OH233112   4.448   2.553   4.406 -0.5068  0.8738  0.3756
 3874TIP3    H133113   4.445   2.479   4.346  0.4710  1.8137 -0.9068
 3874TIP3    H233114   4.540   2.564   4.426 -0.5855  1.9822  0.2070
 3875TIP3   OH233115   3.697   1.048  11.528  0.3527 -0.3585 -0.2742
 3875TIP3    H133116   3.694   1.021  11.619  2.2221  0.0926 -0.0371
 3875TIP3    H233117   3.719   1.141  11.531  2.2062 -0.7262 -1.1815
 3876TIP3   OH233118   1.133   6.221   2.559  0.1998 -0.4897  0.3144
 3876TIP3    H133119   1.044   6.203   2.588 -1.2040  2.2803 -1.7625
 3876TIP3    H233120   1.143   6.171   2.478 -0.3308  0.7918 -0.5824
 3877TIP3   OH233121   3.805   3.127  10.953 -0.1979  0.3843 -0.2075
 3877TIP3    H133122   3.862   3.137  10.876 -0.0076 -1.8608 -0.4096
 3877TIP3    H233123   3.834   3.046  10.995 -3.4689 -1.1152 -0.5281
 3878TIP3   OH233124   2.542   6.542  11.422  0.6954 -0.1351  0.6504
 3878TIP3    H133125   2.477   6.591  11.372 -1.2997 -1.7447  1.5105
 3878TIP3    H233126   2.609   6.519  11.358  0.5501  1.7508 -0.2323
 3879TIP3   OH233127   6.082   4.456   2.219  0.5256  0.1272  0.1327
 3879TIP3    H133128   6.082   4.552   2.212 -0.5812  0.0344 -2.5307
 3879TIP3    H233129   5.989   4.432   2.215  0.8107 -1.0738  0.3734
 3880TIP3   OH233130   4.603   3.271   3.838 -0.1111 -0.4461  0.1040
 3880TIP3    H133131   4.579   3.293   3.748  0.0224  0.6748  0.3233
 3880TIP3    H233132   4.541   3.321   3.892  0.4302 -0.3470  0.6438
 3881TIP3   OH233133   5.987   4.217  14.579 -0.3450 -0.6771  0.0589
 3881TIP3    H133134   6.059   4.163  14.612  0.5406  0.4582  0.0714
 3881TIP3    H233135   5.950   4.258  14.657  0.6980  0.7439 -0.1502
 3882TIP3   OH233136   5.101   5.794  11.555 -0.0842 -0.6547  0.4201
 3882TIP3    H133137   5.195   5.776  11.549  0.4044  1.5821  0.4239
 3882TIP3    H233138   5.061   5.731  11.495  1.4866 -1.1813 -0.1378
 3883TIP3   OH233139   2.571   2.878  12.315  0.3470  0.2471 -0.3086
 3883TIP3    H133140   2.545   2.953  12.262  0.9298 -0.6636 -1.9805
 3883TIP3    H233141   2.667   2.885  12.320  0.3414  0.0135  0.1472
 3884TIP3   OH233142   6.356   0.915  16.127  0.6322 -0.0693 -0.4538
 3884TIP3    H133143   6.360   0.995  16.074 -2.5126  0.1787 -0.4880
 3884TIP3    H233144   6.388   0.942  16.213  0.4322  1.0310 -0.7088
 3885TIP3   OH233145   5.895   5.735  13.153  0.2386  0.5977  0.0142
 3885TIP3    H133146   5.893   5.737  13.248  0.7647  0.6723  0.0308
 3885TIP3    H233147   5.979   5.693  13.132 -0.7433 -1.2625 -0.4230
 3886TIP3   OH233148   4.334   1.893   0.842  0.4618  0.3182 -0.2099
 3886TIP3    H133149   4.400   1.950   0.804  0.2662 -0.0732 -1.1617
 3886TIP3    H233150   4.370   1.868   0.927  0.4619  1.9802  0.3020
 3887TIP3   OH233151   1.150   4.035   2.131  0.6230 -0.1420 -0.1550
 3887TIP3    H133152   1.243   4.035   2.155  0.1831  0.6536  1.6579
 3887TIP3    H233153   1.135   4.121   2.092 -0.0605  1.1912  2.7694
 3888TIP3   OH233154   3.967   0.429  12.609  0.0134  0.0443  0.4235
 3888TIP3    H133155   3.962   0.436  12.704  2.0685 -0.6715  0.6466
 3888TIP3    H233156   3.997   0.339  12.593 -1.4119 -0.2288 -0.9804
 3889TIP3   OH233157   2.381   2.760   5.923  0.2592  0.4544  0.6633
 3889TIP3    H133158   2.305   2.741   5.869  1.0933 -2.4538  0.3495
 3889TIP3    H233159   2.347   2.771   6.011 -0.6453  0.6662  0.2935
 3890TIP3   OH233160   1.206   6.007  14.483 -0.6935  0.0153  0.3223
 3890TIP3    H133161   1.207   5.915  14.509 -1.0665 -0.0680  0.0512
 3890TIP3    H233162   1.149   6.050  14.548 -1.0523 -0.0648  0.0618
 3891TIP3   OH233163   3.796   6.687   4.249  0.1219  0.1668 -0.6063
 3891TIP3    H133164   3.761   6.625   4.185 -0.7452  1.3315 -1.3137
 3891TIP3    H233165   3.763   6.657   4.333 -0.5404 -0.1664 -0.9794
 3892TIP3   OH233166   4.582   2.604   3.505 -0.2239 -0.2436 -0.2158
 3892TIP3    H133167   4.566   2.640   3.418  2.4680 -0.0271 -0.7030
 3892TIP3    H233168   4.578   2.679   3.564  0.9487  0.1718 -0.6225
 3893TIP3   OH233169   0.569   0.138  17.059  0.4871  0.4200  0.2258
 3893TIP3    H133170   0.601   0.117  16.972  0.4734 -0.9725  0.5257
 3893TIP3    H233171   0.480   0.170  17.045 -0.3414 -1.8872 -0.1409
 3894TIP3   OH233172   0.830   3.931   2.995  0.0979 -0.0569  0.4386
 3894TIP3    H133173   0.839   3.968   3.083  1.1406  0.4928  0.1220
 3894TIP3    H233174   0.867   3.998   2.937 -0.2744 -0.5512 -0.3922
 3895TIP3   OH233175   3.030   0.197   1.768 -0.3634 -0.4598 -0.0755
 3895TIP3    H133176   2.936   0.191   1.788 -0.5641 -2.0790 -1.2635
 3895TIP3    H233177   3.045   0.127   1.704  1.3667  0.7196 -1.0365
 3896TIP3   OH233178   6.542   5.108  14.845 -0.5095 -0.3307  0.4118
 3896TIP3    H133179   6.574   5.028  14.887 -1.5686 -1.4834 -0.8664
 3896TIP3    H233180   6.525   5.082  14.754  1.4616  1.9808 -0.7680
 3897TIP3   OH233181   5.018   5.739   4.199  0.2677  0.4200  0.0201
 3897TIP3    H133182   5.043   5.825   4.233  0.4496  1.0895 -1.6976
 3897TIP3    H233183   4.966   5.700   4.269  0.0165  2.0117  0.7767
 3898TIP3   OH233184   2.109   3.970  13.106 -0.2393 -0.1856 -0.9554
 3898TIP3    H133185   2.077   3.880  13.115 -0.0746 -0.0244  3.5429
 3898TIP3    H233186   2.035   4.024  13.133  0.5768  0.8559 -0.7571
 3899TIP3   OH233187   4.140   3.668   3.268 -0.1030  0.3764  0.4749
 3899TIP3    H133188   4.164   3.610   3.196 -1.6859  0.2186  0.0500
 3899TIP3    H233189   4.206   3.738   3.266  0.0201  0.2395 -0.9670
 3900TIP3   OH233190   5.894   6.052  10.369  0.0227  0.0312 -0.2797
 3900TIP3    H133191   5.804   6.082  10.384 -0.1500 -0.1820 -0.8867
 3900TIP3    H233192   5.943   6.084  10.445 -0.5909  0.0472  0.1123
 3901TIP3   OH233193   5.070   1.232   5.753  0.1504 -0.3592 -0.2385
 3901TIP3    H133194   5.033   1.283   5.825 -1.8596 -0.7798 -0.9159
 3901TIP3    H233195   5.083   1.294   5.682  4.9246  0.7252  1.2088
 3902TIP3   OH233196   3.947   3.433   3.306 -0.3439  0.0146  0.3427
 3902TIP3    H133197   3.853   3.438   3.325 -0.1736 -0.1967  1.3087
 3902TIP3    H233198   3.971   3.523   3.283 -0.6270  0.2378  0.8923
 3903TIP3   OH233199   4.104   4.211   3.534 -0.0244 -0.1447  0.2274
 3903TIP3    H133200   4.093   4.116   3.522  0.3702  0.0602 -2.4741
 3903TIP3    H233201   4.198   4.222   3.548 -0.3140 -0.2619  2.5444
 3904TIP3   OH233202   2.612   1.444  16.969  0.2152 -0.2262 -0.1036
 3904TIP3    H133203   2.625   1.533  16.936  1.5224  0.8127  2.8740
 3904TIP3    H233204   2.530   1.448  17.018 -0.1274 -0.9080 -0.5999
 3905TIP3   OH233205   2.987   4.411  15.458  0.3991  0.2063 -0.7847
 3905TIP3    H133206   2.897   4.417  15.490  0.5802  1.0407 -0.3967
 3905TIP3    H233207   3.036   4.371  15.529  0.2128 -0.9686 -1.2866
 3906TIP3   OH233208   3.096   5.152   0.950 -0.4210 -0.2922  0.5563
 3906TIP3    H133209   3.015   5.201   0.966  0.5313  1.1036  1.4033
 3906TIP3    H233210   3.163   5.220   0.943  0.7459 -1.4375  0.2769
 3907TIP3   OH233211   4.202   3.246   3.663  0.0187  0.4594  0.1735
 3907TIP3    H133212   4.156   3.327   3.641  1.5747  1.7005  1.2560
 3907TIP3    H233213   4.142   3.199   3.721  0.2404  2.2635  1.9560
 3908TIP3   OH233214   1.544   0.972  13.330 -0.1019  0.2155  0.2261
 3908TIP3    H133215   1.462   0.973  13.281  0.2742  0.5188 -0.4198
 3908TIP3    H233216   1.611   0.956  13.263  0.4453  0.9115  0.5955
 3909TIP3   OH233217   5.934   1.593  16.516  0.5778 -0.4056  0.0981
 3909TIP3    H133218   5.864   1.620  16.457 -1.1177 -0.6727  1.9104
 3909TIP3    H233219   5.996   1.547  16.459  1.2486  2.9899 -2.2420
 3910TIP3   OH233220   5.781   4.040  13.545  0.0377 -0.0662 -0.1825
 3910TIP3    H133221   5.731   4.045  13.626  0.0106  1.3372 -0.2567
 3910TIP3    H233222   5.826   4.124  13.539 -1.7198  0.8319 -2.6849
 3911TIP3   OH233223   6.687   0.747  16.834 -0.0976  0.8097 -0.5151
 3911TIP3    H133224   6.778   0.772  16.848 -0.0105  0.6910 -0.8549
 3911TIP3    H233225   6.691   0.671  16.776 -0.3936  0.4590 -0.0834
 3912TIP3   OH233226   2.938   0.198   5.198 -0.1364 -0.1383 -0.1318
 3912TIP3    H133227   2.945   0.176   5.291 -0.9696  1.0157  0.2345
 3912TIP3    H233228   2.932   0.114   5.154 -0.3115 -0.6979  0.9256
 3913TIP3   OH233229   6.273   1.701  16.404 -0.3035  0.4981 -0.2664
 3913TIP3    H133230   6.222   1.628  16.369 -0.1586  0.7847 -1.0941
 3913TIP3    H233231   6.224   1.730  16.481  0.0170 -0.9354  0.5198
 3914TIP3   OH233232   5.015   3.926   6.129  0.2709  0.2185  0.3950
 3914TIP3    H133233   5.006   3.973   6.212  1.6783 -0.9246  1.2546
 3914TIP3    H233234   5.078   3.978   6.080  0.7762 -0.0103  0.7840
 3915TIP3   OH233235   6.449   3.824   2.519  0.3868 -0.1455  0.1794
 3915TIP3    H133236   6.526   3.820   2.463  0.9538  0.5525  0.8978
 3915TIP3    H233237   6.479   3.866   2.599 -1.3026  2.5586 -0.4739
 3916TIP3   OH233238   6.561   3.582  16.392  0.2285 -0.4345  0.1111
 3916TIP3    H133239   6.603   3.551  16.313 -0.5078  2.1921 -1.4370
 3916TIP3    H233240   6.608   3.663  16.415 -1.5134  0.5362  0.5005
 3917TIP3   OH233241   0.640   4.250   0.084  0.7778  0.4611 -0.2923
 3917TIP3    H133242   0.691   4.254   0.165 -1.3896 -0.1930  1.1967
 3917TIP3    H233243   0.675   4.321   0.031  1.1307  2.0868  1.9478
 3918TIP3   OH233244   0.418   6.211  13.044 -0.3486 -0.0670 -0.1125
 3918TIP3    H133245   0.397   6.148  13.113 -0.1274  1.3060  1.2421
 3918TIP3    H233246   0.512   6.227  13.055 -0.7076  1.7011  0.6133
 3919TIP3   OH233247   1.780   6.143   5.041  0.5380 -0.1246  0.1560
 3919TIP3    H133248   1.800   6.061   5.085 -0.2193 -0.0739  0.6175
 3919TIP3    H233249   1.687   6.136   5.018  0.7329  0.1651 -0.7608
 3920TIP3   OH233250   3.641   4.584  12.402 -0.2352 -0.2984  0.6456
 3920TIP3    H133251   3.722   4.567  12.448  0.3134  0.1187 -0.1348
 3920TIP3    H233252   3.667   4.595  12.310 -0.8786  1.8793  0.6619
 3921TIP3   OH233253   1.596   3.652  11.292 -0.2125 -0.2005  0.0176
 3921TIP3    H133254   1.508   3.655  11.255 -0.2060  0.8795  0.0608
 3921TIP3    H233255   1.591   3.708  11.369  1.2102  2.2048 -1.5283
 3922TIP3   OH233256   5.454   3.502   5.887 -0.0824 -0.0535  0.1945
 3922TIP3    H133257   5.411   3.417   5.882 -0.3609  0.1483 -1.4282
 3922TIP3    H233258   5.548   3.482   5.889 -0.1474 -0.3886 -0.1790
 3923TIP3   OH233259   6.190   1.860   1.747  0.6652  0.3570  0.1012
 3923TIP3    H133260   6.141   1.835   1.669  2.0620 -1.6781 -0.2003
 3923TIP3    H233261   6.197   1.780   1.799  3.2262  0.6462  0.3332
 3924TIP3   OH233262   3.664   1.597  11.041 -0.8190  0.3855  0.1638
 3924TIP3    H133263   3.675   1.654  10.965 -1.3832  1.6992  1.0229
 3924TIP3    H233264   3.584   1.548  11.023  0.7658 -1.7596 -1.5278
 3925TIP3   OH233265   6.176   5.244  15.446 -0.4721  0.0261  0.2515
 3925TIP3    H133266   6.101   5.207  15.492 -0.7927  0.3516  0.0008
 3925TIP3    H233267   6.227   5.288  15.514 -0.8696  0.3873  0.3210
 3926TIP3   OH233268   3.430   4.745  12.495 -0.5902  0.8281  0.1364
 3926TIP3    H133269   3.385   4.801  12.431  0.1148  0.3144 -0.8308
 3926TIP3    H233270   3.494   4.696  12.444  1.6004  2.0222  1.5415
 3927TIP3   OH233271   5.327   1.526  14.627  0.2053  0.0978  0.1428
 3927TIP3    H133272   5.265   1.459  14.657  0.8618 -0.8754 -0.5809
 3927TIP3    H233273   5.340   1.506  14.534  1.6984  0.1869  0.3115
 3928TIP3   OH233274   2.211   2.842  14.237  0.5782 -0.1051 -0.1637
 3928TIP3    H133275   2.274   2.778  14.270  0.0911 -1.5979 -2.0256
 3928TIP3    H233276   2.129   2.820  14.281  0.6092 -0.2033 -0.1548
 3929TIP3   OH233277   5.519   3.111   2.302 -0.3170  0.4127 -0.6417
 3929TIP3    H133278   5.533   3.056   2.379  1.2520  0.3209 -0.9449
 3929TIP3    H233279   5.435   3.155   2.318 -0.7805 -0.7880  0.3756
 3930TIP3   OH233280   6.113   2.548   3.788  0.3109 -0.3685 -0.1161
 3930TIP3    H133281   6.137   2.619   3.727  0.9066  0.4527  1.0274
 3930TIP3    H233282   6.196   2.503   3.805  0.1069 -0.7248 -0.0651
 3931TIP3   OH233283   2.638   3.235  13.400  0.2182  0.2943  0.4865
 3931TIP3    H133284   2.690   3.315  13.391  0.1050  0.2086 -1.2738
 3931TIP3    H233285   2.551   3.260  13.368 -0.4879  0.0686  2.1201
 3932TIP3   OH233286   5.665   1.847  12.211 -0.6194 -0.3246  0.5122
 3932TIP3    H133287   5.684   1.878  12.123  2.6904 -1.2050  0.7573
 3932TIP3    H233288   5.633   1.924  12.258 -2.8087  0.0706 -1.4800
 3933TIP3   OH233289   2.791   6.592   2.554 -0.5111 -0.2039  0.9233
 3933TIP3    H133290   2.882   6.584   2.525 -0.6209  1.4672  0.0367
 3933TIP3    H233291   2.781   6.524   2.621  1.0097 -1.2605  0.1281
 3934TIP3   OH233292   4.766   4.462   4.384 -0.0131  0.0191 -0.1140
 3934TIP3    H133293   4.701   4.439   4.318  0.7432  0.1047 -0.9007
 3934TIP3    H233294   4.752   4.397   4.454  0.9937 -1.8497 -1.5628
 3935TIP3   OH233295   2.555   0.129  11.281  0.1568  0.4112  0.6533
 3935TIP3    H133296   2.506   0.048  11.267 -2.4760  2.0234 -0.2325
 3935TIP3    H233297   2.548   0.176  11.198  1.4586  1.6238  1.1872
 3936TIP3   OH233298   3.678   3.616  13.530 -0.3497  0.1969 -0.2534
 3936TIP3    H133299   3.759   3.660  13.503 -0.7253  0.6530 -0.6352
 3936TIP3    H233300   3.618   3.687  13.551  0.0804 -0.1047  2.3621
 3937TIP3   OH233301   1.069   2.642   2.272  0.0500  0.2467 -0.7935
 3937TIP3    H133302   1.053   2.731   2.242  0.0498  0.1392 -1.1191
 3937TIP3    H233303   0.987   2.596   2.257  0.6335 -0.3174 -2.5221
 3938TIP3   OH233304   0.182   0.872  15.737 -0.4476 -0.1744 -0.2252
 3938TIP3    H133305   0.225   0.957  15.732 -1.0750  0.2244  0.7772
 3938TIP3    H233306   0.098   0.885  15.693 -0.8250 -0.0786  0.5134
 3939TIP3   OH233307   1.148   5.298   3.249  0.5756 -0.6611 -0.3554
 3939TIP3    H133308   1.213   5.232   3.227 -0.6797 -1.4276 -1.9939
 3939TIP3    H233309   1.114   5.271   3.334  1.9539 -0.5601  0.2603
 3940TIP3   OH233310   5.128   1.637   2.756 -0.0199 -0.7029 -0.9259
 3940TIP3    H133311   5.194   1.693   2.717 -0.1912  1.0797  1.1163
 3940TIP3    H233312   5.045   1.670   2.723 -0.2016  1.1549  1.1356
 3941TIP3   OH233313   1.170   5.755   3.566  0.5237  0.6148  0.2630
 3941TIP3    H133314   1.157   5.660   3.565  0.0160  0.6253  2.3838
 3941TIP3    H233315   1.265   5.767   3.563  0.5934  0.0380  0.1033
 3942TIP3   OH233316   6.269   0.374   1.643 -0.7327  0.3074  0.5704
 3942TIP3    H133317   6.239   0.404   1.557  1.2384 -1.7762 -0.9638
 3942TIP3    H233318   6.197   0.320   1.676 -1.0702  0.1976 -0.3079
 3943TIP3   OH233319   0.538   0.898   4.575 -0.2389 -0.0866  0.1723
 3943TIP3    H133320   0.509   0.918   4.665 -3.5658  0.1368 -0.7978
 3943TIP3    H233321   0.470   0.839   4.542 -0.5690  1.8628 -2.9925
 3944TIP3   OH233322   2.825   6.381   4.758 -0.3976 -0.4738  0.5493
 3944TIP3    H133323   2.876   6.457   4.787  1.4782 -2.0772  1.7518
 3944TIP3    H233324   2.749   6.379   4.817 -1.0964  1.0732 -0.2453
 3945TIP3   OH233325   2.587   4.259   2.514 -0.5151  0.7543  0.0003
 3945TIP3    H133326   2.545   4.321   2.573  1.3590  0.3847  1.8320
 3945TIP3    H233327   2.516   4.202   2.485 -1.5311  1.0288  1.8020
 3946TIP3   OH233328   5.921   6.709  11.405  0.1433 -0.2293 -0.9277
 3946TIP3    H133329   5.859   6.645  11.440 -0.3428  0.4421 -0.5582
 3946TIP3    H233330   5.871   6.761  11.343 -0.3370  1.8657  1.0941
 3947TIP3   OH233331   4.484   2.440   6.429  0.1156 -0.4381 -0.0696
 3947TIP3    H133332   4.483   2.502   6.502 -0.4030 -0.6910  0.1405
 3947TIP3    H233333   4.463   2.494   6.352  1.4941 -0.0056 -0.1869
 3948TIP3   OH233334   5.354   4.593  12.336 -0.2219 -0.2699  0.2917
 3948TIP3    H133335   5.380   4.550  12.255 -1.3704 -4.0449  1.6824
 3948TIP3    H233336   5.262   4.615  12.322 -0.7333 -1.9087  0.8352
 3949TIP3   OH233337   4.601   4.129  13.841 -0.0053  0.1244 -0.1529
 3949TIP3    H133338   4.638   4.216  13.825 -0.9057  0.6543  0.4887
 3949TIP3    H233339   4.512   4.147  13.872  0.7667 -0.8504  3.0287
 3950TIP3   OH233340   4.260   4.617  16.019 -0.1287  0.4622  0.0653
 3950TIP3    H133341   4.232   4.530  16.046 -1.0767  0.8452  0.3540
 3950TIP3    H233342   4.285   4.660  16.101 -1.2539  1.0112  0.1338
 3951TIP3   OH233343   2.210   5.169  15.708  0.5745 -0.1917 -0.2166
 3951TIP3    H133344   2.279   5.103  15.702  0.0184 -0.6750 -4.2813
 3951TIP3    H233345   2.254   5.252  15.691  0.6363 -0.0161  0.7392
 3952TIP3   OH233346   1.079   6.162  13.720  0.0764 -0.0773  0.5798
 3952TIP3    H133347   1.103   6.254  13.728 -0.4476 -0.0129  1.5725
 3952TIP3    H233348   1.154   6.114  13.756  0.3075 -0.0314  0.1550
 3953TIP3   OH233349   1.637   1.926  16.860 -0.3115  0.0444  0.3910
 3953TIP3    H133350   1.649   1.924  16.765  1.6814  2.0633  0.5124
 3953TIP3    H233351   1.648   2.018  16.883  0.9286 -0.6163  2.7386
 3954TIP3   OH233352   4.155   5.091  17.383  0.0361 -0.2664  0.2450
 3954TIP3    H133353   4.202   5.134  17.310  0.3206 -0.1217  0.5106
 3954TIP3    H233354   4.209   5.110  17.460 -0.9194  0.6771  0.7128
 3955TIP3   OH233355   1.094   6.732  16.377  0.4758  0.0361 -0.1840
 3955TIP3    H133356   1.034   6.767  16.311 -0.5029 -0.1515  0.5780
 3955TIP3    H233357   1.103   6.803  16.441 -2.1444 -1.1984  1.7950
 3956TIP3   OH233358   1.519   1.853   1.108  0.2363 -0.4426  0.6996
 3956TIP3    H133359   1.472   1.792   1.165  0.5375 -1.0960  0.2516
 3956TIP3    H233360   1.590   1.801   1.070 -0.7450 -0.3948 -1.3054
 3957TIP3   OH233361   5.878   0.321  13.270  0.3458 -0.4448 -0.2688
 3957TIP3    H133362   5.832   0.310  13.187 -0.9800 -1.5733  0.5721
 3957TIP3    H233363   5.969   0.338  13.245 -0.5466  2.4513 -2.0025
 3958TIP3   OH233364   1.203   1.421   1.656  0.3310  0.2324  0.0632
 3958TIP3    H133365   1.157   1.339   1.677  1.5650 -0.5996 -0.3585
 3958TIP3    H233366   1.237   1.407   1.568  0.0510  1.4572 -0.2561
 3959TIP3   OH233367   2.941   2.306  14.761 -0.2701 -0.0251 -0.1251
 3959TIP3    H133368   2.948   2.399  14.740  0.9990  0.1969  1.0726
 3959TIP3    H233369   3.029   2.271  14.745 -0.5364 -0.8538  0.1436
 3960TIP3   OH233370   3.514   2.243   2.502  0.2349 -0.3725 -0.6587
 3960TIP3    H133371   3.508   2.320   2.446 -1.0832 -0.6208 -0.8993
 3960TIP3    H233372   3.427   2.203   2.497  1.5383 -3.3089 -2.5553
 3961TIP3   OH233373   4.021   5.171  15.660 -0.0602  0.0716 -0.6048
 3961TIP3    H133374   4.040   5.116  15.735  1.2736 -1.3004 -1.8600
 3961TIP3    H233375   3.942   5.219  15.684 -0.5661 -1.4783  1.0350
 3962TIP3   OH233376   5.931   2.115  11.793 -0.3822 -0.2704  0.2023
 3962TIP3    H133377   6.007   2.108  11.851 -1.0063  1.1079  1.2699
 3962TIP3    H233378   5.950   2.191  11.738 -1.6168  1.1310  1.5887
 3963TIP3   OH233379   6.234   6.625   2.220  0.6281  0.0569 -0.3542
 3963TIP3    H133380   6.312   6.584   2.257 -1.2385 -5.5157 -1.6134
 3963TIP3    H233381   6.260   6.651   2.132  1.1653 -1.8315 -0.7958
 3964TIP3   OH233382   3.250   2.188   2.427 -0.3391 -0.4707 -0.3560
 3964TIP3    H133383   3.224   2.217   2.340 -1.7642  0.8822  0.4549
 3964TIP3    H233384   3.167   2.173   2.473  0.3773 -1.8819  0.5596
 3965TIP3   OH233385   2.681   4.821   5.752  0.4081  0.0706 -0.0748
 3965TIP3    H133386   2.771   4.823   5.721  0.3429  1.2107 -0.2278
 3965TIP3    H233387   2.637   4.891   5.704 -1.0708 -1.7218 -1.4881
 3966TIP3   OH233388   5.787   0.623   5.238 -0.6625  0.3233 -0.4284
 3966TIP3    H133389   5.758   0.593   5.152 -0.2072 -0.3927 -0.3441
 3966TIP3    H233390   5.883   0.622   5.232 -0.6352  1.8870 -0.4540
 3967TIP3   OH233391   6.056   3.759  15.901 -0.4715  0.5447 -0.2227
 3967TIP3    H133392   5.994   3.771  15.829 -1.6917  0.9503  0.8497
 3967TIP3    H233393   6.002   3.758  15.980  0.7307 -0.7561  0.6526
 3968TIP3   OH233394   4.781   1.313   0.668 -0.0724 -0.2040 -0.1777
 3968TIP3    H133395   4.859   1.325   0.614  0.6664 -0.8334  0.7041
 3968TIP3    H233396   4.812   1.326   0.758 -1.5215  2.0891  0.0661
 3969TIP3   OH233397   1.408   3.880   4.503  0.5379  0.1425 -0.0175
 3969TIP3    H133398   1.443   3.837   4.582 -0.2159 -0.2088  0.1376
 3969TIP3    H233399   1.334   3.932   4.535 -0.2338 -0.5769 -0.5854
 3970TIP3   OH233400   3.629   3.495  17.115  0.0982  0.2658  0.1736
 3970TIP3    H133401   3.674   3.412  17.135 -0.7593 -0.1600  0.3846
 3970TIP3    H233402   3.685   3.562  17.154  0.7495 -0.2162  0.1042
 3971TIP3   OH233403   5.588   3.765  10.704 -0.5924  0.2695  0.0825
 3971TIP3    H133404   5.596   3.845  10.653 -2.0861  1.2810  1.3514
 3971TIP3    H233405   5.655   3.707  10.668  0.2248  1.9075 -1.1714
 3972TIP3   OH233406   1.366   2.912   0.895  0.5587  0.1374 -0.0172
 3972TIP3    H133407   1.365   2.975   0.966  0.2304  0.1690 -0.0479
 3972TIP3    H233408   1.274   2.904   0.869  0.4999 -0.8662  0.4462
 3973TIP3   OH233409   2.383   3.176  12.466  0.0771  0.0952  0.4806
 3973TIP3    H133410   2.435   3.232  12.523 -1.1517  0.9344  0.8163
 3973TIP3    H233411   2.411   3.198  12.377  0.4800  0.3289  0.6658
 3974TIP3   OH233412   4.494   3.549   3.197 -0.4026 -0.1450  0.1560
 3974TIP3    H133413   4.438   3.546   3.119 -1.0745  1.5225  0.5218
 3974TIP3    H233414   4.547   3.628   3.184  0.4598 -0.6187  0.7546
 3975TIP3   OH233415   5.843   5.749  13.419 -0.3771  0.2314 -0.0270
 3975TIP3    H133416   5.895   5.808  13.474 -0.0662 -1.0111  1.0672
 3975TIP3    H233417   5.878   5.662  13.438 -0.6508 -0.2999 -1.7975
 3976TIP3   OH233418   5.844   2.046  14.778 -0.8573 -0.1924 -0.2659
 3976TIP3    H133419   5.833   2.049  14.683 -0.7689 -0.5189 -0.2882
 3976TIP3    H233420   5.839   2.137  14.806  0.1000  0.0057 -0.6919
 3977TIP3   OH233421   6.378   1.057   4.635 -0.3120  0.0856 -0.1877
 3977TIP3    H133422   6.298   1.045   4.585 -0.7714  1.0090  0.3087
 3977TIP3    H233423   6.418   1.136   4.598 -1.0429  1.2267  1.3753
 3978TIP3   OH233424   4.441   0.966  16.975 -0.3934 -0.6578 -0.3193
 3978TIP3    H133425   4.529   0.992  17.002 -0.4094  0.2599 -1.1058
 3978TIP3    H233426   4.443   0.870  16.976  0.7908 -0.6515 -0.8901
 3979TIP3   OH233427   5.138   6.743  16.768 -0.6020  0.4856 -0.1175
 3979TIP3    H133428   5.060   6.794  16.788 -0.9964 -0.1833  0.0927
 3979TIP3    H233429   5.195   6.803  16.721 -1.2920  0.9521 -0.3693
 3980TIP3   OH233430   2.889   0.435   5.846 -0.5344  0.2514  1.1161
 3980TIP3    H133431   2.844   0.499   5.791 -0.5499  0.8519  1.8022
 3980TIP3    H233432   2.980   0.441   5.819 -0.3156  1.5024  2.0240
 3981TIP3   OH233433   5.780   5.654   1.024 -0.3913  0.9767  0.1493
 3981TIP3    H133434   5.788   5.597   1.100 -0.7047 -0.3397 -0.7802
 3981TIP3    H233435   5.843   5.724   1.041  1.0578 -0.3915  0.6740
 3982TIP3   OH233436   0.644   6.272   1.217  0.1697 -0.1452 -0.0221
 3982TIP3    H133437   0.609   6.350   1.259  1.1071 -0.5528  1.6294
 3982TIP3    H233438   0.738   6.274   1.239  0.2930 -1.4597 -0.3723
 3983TIP3   OH233439   1.658   2.386   4.241  0.4301  0.1270 -0.5314
 3983TIP3    H133440   1.732   2.355   4.189 -0.4189 -1.3572 -0.8814
 3983TIP3    H233441   1.581   2.348   4.200 -0.4781  0.9499  0.3439
 3984TIP3   OH233442   3.132   3.735   1.453 -0.3712 -0.0294  0.2713
 3984TIP3    H133443   3.079   3.710   1.529 -0.6084  1.0632  0.4835
 3984TIP3    H233444   3.222   3.712   1.478 -0.7988 -2.9655 -0.5416
 3985TIP3   OH233445   6.688   1.293  11.197 -0.6370 -0.4177  0.0605
 3985TIP3    H133446   6.704   1.310  11.104  1.4430  2.7984  0.8194
 3985TIP3    H233447   6.729   1.209  11.214  2.9752  0.8776 -1.1916
 3986TIP3   OH233448   4.549   0.504   5.858  0.2756 -0.6321 -0.1259
 3986TIP3    H133449   4.553   0.416   5.898  0.5164 -1.9077 -2.7521
 3986TIP3    H233450   4.456   0.519   5.844  0.1995 -0.2351  0.7367
 3987TIP3   OH233451   0.451   1.063  15.987  0.4802 -0.1533 -0.3302
 3987TIP3    H133452   0.422   1.119  15.914  1.8793 -0.3937 -1.1203
 3987TIP3    H233453   0.374   1.053  16.042 -0.6356  0.0389 -1.7892
 3988TIP3   OH233454   0.465   1.802  13.646  0.2218 -0.2000  0.2061
 3988TIP3    H133455   0.384   1.752  13.641  0.2533 -0.3468  1.0759
 3988TIP3    H233456   0.534   1.740  13.624  0.2773 -0.6056  1.4481
 3989TIP3   OH233457   0.667   1.901  12.668 -0.1931  0.0398 -0.0380
 3989TIP3    H133458   0.656   1.994  12.650 -2.3999  0.4344  2.7203
 3989TIP3    H233459   0.603   1.858  12.612 -0.9994  0.4492  0.5505
 3990TIP3   OH233460   0.260   6.133   2.570  0.7106 -0.6535 -0.0977
 3990TIP3    H133461   0.352   6.144   2.546  0.3066 -0.3497 -1.6191
 3990TIP3    H233462   0.241   6.041   2.548  0.3737 -0.4115 -0.8590
 3991TIP3   OH233463   3.633   5.431  11.848 -0.2436 -0.2660  0.0869
 3991TIP3    H133464   3.707   5.472  11.892  0.0415  0.7750 -1.2532
 3991TIP3    H233465   3.665   5.411  11.760 -0.8435 -2.0683  0.2351
 3992TIP3   OH233466   0.329   4.663  15.597 -0.3848 -0.3436  0.1220
 3992TIP3    H133467   0.243   4.691  15.567 -0.5019 -1.0596 -0.2264
 3992TIP3    H233468   0.353   4.591  15.539  0.6691  0.1685 -0.0960
 3993TIP3   OH233469   4.178   6.008  16.137  0.0368  0.3711 -0.1593
 3993TIP3    H133470   4.106   6.057  16.177  0.1148  0.6254 -0.3313
 3993TIP3    H233471   4.255   6.063  16.151 -0.0193  0.6915 -1.0867
 3994TIP3   OH233472   4.952   4.312  12.741 -0.0105 -0.1935 -0.1411
 3994TIP3    H133473   4.883   4.260  12.700  1.2447 -0.8428 -1.5045
 3994TIP3    H233474   5.003   4.346  12.668  0.5468  1.0962  0.8168
 3995TIP3   OH233475   5.574   2.666  11.337 -0.4742 -0.0127  0.1450
 3995TIP3    H133476   5.561   2.695  11.247 -0.5999  1.7812  0.7040
 3995TIP3    H233477   5.487   2.674  11.378 -0.4453 -0.9224  0.4235
 3996TIP3   OH233478   4.011   2.805  16.869 -0.0626 -0.2803  0.4282
 3996TIP3    H133479   3.970   2.720  16.884 -3.1146  0.6550 -1.6064
 3996TIP3    H233480   4.085   2.786  16.812  0.0855 -1.6723  1.0358
 3997TIP3   OH233481   0.085   4.027  17.211 -0.1364 -0.2427 -0.2844
 3997TIP3    H133482   0.172   4.056  17.185  0.6826 -1.8725  0.4601
 3997TIP3    H233483   0.098   3.988  17.298 -2.0584  1.5834  0.9288
 3998TIP3   OH233484   6.275   4.919  16.202  0.6508  0.5818 -0.0635
 3998TIP3    H133485   6.204   4.956  16.148  0.8577  0.0205 -0.7272
 3998TIP3    H233486   6.299   4.837  16.159  1.5039  0.6107  0.3258
 3999TIP3   OH233487   6.794   1.724   4.408 -0.2951  0.3297 -0.0007
 3999TIP3    H133488   6.722   1.765   4.456 -0.7837 -0.0378 -0.4117
 3999TIP3    H233489   6.771   1.735   4.316 -0.0236 -0.1464 -0.1292
 4000TIP3   OH233490   3.884   1.140   0.910  0.0465 -0.0774 -0.4449
 4000TIP3    H133491   3.857   1.126   0.819 -0.2089  2.5105 -0.8329
 4000TIP3    H233492   3.823   1.206   0.943  2.5911  2.0302  0.3067
 4001TIP3   OH233493   4.559   2.602   2.451  0.3457 -0.4689 -0.3466
 4001TIP3    H133494   4.473   2.569   2.426 -0.6303  2.1548 -0.7183
 4001TIP3    H233495   4.559   2.693   2.424  2.1733  0.4096  2.1817
 4002TIP3   OH233496   5.976   0.044  11.009  0.1739 -0.2750 -0.7765
 4002TIP3    H133497   6.013   0.057  11.096 -1.5424 -0.5328  0.0219
 4002TIP3    H233498   5.979   0.130  10.968  0.0724  0.0521 -0.0952
 4003TIP3   OH233499   2.594   3.189   0.706 -0.9171  0.0897 -0.0903
 4003TIP3    H133500   2.664   3.179   0.642  1.3877  0.5181  2.1833
 4003TIP3    H233501   2.607   3.117   0.768 -0.4892  1.8938  2.0655
 4004TIP3   OH233502   0.714   2.662  15.937 -0.4956 -0.0937 -0.4265
 4004TIP3    H133503   0.717   2.576  15.980  1.5004  0.1999  0.1119
 4004TIP3    H233504   0.750   2.646  15.850  0.4253  0.2930 -0.1236
 4005TIP3   OH233505   2.646   1.665  16.794  0.2944 -0.8198 -0.6417
 4005TIP3    H133506   2.737   1.681  16.821 -0.2081  0.0145  0.6479
 4005TIP3    H233507   2.654   1.605  16.720  1.9107 -0.5402 -0.7456
 4006TIP3   OH233508   4.864   2.337  17.270 -0.6463  0.1411 -0.6293
 4006TIP3    H133509   4.831   2.248  17.258  1.3367 -0.7470  0.0260
 4006TIP3    H233510   4.919   2.353  17.194 -1.0470  0.8482 -0.7765
 4007TIP3   OH233511   6.205   1.159   3.059  0.5224  0.4639 -0.0930
 4007TIP3    H133512   6.110   1.168   3.069  0.7977  1.0934  2.6590
 4007TIP3    H233513   6.217   1.073   3.019 -1.1690 -0.4149  1.1715
 4008TIP3   OH233514   6.331   1.045   3.537 -0.6673  0.0074 -0.2088
 4008TIP3    H133515   6.384   1.083   3.467 -0.7997  0.7788  0.0968
 4008TIP3    H233516   6.283   0.973   3.496 -0.1701 -0.0276 -0.7281
 4009TIP3   OH233517   2.984   6.135  11.125  0.7548  0.6535 -0.0391
 4009TIP3    H133518   2.897   6.124  11.164  0.9741 -1.4768 -0.0063
 4009TIP3    H233519   3.010   6.223  11.149 -1.7465  1.6941 -0.8096
 4010TIP3   OH233520   1.919   0.076  11.490 -0.0411 -0.0822  0.1420
 4010TIP3    H133521   1.864   0.024  11.549  2.4933 -0.4175  2.3884
 4010TIP3    H233522   1.891   0.166  11.504  0.3822 -0.1762  1.8087
 4011TIP3   OH233523   3.519   4.448   5.142  0.4645 -0.0978 -0.1662
 4011TIP3    H133524   3.429   4.470   5.116  0.0902 -1.4835 -0.1315
 4011TIP3    H233525   3.510   4.408   5.229  1.0625 -0.5669 -0.3133
 4012TIP3   OH233526   4.346   2.852   2.549 -0.0980 -0.3869  0.3158
 4012TIP3    H133527   4.427   2.864   2.499 -0.4057 -0.5452 -0.2258
 4012TIP3    H233528   4.346   2.923   2.613  0.4852 -0.4077  0.3436
 4013TIP3   OH233529   2.248   6.743  12.915  0.3197 -0.4585 -0.0964
 4013TIP3    H133530   2.269   6.679  12.847 -0.1575  1.2803 -1.9591
 4013TIP3    H233531   2.251   6.692  12.997 -3.0518 -3.6574 -1.6591
 4014TIP3   OH233532   5.494   5.858   5.088  0.1404 -0.1257  0.2044
 4014TIP3    H133533   5.405   5.884   5.063 -0.0819  0.9589  1.9238
 4014TIP3    H233534   5.482   5.802   5.164  0.8970 -1.1621 -0.4072
 4015TIP3   OH233535   0.869   2.131  11.741 -0.1068 -0.0246  0.3997
 4015TIP3    H133536   0.856   2.084  11.824  0.2634 -0.4664  0.2090
 4015TIP3    H233537   0.790   2.113  11.691 -1.3785  2.0792  1.5105
 4016TIP3   OH233538   0.735   2.821   4.604  0.6758  0.1622 -0.6176
 4016TIP3    H133539   0.812   2.878   4.607  0.9802 -0.2375 -0.8325
 4016TIP3    H233540   0.769   2.735   4.582  0.5031 -0.6161  1.8215
 4017TIP3   OH233541   2.775   5.826   0.626 -0.3323  0.3151 -0.5117
 4017TIP3    H133542   2.712   5.881   0.674 -2.4769 -3.3638  1.3689
 4017TIP3    H233543   2.743   5.825   0.536 -0.0430  2.2356 -0.6871
 4018TIP3   OH233544   5.042   5.386   4.040  0.0376 -0.0755  0.5340
 4018TIP3    H133545   5.102   5.445   3.994 -0.4016 -0.6007 -0.7623
 4018TIP3    H233546   4.980   5.444   4.083  1.1156  0.4615  1.4301
 4019TIP3   OH233547   5.711   5.424   3.162 -0.1750 -0.0585 -0.0323
 4019TIP3    H133548   5.706   5.504   3.109 -0.9380  1.0860  1.6721
 4019TIP3    H233549   5.804   5.400   3.160  0.1931  1.2756 -0.0092
 4020TIP3   OH233550   5.110   1.889   4.061 -0.1753  0.1850  0.3423
 4020TIP3    H133551   5.149   1.822   4.117  1.5352  0.4947 -0.4159
 4020TIP3    H233552   5.152   1.877   3.976 -1.2111  1.0376 -0.3178
 4021TIP3   OH233553   2.517   2.632  12.708  0.1091 -0.3474  0.8439
 4021TIP3    H133554   2.586   2.596  12.762 -0.6614 -1.4122  1.1536
 4021TIP3    H233555   2.440   2.635  12.765 -0.0445  1.1109  0.6061
 4022TIP3   OH233556   5.985   5.381   3.125  0.1302 -0.2900  0.3118
 4022TIP3    H133557   5.987   5.412   3.034 -0.4801  0.6441  0.6016
 4022TIP3    H233558   6.051   5.312   3.128  2.0990  1.4555 -0.2132
 4023TIP3   OH233559   2.863   4.883  14.155 -0.2005 -0.1909 -0.1466
 4023TIP3    H133560   2.849   4.946  14.084 -1.7307 -0.1092  0.1840
 4023TIP3    H233561   2.884   4.937  14.231 -0.1827 -0.1699 -0.1661
 4024TIP3   OH233562   2.565   6.438   1.917 -0.5118  0.1517  0.0831
 4024TIP3    H133563   2.537   6.459   2.006 -0.4057  1.5661 -0.1898
 4024TIP3    H233564   2.659   6.457   1.917 -0.3516 -0.6099 -0.1277
 4025TIP3   OH233565   2.411   5.038   1.102  0.6073 -0.3475 -0.2314
 4025TIP3    H133566   2.365   4.964   1.142  0.0451 -0.9021 -1.8192
 4025TIP3    H233567   2.345   5.106   1.094  0.2788 -0.8009 -1.6196
 4026TIP3   OH233568   2.047   3.909  14.553  0.7867 -0.7239  0.1967
 4026TIP3    H133569   2.032   3.825  14.510  0.0311 -0.2003 -0.5828
 4026TIP3    H233570   1.962   3.931  14.591  1.2067 -0.7221  1.1665
 4027TIP3   OH233571   0.630   5.996   4.122  0.5081  0.1206 -0.1959
 4027TIP3    H133572   0.718   5.974   4.093  0.9790  0.4470  0.9343
 4027TIP3    H233573   0.641   6.029   4.211 -0.7732  0.0288  0.0231
 4028TIP3   OH233574   5.236   5.366  14.277  0.2350  0.2380 -0.0552
 4028TIP3    H133575   5.154   5.323  14.255 -1.0216  1.7781  1.3061
 4028TIP3    H233576   5.265   5.324  14.358  0.3794  0.2280 -0.1109
 4029TIP3   OH233577   5.088   5.388  13.337 -0.2004  0.0495 -0.0835
 4029TIP3    H133578   5.090   5.483  13.325  0.5487  0.0991  0.3461
 4029TIP3    H233579   5.144   5.373  13.413 -0.6651 -0.7000  0.1212
 4030TIP3   OH233580   2.753   0.649   5.749  0.4759  0.2997  0.2771
 4030TIP3    H133581   2.816   0.673   5.681 -1.4126  2.3552 -0.8959
 4030TIP3    H233582   2.720   0.732   5.782 -2.6570 -0.6125 -0.2079
 4031TIP3   OH233583   6.363   3.661   2.221  0.1478  0.2869  0.6474
 4031TIP3    H133584   6.373   3.680   2.127  1.5181 -0.8624  0.5265
 4031TIP3    H233585   6.449   3.681   2.258  0.1903 -1.0733  1.3230
 4032TIP3   OH233586   0.784   2.005  17.033 -0.3247  0.0737 -0.0110
 4032TIP3    H133587   0.801   2.023  17.125  0.1689  0.9572 -0.2628
 4032TIP3    H233588   0.871   1.997  16.993 -0.4706  2.3606 -0.8887
 4033TIP3   OH233589   2.549   3.891  12.491 -0.5048  0.3309 -0.1837
 4033TIP3    H133590   2.458   3.911  12.515 -1.0116 -2.5374  0.6127
 4033TIP3    H233591   2.561   3.936  12.407 -2.5707  0.9879 -0.1979
 4034TIP3   OH233592   6.135   1.533   6.437 -0.4328 -0.9835  0.3853
 4034TIP3    H133593   6.229   1.544   6.424 -0.6627  1.6435  0.3181
 4034TIP3    H233594   6.113   1.592   6.509 -1.9898 -1.8216  0.6582
 4035TIP3   OH233595   0.633   2.726   3.736  0.2823  0.0971 -0.4074
 4035TIP3    H133596   0.641   2.673   3.657 -0.8671  0.2750 -0.6567
 4035TIP3    H233597   0.556   2.780   3.721  1.4338  1.8736 -0.1646
 4036TIP3   OH233598   2.754   0.613   6.277  0.2176 -0.0660  0.5525
 4036TIP3    H133599   2.814   0.545   6.245 -0.6360 -0.7901  0.4483
 4036TIP3    H233600   2.737   0.589   6.368  1.1991  0.9516  1.0182
 4037TIP3   OH233601   2.684   4.268   0.330 -0.0221 -0.9758 -0.0032
 4037TIP3    H133602   2.659   4.357   0.308  2.9125 -0.0389  0.1153
 4037TIP3    H233603   2.626   4.213   0.278 -1.4215  0.9776 -0.6131
 4038TIP3   OH233604   6.717   4.288  12.643 -0.4300 -0.2805 -0.8390
 4038TIP3    H133605   6.699   4.371  12.687 -0.8107 -0.6717 -0.2541
 4038TIP3    H233606   6.773   4.312  12.569 -0.5382  0.4956 -0.6731
 4039TIP3   OH233607   0.489   3.070   5.940 -0.3083 -0.1165 -0.0517
 4039TIP3    H133608   0.560   3.090   6.000  0.1295  0.3512 -0.7089
 4039TIP3    H233609   0.473   2.976   5.952  1.4443 -0.5742 -0.9442
 4040TIP3   OH233610   5.786   1.939  13.789  0.3247 -0.2002 -0.2727
 4040TIP3    H133611   5.706   1.938  13.736 -0.1006  0.0967  0.3625
 4040TIP3    H233612   5.759   1.909  13.875  0.4951  1.7356  0.4963
 4041TIP3   OH233613   3.781   5.917  13.527  0.5277  0.8171 -0.4245
 4041TIP3    H133614   3.851   5.859  13.558  0.3638  0.3715 -0.8762
 4041TIP3    H233615   3.825   5.999  13.507  0.9107  0.5769 -0.5847
 4042TIP3   OH233616   5.624   1.376  12.058  0.3634 -0.5565  0.0626
 4042TIP3    H133617   5.703   1.347  12.102  0.4033 -1.4150 -0.5475
 4042TIP3    H233618   5.654   1.412  11.974  0.1654 -0.1996  0.1381
 4043TIP3   OH233619   2.313   5.665  14.843  0.1403 -0.7806  0.5826
 4043TIP3    H133620   2.286   5.756  14.830  0.4986 -0.4471  2.0370
 4043TIP3    H233621   2.406   5.669  14.864  0.0726 -1.4366  1.0626
 4044TIP3   OH233622   3.621   6.396   1.245  0.0913  0.5144  0.6136
 4044TIP3    H133623   3.603   6.348   1.326 -0.1377 -0.4086  0.0376
 4044TIP3    H233624   3.716   6.402   1.242  0.1411 -0.1751  0.5570
 4045TIP3   OH233625   5.679   5.806   5.743 -0.6020 -0.4921 -0.0460
 4045TIP3    H133626   5.681   5.884   5.797 -1.4260 -1.2939  1.2074
 4045TIP3    H233627   5.725   5.830   5.662 -0.2939  1.0614  0.5736
 4046TIP3   OH233628   4.843   4.484  14.900  0.4108 -0.1400  0.4907
 4046TIP3    H133629   4.755   4.484  14.863 -0.6834  1.0195  2.9216
 4046TIP3    H233630   4.846   4.406  14.955  1.1473 -0.5095 -0.0563
 4047TIP3   OH233631   1.832   0.882  11.524  0.2099  0.1352  0.0291
 4047TIP3    H133632   1.874   0.812  11.475  0.5798 -1.3268  2.2676
 4047TIP3    H233633   1.739   0.862  11.521  0.2355  0.0276 -0.0359
 4048TIP3   OH233634   3.635   5.666   5.762  0.1592 -0.5198 -0.3390
 4048TIP3    H133635   3.578   5.714   5.702 -0.2375 -0.6721 -0.0925
 4048TIP3    H233636   3.651   5.582   5.719  1.2982  0.0280 -1.0199
 4049TIP3   OH233637   6.432   4.963  13.107 -0.3234 -0.5354  0.3497
 4049TIP3    H133638   6.488   4.973  13.184 -0.4081 -0.9470  0.4673
 4049TIP3    H233639   6.372   4.893  13.130  0.0707 -1.1082 -0.3393
 4050TIP3   OH233640   3.717   1.778  15.480  0.1093 -0.5378 -0.5084
 4050TIP3    H133641   3.807   1.787  15.511 -0.7461  1.4719  1.6773
 4050TIP3    H233642   3.668   1.748  15.556 -1.4082  0.5854 -0.9821
 4051TIP3   OH233643   4.673   1.430  16.309  0.6930 -0.0182  0.3438
 4051TIP3    H133644   4.688   1.447  16.402 -0.8489  0.8222  0.4614
 4051TIP3    H233645   4.579   1.444  16.296  0.6308 -1.4029 -1.0789
 4052TIP3   OH233646   3.370   1.648  15.414  0.5139 -0.0591 -0.1330
 4052TIP3    H133647   3.351   1.616  15.503  0.9891 -0.1196 -0.0512
 4052TIP3    H233648   3.320   1.590  15.357  0.8803 -0.5668  0.0500
 4053TIP3   OH233649   1.211   1.005  17.214 -0.3766  0.0426  0.2979
 4053TIP3    H133650   1.167   1.008  17.129 -0.6659 -1.6214  0.3526
 4053TIP3    H233651   1.147   1.038  17.277 -1.3073 -1.6270  0.2680
 4054TIP3   OH233652   5.945   1.788   5.103  0.0231 -0.3915  0.0552
 4054TIP3    H133653   5.882   1.860   5.099  0.1909 -0.1977  0.7841
 4054TIP3    H233654   5.997   1.806   5.181  0.8021 -0.7033 -0.3839
 4055TIP3   OH233655   3.169   6.342  11.490 -0.1434  0.3676  0.0326
 4055TIP3    H133656   3.073   6.339  11.493 -0.2879  1.9159 -1.3733
 4055TIP3    H233657   3.193   6.402  11.561 -0.2594  0.5250 -0.0625
 4056TIP3   OH233658   0.893   4.746  14.558 -0.1276 -0.1601  0.1937
 4056TIP3    H133659   0.943   4.744  14.477 -2.0783  1.1568 -1.1127
 4056TIP3    H233660   0.806   4.713  14.534 -1.2076  1.6954  1.3473
 4057TIP3   OH233661   1.086   2.497  12.566 -0.1248  0.1058  0.5888
 4057TIP3    H133662   1.164   2.551  12.574 -0.7151  1.1984 -0.6562
 4057TIP3    H233663   1.111   2.413  12.605  1.6073  0.4745  0.3644
 4058TIP3   OH233664   4.487   4.468  14.124  0.0017  0.1538 -0.5158
 4058TIP3    H133665   4.505   4.545  14.070  4.1347 -0.0300  0.2938
 4058TIP3    H233666   4.572   4.427  14.137 -0.9470 -0.9042  4.5266
 4059TIP3   OH233667   2.323   4.033   0.545  0.0231  0.2953  0.2373
 4059TIP3    H133668   2.286   3.957   0.589  0.3522  0.7916  1.4233
 4059TIP3    H233669   2.294   4.108   0.598 -1.3323  1.1350 -1.5971
 4060TIP3   OH233670   5.526   0.258   6.003 -0.3807 -0.6284 -0.3630
 4060TIP3    H133671   5.477   0.182   5.974 -0.4341  0.1495 -2.4877
 4060TIP3    H233672   5.618   0.235   5.987 -0.4159 -0.1641 -1.3057
 4061TIP3   OH233673   3.842   0.452  11.296  0.0309 -0.0477  0.5026
 4061TIP3    H133674   3.804   0.432  11.382  0.5622  0.1508  0.7834
 4061TIP3    H233675   3.796   0.393  11.236 -2.4060  1.7331  0.4473
 4062TIP3   OH233676   0.105   1.457   2.536 -0.1760 -0.2003  0.4525
 4062TIP3    H133677   0.149   1.443   2.620 -1.4283 -1.9530  0.8909
 4062TIP3    H233678   0.106   1.372   2.494  0.6053  0.7019 -1.4569
 4063TIP3   OH233679   6.531   5.368  14.693  0.4775  0.7871 -0.1948
 4063TIP3    H133680   6.620   5.393  14.717  0.8054 -1.5362  1.3414
 4063TIP3    H233681   6.496   5.324  14.771 -1.7938  1.0170 -0.9879
 4064TIP3   OH233682   4.283   5.651  16.358 -0.1534 -0.7805  0.2650
 4064TIP3    H133683   4.248   5.694  16.280  0.0511 -0.9618  0.0707
 4064TIP3    H233684   4.310   5.564  16.327 -1.9783 -1.6483  0.9495
 4065TIP3   OH233685   4.554   1.658  11.551  0.0536 -0.2076  0.6096
 4065TIP3    H133686   4.632   1.686  11.599  0.4312 -1.6692  0.9213
 4065TIP3    H233687   4.480   1.695  11.600  0.4291 -1.7074  2.4015
 4066TIP3   OH233688   4.484   2.302   3.864  0.4041  0.2092  0.0379
 4066TIP3    H133689   4.557   2.249   3.895  1.3998 -0.1504 -2.6215
 4066TIP3    H233690   4.435   2.244   3.806  0.0459  1.4357 -0.9453
 4067TIP3   OH233691   0.410   6.271   4.927  0.2535 -0.2673  0.3736
 4067TIP3    H133692   0.369   6.357   4.912  0.0236 -0.3825  0.3317
 4067TIP3    H233693   0.353   6.228   4.990  1.2229  0.2111  1.6016
 4068TIP3   OH233694   2.238   3.706   2.633  0.3756  0.2097 -0.4194
 4068TIP3    H133695   2.261   3.726   2.724 -1.0123  0.4942 -0.1150
 4068TIP3    H233696   2.290   3.767   2.581 -1.3469  2.4197  0.3514
 4069TIP3   OH233697   2.445   2.641  11.308  0.0005 -0.3189  0.3733
 4069TIP3    H133698   2.440   2.712  11.373 -0.7962  0.1806 -0.2017
 4069TIP3    H233699   2.389   2.671  11.236 -1.0841 -1.9231  0.4896
 4070TIP3   OH233700   2.760   0.307  13.005 -0.5538  0.0812 -0.2368
 4070TIP3    H133701   2.764   0.357  13.087  1.7442  1.3910 -1.0630
 4070TIP3    H233702   2.824   0.237  13.015  0.1775  0.6064 -1.1217
 4071TIP3   OH233703   5.842   6.449   2.995 -0.8798 -0.2767 -0.8117
 4071TIP3    H133704   5.761   6.400   2.982 -1.0891 -0.7241  1.6540
 4071TIP3    H233705   5.816   6.541   2.988 -1.9497 -0.3596  1.1749
 4072TIP3   OH233706   2.126   1.622   1.777 -0.6395  0.0355 -0.1884
 4072TIP3    H133707   2.114   1.573   1.858 -3.7962  0.8403 -0.0545
 4072TIP3    H233708   2.178   1.698   1.803 -1.8911  0.4551  1.1797
 4073TIP3   OH233709   0.664   6.371  13.308 -0.9204  0.4226  0.4500
 4073TIP3    H133710   0.704   6.405  13.389 -0.2624 -1.4120  0.9452
 4073TIP3    H233711   0.694   6.280  13.303 -1.2450  0.3845 -1.6881
 4074TIP3   OH233712   1.197   2.989   6.365 -0.2756 -0.4330  0.6839
 4074TIP3    H133713   1.112   3.027   6.387 -1.3487 -1.3495 -1.5334
 4074TIP3    H233714   1.235   3.051   6.302  0.9863  0.2322  2.0364
 4075TIP3   OH233715   1.359   3.789  15.846 -0.5590 -0.2030 -0.6265
 4075TIP3    H133716   1.427   3.834  15.895  0.1540 -0.9779 -0.8852
 4075TIP3    H233717   1.300   3.859  15.816 -0.2016  0.4102  0.0916
 4076TIP3   OH233718   0.414   4.027   4.036 -0.0603  0.7493  0.6558
 4076TIP3    H133719   0.406   3.931   4.032 -1.0445  0.7212  2.5586
 4076TIP3    H233720   0.331   4.057   4.073  0.8538  2.2232  1.5915
 4077TIP3   OH233721   3.230   5.993   6.297  0.0111 -0.3786  0.3718
 4077TIP3    H133722   3.256   5.901   6.291  0.3716 -0.2794  0.3558
 4077TIP3    H233723   3.284   6.037   6.231 -0.3874 -0.2037  0.1600
 4078TIP3   OH233724   1.049   5.186  11.680  0.8456  0.2013 -0.2651
 4078TIP3    H133725   1.020   5.151  11.596 -1.4850 -0.1714  0.6256
 4078TIP3    H233726   1.121   5.129  11.706  0.5760 -0.6413 -1.2855
 4079TIP3   OH233727   5.647   6.714   6.269 -0.2296 -0.5994  0.3014
 4079TIP3    H133728   5.672   6.779   6.203  1.3100 -1.4532 -0.0036
 4079TIP3    H233729   5.560   6.742   6.299  0.8073  2.1999  0.9711
 4080TIP3   OH233730   5.664   4.328  14.578 -0.4143  0.3422 -0.3328
 4080TIP3    H133731   5.724   4.362  14.645 -0.3654 -0.0119 -0.1931
 4080TIP3    H233732   5.689   4.374  14.498  1.1189 -0.9622 -0.6348
 4081TIP3   OH233733   6.253   3.645   2.610 -0.2296 -0.2063 -0.0428
 4081TIP3    H133734   6.296   3.560   2.599 -0.7294 -0.7362  1.7597
 4081TIP3    H233735   6.316   3.709   2.577  0.7584 -1.1738 -0.0695
 4082TIP3   OH233736   4.915   4.793  11.255 -0.2928  0.0490 -0.2955
 4082TIP3    H133737   4.961   4.734  11.313 -1.0035  0.8564  1.1450
 4082TIP3    H233738   4.917   4.750  11.169  0.0943 -1.5375  0.4855
 4083TIP3   OH233739   2.039   5.544  17.181 -0.0816  0.2268 -0.4058
 4083TIP3    H133740   2.054   5.532  17.274 -0.3644  0.8916 -0.2623
 4083TIP3    H233741   2.125   5.564  17.144  0.5775 -2.8667 -0.8088
 4084TIP3   OH233742   2.784   6.068  13.280 -0.0501  0.0295 -0.1277
 4084TIP3    H133743   2.724   6.001  13.315 -0.1911  0.0324 -0.3602
 4084TIP3    H233744   2.726   6.136  13.246  0.0929  0.2754  0.1133
 4085TIP3   OH233745   0.818   5.678   1.070 -0.5192 -0.1647 -0.1547
 4085TIP3    H133746   0.793   5.587   1.059  1.5649 -0.6433 -1.5774
 4085TIP3    H233747   0.858   5.703   0.987  0.4441  1.5414  0.7470
 4086TIP3   OH233748   2.494   2.779  16.416 -0.2463  0.4201  0.6042
 4086TIP3    H133749   2.402   2.750  16.416 -0.6669  0.9819 -4.0011
 4086TIP3    H233750   2.489   2.873  16.437 -0.7971  0.5428 -0.0368
 4087TIP3   OH233751   2.676   4.160   5.845  0.1147 -0.1652  0.2249
 4087TIP3    H133752   2.614   4.232   5.839  1.0120  0.9063  2.7413
 4087TIP3    H233753   2.622   4.081   5.841 -0.9785  0.6172 -1.4699
 4088TIP3   OH233754   4.552   4.598  13.593 -0.2112  0.5124  0.0348
 4088TIP3    H133755   4.608   4.520  13.590 -0.7417  0.0397  1.3908
 4088TIP3    H233756   4.610   4.667  13.625 -0.7154 -0.3895  3.2927
 4089TIP3   OH233757   5.373   6.178  14.894  0.0198  0.2289 -0.0144
 4089TIP3    H133758   5.426   6.221  14.827  0.3157  0.8729  0.6220
 4089TIP3    H233759   5.312   6.123  14.845  2.4272 -2.0003 -0.7937
 4090TIP3   OH233760   2.682   0.719   4.574 -0.4168 -0.4537 -0.1579
 4090TIP3    H133761   2.653   0.783   4.509 -0.4855 -0.6824 -0.3559
 4090TIP3    H233762   2.618   0.726   4.644  1.1080  1.6906  1.1460
 4091TIP3   OH233763   5.626   1.240  11.405 -0.6570 -0.3493  0.1824
 4091TIP3    H133764   5.661   1.158  11.441  1.5443  0.2445 -0.4958
 4091TIP3    H233765   5.667   1.248  11.319 -1.5547  1.0271 -0.1373
 4092TIP3   OH233766   2.252   5.930  14.834 -0.3387  0.2623  0.6476
 4092TIP3    H133767   2.186   5.997  14.849 -0.4927  0.2962 -0.1043
 4092TIP3    H233768   2.291   5.914  14.920  0.4174  2.0341  0.6693
 4093TIP3   OH233769   0.089   4.156   2.107  0.2560  0.1715  0.0239
 4093TIP3    H133770   0.122   4.139   2.195 -0.9207  1.6673  0.7982
 4093TIP3    H233771   0.124   4.084   2.054 -0.6788 -1.9304  2.0862
 4094TIP3   OH233772   1.392   1.938  14.969 -0.4851 -0.3739 -0.2284
 4094TIP3    H133773   1.388   1.846  14.944 -0.7955 -0.2599 -0.6103
 4094TIP3    H233774   1.472   1.971  14.929 -0.1462 -0.5803  0.2706
 4095TIP3   OH233775   1.232   0.485   4.438  0.2883 -0.0004 -0.0494
 4095TIP3    H133776   1.311   0.528   4.404  0.3323 -1.0183 -1.3368
 4095TIP3    H233777   1.231   0.507   4.531  2.1002  0.0275  0.0072
 4096TIP3   OH233778   3.206   4.568  13.757  0.0299  0.2077  0.4149
 4096TIP3    H133779   3.262   4.620  13.814  0.1712  0.1380  0.3398
 4096TIP3    H233780   3.257   4.556  13.677 -0.2080  0.3967  0.2314
 4097TIP3   OH233781   5.158   0.453  12.328 -0.1923  0.1281 -0.2934
 4097TIP3    H133782   5.171   0.539  12.288 -0.5494  0.2021 -0.2556
 4097TIP3    H233783   5.244   0.412  12.325  0.1600  0.7873  0.3823
 4098TIP3   OH233784   6.393   1.026  12.359  0.2470 -0.3643 -0.0156
 4098TIP3    H133785   6.349   0.982  12.286 -0.4878  0.9922 -0.4123
 4098TIP3    H233786   6.479   0.984  12.363  0.1107 -0.8328 -1.3108
 4099TIP3   OH233787   4.083   1.684   5.901 -0.4595  0.3820  0.2110
 4099TIP3    H133788   4.170   1.662   5.934  0.5589  1.5227 -1.5561
 4099TIP3    H233789   4.098   1.755   5.839 -2.6535  0.5456 -0.2128
 4100TIP3   OH233790   4.753   4.226  12.525 -0.0985 -0.3472  0.2367
 4100TIP3    H133791   4.670   4.189  12.555 -0.1525  0.3392  0.9614
 4100TIP3    H233792   4.799   4.153  12.483 -0.4220 -1.0992  1.1853
 4101TIP3   OH233793   1.321   5.070  10.472  0.4959  0.4466  0.0930
 4101TIP3    H133794   1.270   5.050  10.549  1.9615 -2.5361  0.4192
 4101TIP3    H233795   1.332   5.166  10.474 -1.3270  0.6699  2.3088
 4102TIP3   OH233796   3.315   4.249  14.373 -0.7811 -0.9703 -0.2625
 4102TIP3    H133797   3.373   4.179  14.402  1.0387  1.2166  1.8030
 4102TIP3    H233798   3.267   4.275  14.452 -2.0196 -0.4130 -1.1628
 4103TIP3   OH233799   1.955   1.095   3.217  0.3428 -0.7833 -0.1983
 4103TIP3    H133800   1.893   1.023   3.220  1.1873 -1.5262 -0.1935
 4103TIP3    H233801   1.980   1.102   3.125 -0.2671 -0.0188 -0.3183
 4104TIP3   OH233802   1.115   5.523  14.087 -0.1703 -0.1454  0.1632
 4104TIP3    H133803   1.195   5.506  14.039  0.3474 -0.3718  1.0792
 4104TIP3    H233804   1.049   5.469  14.044  0.4734 -1.0238  0.2569
 4105TIP3   OH233805   6.779   3.583  14.756  0.0064 -0.0922 -0.1855
 4105TIP3    H133806   6.753   3.674  14.742  1.1698  0.5366  1.4533
 4105TIP3    H233807   6.744   3.560  14.842  1.0731 -0.6498  0.1291
 4106TIP3   OH233808   3.778   5.592   0.778  0.9322 -0.0772  0.5673
 4106TIP3    H133809   3.690   5.622   0.753  0.6022 -1.1175  0.4464
 4106TIP3    H233810   3.808   5.657   0.842 -0.1357  0.0129  0.9947
 4107TIP3   OH233811   5.353   0.355   5.282  0.0046 -0.4490 -0.2033
 4107TIP3    H133812   5.282   0.326   5.340  1.2480 -2.0708  0.6139
 4107TIP3    H233813   5.321   0.336   5.194 -2.0241  2.2886 -0.1838
 4108TIP3   OH233814   5.534   2.541   5.985 -0.1374 -0.7503 -0.1193
 4108TIP3    H133815   5.629   2.545   5.972  0.0884 -2.2511  0.8263
 4108TIP3    H233816   5.500   2.510   5.902  0.2425 -0.6279 -0.3228
 4109TIP3   OH233817   4.257   4.376   5.473 -0.1737 -0.0868 -0.0491
 4109TIP3    H133818   4.270   4.360   5.566  0.8544 -0.6297 -0.2719
 4109TIP3    H233819   4.272   4.291   5.432  0.8475  0.4507 -0.8414
 4110TIP3   OH233820   6.352   3.529  15.914 -0.0861  0.1238 -0.2249
 4110TIP3    H133821   6.411   3.454  15.917 -0.0192  0.0784 -1.9308
 4110TIP3    H233822   6.392   3.594  15.971 -0.2783 -1.1968  1.5074
 4111TIP3   OH233823   1.698   5.556   3.091 -0.1105  0.8754  0.8810
 4111TIP3    H133824   1.789   5.588   3.094 -0.1298  1.0674 -0.1604
 4111TIP3    H233825   1.646   5.635   3.076 -0.1804  0.4434 -1.5168
 4112TIP3   OH233826   0.784   1.003  12.766  0.2702 -0.0943 -0.1223
 4112TIP3    H133827   0.688   0.995  12.762  0.2590  0.3939 -1.3737
 4112TIP3    H233828   0.816   0.925  12.719  0.4070  1.0480 -2.0070
 4113TIP3   OH233829   4.061   4.928  15.800 -0.0108 -0.2076 -0.3645
 4113TIP3    H133830   4.126   4.859  15.786  0.5040 -0.3063  2.0507
 4113TIP3    H233831   3.979   4.881  15.815  0.2852 -0.3169  1.0084
 4114TIP3   OH233832   2.668   4.333  13.495 -0.0372 -0.4183  0.4447
 4114TIP3    H133833   2.716   4.368  13.420 -1.8018 -0.6814 -0.8797
 4114TIP3    H233834   2.589   4.294  13.457 -1.2535 -0.1071  2.4872
 4115TIP3   OH233835   6.458   4.005   5.893  0.5159 -0.6290 -0.1709
 4115TIP3    H133836   6.502   4.064   5.954 -0.5166  0.7546 -0.6894
 4115TIP3    H233837   6.404   3.949   5.949  1.6546 -1.2452  0.3460
 4116TIP3   OH233838   0.697   6.793   3.147 -1.1565  0.3170  0.0701
 4116TIP3    H133839   0.609   6.831   3.147 -1.7983 -1.0767 -0.7303
 4116TIP3    H233840   0.687   6.711   3.196 -1.1040 -1.4423 -2.6228
 4117TIP3   OH233841   4.191   4.478   2.981 -0.3865 -0.5262  0.7522
 4117TIP3    H133842   4.123   4.539   3.009 -1.0566 -0.9856  0.1579
 4117TIP3    H233843   4.197   4.414   3.051 -0.1078 -0.1209  1.1005
 4118TIP3   OH233844   5.033   4.506   4.278 -0.1274  0.4204  0.2057
 4118TIP3    H133845   5.048   4.412   4.269 -2.2828  0.2184 -2.6585
 4118TIP3    H233846   4.961   4.512   4.341 -1.1265 -0.0345 -0.8523
 4119TIP3   OH233847   6.494   4.392   1.632 -0.0233  0.4231  0.0406
 4119TIP3    H133848   6.448   4.372   1.714 -0.3941 -0.9827 -0.4811
 4119TIP3    H233849   6.424   4.405   1.568  0.2543  1.9280  0.0113
 4120TIP3   OH233850   5.572   3.190   1.721 -0.2346  0.7960 -0.0022
 4120TIP3    H133851   5.483   3.189   1.756 -0.0906 -0.9238  0.3811
 4120TIP3    H233852   5.628   3.167   1.795  0.3680  0.2259 -0.6163
 4121TIP3   OH233853   0.989   0.249  15.029  0.1342  0.1019 -0.6990
 4121TIP3    H133854   0.916   0.193  15.055  0.3004  0.2357  0.0601
 4121TIP3    H233855   0.949   0.315  14.972 -0.0446 -0.8341 -1.6980
 4122TIP3   OH233856   3.512   4.616   2.474  0.2980  0.4797  0.1372
 4122TIP3    H133857   3.493   4.556   2.545 -0.3358  0.9826  0.4040
 4122TIP3    H233858   3.479   4.701   2.504 -1.3253  0.4294 -1.3183
 4123TIP3   OH233859   1.551   3.020   2.143  0.2708  0.1903  0.3257
 4123TIP3    H133860   1.541   2.979   2.058  1.4118 -0.2697  0.3917
 4123TIP3    H233861   1.539   3.114   2.126 -1.0396 -0.0288 -0.0530
 4124TIP3   OH233862   4.517   2.733   2.146 -0.6909 -0.1456 -0.9607
 4124TIP3    H133863   4.542   2.782   2.223  1.0132 -0.9323 -0.9707
 4124TIP3    H233864   4.432   2.769   2.121 -0.8129  0.7936  0.6831
 4125TIP3   OH233865   5.619   5.090  16.717 -0.0082  0.0374  0.7326
 4125TIP3    H133866   5.586   5.160  16.661 -0.2772 -0.1086  0.7038
 4125TIP3    H233867   5.555   5.084  16.788 -0.4435 -0.7455  0.2848
 4126TIP3   OH233868   0.370   0.335   5.310 -0.2826 -0.1147  0.4648
 4126TIP3    H133869   0.319   0.275   5.256 -0.6161  0.1980  0.4271
 4126TIP3    H233870   0.369   0.417   5.262 -0.3599  0.0933  0.8178
 4127TIP3   OH233871   2.287   5.296  10.910 -0.0640  0.1230 -0.0323
 4127TIP3    H133872   2.226   5.350  10.960  0.4448  0.8634 -0.1981
 4127TIP3    H233873   2.235   5.262  10.837  0.0935  2.1344 -1.1491
 4128TIP3   OH233874   2.828   6.077  16.004  0.1722 -0.3031  0.0946
 4128TIP3    H133875   2.887   6.144  16.037  0.1578 -0.0498 -0.3873
 4128TIP3    H233876   2.797   6.111  15.919 -0.6794 -0.4162  0.3434
 4129TIP3   OH233877   5.528   0.733   1.993 -0.1387  0.2086  0.1348
 4129TIP3    H133878   5.485   0.776   1.919 -0.6636 -0.6608 -0.0817
 4129TIP3    H233879   5.464   0.739   2.064 -0.3630 -0.4983  0.0034
 4130TIP3   OH233880   1.153   2.822   3.465  0.3048 -0.2956 -0.4581
 4130TIP3    H133881   1.231   2.849   3.514 -0.1751  1.1119 -0.4332
 4130TIP3    H233882   1.086   2.810   3.532 -0.2668  1.3221 -0.7011
 4131TIP3   OH233883   0.632   4.675  14.827  0.4385 -0.2901  0.0269
 4131TIP3    H133884   0.723   4.700  14.845  0.9481 -2.3277  0.5340
 4131TIP3    H233885   0.639   4.617  14.751 -0.3742 -0.8314  0.3578
 4132TIP3   OH233886   6.122   3.248  11.223  0.3566 -0.3585  0.1775
 4132TIP3    H133887   6.053   3.198  11.181  1.5145 -2.1151  0.2443
 4132TIP3    H233888   6.195   3.245  11.160  0.2595  1.8870 -0.1251
 4133TIP3   OH233889   5.473   2.931   6.044  0.2991 -0.5425  0.3168
 4133TIP3    H133890   5.421   3.010   6.025 -1.3910 -1.4484  0.9476
 4133TIP3    H233891   5.439   2.865   5.984  1.7278 -0.8182 -0.2316
 4134TIP3   OH233892   1.870   4.400  17.230  0.1130  0.1272  0.2354
 4134TIP3    H133893   1.936   4.331  17.231 -0.1887 -0.1661  0.1134
 4134TIP3    H233894   1.813   4.379  17.304 -1.5141 -1.2736 -1.3246
 4135TIP3   OH233895   2.609   4.231  12.679  0.1509 -0.4889 -0.1270
 4135TIP3    H133896   2.682   4.200  12.732  0.0299 -0.6816 -0.0727
 4135TIP3    H233897   2.536   4.175  12.703 -0.8013  1.4644  1.9043
 4136TIP3   OH233898   4.659   4.996   1.027  0.5468 -0.3255 -0.0051
 4136TIP3    H133899   4.589   5.062   1.026 -0.6471 -1.5346  0.4934
 4136TIP3    H233900   4.661   4.965   1.117  1.4664 -0.5958 -0.1143
 4137TIP3   OH233901   1.838   0.927   1.666  0.2241  0.3028  0.0843
 4137TIP3    H133902   1.787   0.999   1.704  1.1896  0.4076  1.2704
 4137TIP3    H233903   1.848   0.951   1.574 -0.3037  1.1975  0.2434
 4138TIP3   OH233904   5.010   5.498  12.968  0.6979  0.4884  0.5666
 4138TIP3    H133905   5.035   5.580  13.010 -2.3730  0.5912  2.5069
 4138TIP3    H233906   5.038   5.430  13.030 -1.1807  0.4691  1.4838
 4139TIP3   OH233907   5.880   3.666  14.143  0.9042  0.4563  0.4094
 4139TIP3    H133908   5.801   3.701  14.182  0.6473  1.8793 -1.2618
 4139TIP3    H233909   5.928   3.627  14.216 -0.4103  1.3127  1.7832
 4140TIP3   OH233910   6.582   6.088  14.489  0.0439  0.5704 -0.0898
 4140TIP3    H133911   6.575   6.169  14.540 -2.4632  0.3291  0.0528
 4140TIP3    H233912   6.581   6.018  14.554 -2.5642  0.2862 -0.3488
 4141TIP3   OH233913   3.241   1.003   0.416  0.5312 -0.0731 -0.0353
 4141TIP3    H133914   3.243   0.918   0.459 -0.7295 -0.3867 -0.5508
 4141TIP3    H233915   3.170   0.996   0.352 -0.5708  1.8138  0.8949
 4142TIP3   OH233916   4.405   5.473   5.182  0.2645  0.2066  0.6120
 4142TIP3    H133917   4.487   5.427   5.162 -1.0501 -1.4307 -1.3656
 4142TIP3    H233918   4.344   5.404   5.205 -0.8488  1.3208  1.0870
 4143TIP3   OH233919   4.969   1.703   3.044  0.0750 -0.2344  0.1108
 4143TIP3    H133920   4.957   1.616   3.008 -3.0904  0.2130 -0.1848
 4143TIP3    H233921   5.004   1.755   2.972 -0.7647 -0.6280 -0.5905
 4144TIP3   OH233922   4.549   5.059  14.185  0.6363 -0.5437  0.3568
 4144TIP3    H133923   4.476   5.119  14.201 -0.4444 -1.6953 -0.0756
 4144TIP3    H233924   4.549   5.045  14.090  2.9728  1.2953 -0.0031
 4145TIP3   OH233925   0.639   3.404   5.359  0.4300  0.1971 -0.6964
 4145TIP3    H133926   0.587   3.368   5.288 -0.0317  0.7632 -0.6565
 4145TIP3    H233927   0.629   3.342   5.431  0.8261 -0.3295 -1.0856
 4146TIP3   OH233928   6.115   0.277  11.176 -0.1634 -0.1529 -0.2741
 4146TIP3    H133929   6.085   0.308  11.091  0.2605  2.7810  0.5312
 4146TIP3    H233930   6.036   0.270  11.229 -0.3028 -0.8640 -0.5697
 4147TIP3   OH233931   5.689   4.554   0.880  0.2006 -0.1686  0.2532
 4147TIP3    H133932   5.641   4.484   0.925 -0.5661 -0.1149 -0.4607
 4147TIP3    H233933   5.630   4.629   0.882 -0.1237 -0.3480 -1.3860
 4148TIP3   OH233934   2.527   3.109   1.901  0.1587 -0.4691 -0.0670
 4148TIP3    H133935   2.620   3.101   1.920  0.5191  2.1875 -0.3314
 4148TIP3    H233936   2.493   3.164   1.972 -1.1440 -1.0903 -0.1889
 4149TIP3   OH233937   2.800   6.187   5.477 -0.2934  0.1427  0.8237
 4149TIP3    H133938   2.894   6.203   5.481  0.0951 -1.3766 -0.8248
 4149TIP3    H233939   2.785   6.113   5.537  0.3223 -2.2320 -1.7269
 4150TIP3   OH233940   5.650   5.794   0.710 -0.5320  0.0160  0.0373
 4150TIP3    H133941   5.617   5.757   0.628 -0.8116 -0.7165  0.4628
 4150TIP3    H233942   5.641   5.888   0.700  0.5702  0.0270 -1.2523
 4151TIP3   OH233943   1.850   4.841   5.231  0.5396 -0.3694  0.1551
 4151TIP3    H133944   1.865   4.853   5.137 -0.4072  0.9573  0.1405
 4151TIP3    H233945   1.912   4.773   5.257  2.6392  0.9938 -0.9346
 4152TIP3   OH233946   5.520   4.364   4.256 -0.0470  0.0739 -0.8762
 4152TIP3    H133947   5.539   4.453   4.228 -1.1281  0.9677  1.0794
 4152TIP3    H233948   5.480   4.373   4.342 -2.1317 -2.1643 -1.4946
 4153TIP3   OH233949   6.526   3.553  11.418  0.3650  0.6664  0.3237
 4153TIP3    H133950   6.449   3.605  11.439  1.3458  1.6235  1.7030
 4153TIP3    H233951   6.590   3.617  11.385  1.0690  0.1173  0.5983
 4154TIP3   OH233952   1.800   1.805  16.420  0.1404  0.1192  0.5531
 4154TIP3    H133953   1.820   1.712  16.420  0.5831  0.1074 -2.3088
 4154TIP3    H233954   1.878   1.848  16.454 -0.3962 -0.5249  2.7473
 4155TIP3   OH233955   5.938   6.391   2.705 -0.8109  0.2823 -0.2011
 4155TIP3    H133956   5.893   6.383   2.789 -0.5708  0.5606 -0.0460
 4155TIP3    H233957   6.030   6.372   2.725 -1.0081 -1.3416 -0.7076
 4156TIP3   OH233958   5.519   1.552   5.119 -0.1729  0.2845 -0.3301
 4156TIP3    H133959   5.557   1.639   5.127 -0.1931  0.5304 -2.5298
 4156TIP3    H233960   5.569   1.498   5.181  0.2540  1.6926  0.5896
 4157TIP3   OH233961   2.261   4.742   2.902 -0.1845  1.5068 -0.1015
 4157TIP3    H133962   2.309   4.819   2.871  2.5221 -0.2296 -0.6591
 4157TIP3    H233963   2.323   4.698   2.961 -1.6879 -0.1611  0.3125
 4158TIP3   OH233964   5.306   1.031  14.757 -0.0391  0.1761  0.1994
 4158TIP3    H133965   5.359   1.110  14.749 -1.8245  1.6427  1.7241
 4158TIP3    H233966   5.220   1.056  14.724 -0.5943 -1.1826  0.5337
 4159TIP3   OH233967   3.735   3.934  11.366 -0.3108 -0.0197 -0.3831
 4159TIP3    H133968   3.738   4.020  11.408  0.5700 -0.8305  1.3539
 4159TIP3    H233969   3.826   3.918  11.339 -0.2862 -0.7435  0.0997
 4160TIP3   OH233970   4.202   5.462   1.517  0.4606  0.4456  0.0402
 4160TIP3    H133971   4.219   5.406   1.441 -0.5419 -1.5628  1.2067
 4160TIP3    H233972   4.260   5.428   1.585  1.3773  2.2480  0.2141
 4161TIP3   OH233973   6.073   2.658  15.273 -0.2075  0.1325  0.2867
 4161TIP3    H133974   6.112   2.600  15.208 -1.0850  0.4726 -0.5651
 4161TIP3    H233975   6.146   2.710  15.306  0.2333  0.0375 -0.5173
 4162TIP3   OH233976   4.769   1.216  14.547  0.1081  0.2475 -0.6438
 4162TIP3    H133977   4.822   1.199  14.470 -1.6995  0.1497 -1.9425
 4162TIP3    H233978   4.821   1.276  14.600  2.1119 -1.0285 -1.0905
 4163TIP3   OH233979   1.448   6.350  16.399  0.0108 -0.3098 -0.1163
 4163TIP3    H133980   1.412   6.329  16.485  1.6525  0.3547  0.7690
 4163TIP3    H233981   1.407   6.434  16.376 -0.2954 -0.4032  0.0845
 4164TIP3   OH233982   5.307   5.233   2.351  0.2601  0.1503  0.1307
 4164TIP3    H133983   5.322   5.188   2.268 -0.7242 -0.8351  0.4548
 4164TIP3    H233984   5.214   5.258   2.348  0.2068  0.0716  0.9345
 4165TIP3   OH233985   4.371   4.181   3.619 -0.2890 -0.8598 -0.4176
 4165TIP3    H133986   4.440   4.241   3.592 -1.4825  0.9458  0.3392
 4165TIP3    H233987   4.415   4.097   3.633  1.8795  0.3875  0.6814
 4166TIP3   OH233988   0.855   4.731  16.462  0.2054 -0.1783 -0.3779
 4166TIP3    H133989   0.935   4.680  16.473 -0.5629 -1.3750 -0.1331
 4166TIP3    H233990   0.786   4.665  16.451 -0.9278  0.7769  0.6950
 4167TIP3   OH233991   0.354   6.288   3.510 -0.0231  0.0980 -0.2066
 4167TIP3    H133992   0.267   6.286   3.471 -0.9655  0.9689  1.6685
 4167TIP3    H233993   0.346   6.353   3.580  1.6468 -1.0530  1.1208
 4168TIP3   OH233994   5.838   2.930  12.589 -1.1518  0.8979  0.3688
 4168TIP3    H133995   5.810   2.863  12.526  0.7113  0.1596  0.2631
 4168TIP3    H233996   5.781   3.005  12.571 -2.1284 -0.0569 -0.6872
 4169TIP3   OH233997   2.269   0.457   3.347 -0.7048 -0.1752  1.0068
 4169TIP3    H133998   2.361   0.455   3.373  0.2232  0.2430 -1.8861
 4169TIP3    H233999   2.239   0.544   3.374  0.2865  0.3618  0.4709
 4170TIP3   OH234000   2.869   1.826   0.136 -0.1853 -0.1052 -0.2891
 4170TIP3    H134001   2.932   1.895   0.119  1.3480 -1.3286  0.1826
 4170TIP3    H234002   2.821   1.855   0.213  0.1646  0.6124 -0.3405
 4171TIP3   OH234003   0.890   3.327  16.257 -0.2598 -0.1598  0.2047
 4171TIP3    H134004   0.962   3.268  16.280  0.5711  0.1915 -1.3535
 4171TIP3    H234005   0.933   3.410  16.236 -1.2207  0.3578  0.2516
 4172TIP3   OH234006   6.232   2.254  11.551 -0.0314  0.3527 -0.2362
 4172TIP3    H134007   6.143   2.288  11.563 -0.5682  0.7906 -4.0118
 4172TIP3    H234008   6.219   2.162  11.528  0.8355 -0.4557  2.1869
 4173TIP3   OH234009   0.033   6.689   3.619 -0.1835 -0.5633 -0.4656
 4173TIP3    H134010   0.072   6.770   3.585  1.0353 -0.3244  1.3582
 4173TIP3    H234011  -0.060   6.696   3.597  0.1658  0.5914 -1.7039
 4174TIP3   OH234012   2.118   6.536  14.844  0.1886  0.0964 -0.7630
 4174TIP3    H134013   2.057   6.463  14.833  1.2337 -0.9364 -0.0610
 4174TIP3    H234014   2.089   6.602  14.781 -1.2228 -0.6249 -0.9160
 4175TIP3   OH234015   1.254   3.647  10.995 -0.4878  0.4188 -0.2313
 4175TIP3    H134016   1.187   3.715  10.983  0.1709  0.8156 -2.0739
 4175TIP3    H234017   1.208   3.565  10.980 -0.9582  0.5496  0.4498
 4176TIP3   OH234018   3.256   4.754  17.358  0.2118 -0.1184 -0.3987
 4176TIP3    H134019   3.246   4.661  17.338  0.7782 -0.3309  0.2365
 4176TIP3    H234020   3.189   4.772  17.424  1.3387 -0.5593  0.8996
 4177TIP3   OH234021   5.068   0.080  15.284 -0.2899 -0.8159  0.3762
 4177TIP3    H134022   5.106   0.007  15.234 -1.1388  0.2586 -1.9620
 4177TIP3    H234023   5.138   0.106  15.344  0.7647 -2.2133 -0.1761
 4178TIP3   OH234024   3.295   2.265  16.577 -0.4364  0.1825 -0.0091
 4178TIP3    H134025   3.238   2.284  16.651  0.3893 -0.5238  0.8359
 4178TIP3    H234026   3.290   2.343  16.522 -1.4422  0.5214  0.5387
 4179TIP3   OH234027   3.386   1.969  11.429 -0.5476 -0.0259 -0.4006
 4179TIP3    H134028   3.379   2.020  11.348  0.8836 -0.8066 -1.0548
 4179TIP3    H234029   3.415   2.032  11.495 -0.0299  0.2698 -0.9038
 4180TIP3   OH234030   0.369   1.856   0.999  0.0278 -0.3375  0.3455
 4180TIP3    H134031   0.367   1.782   0.938  1.7875  0.9603 -1.4241
 4180TIP3    H234032   0.296   1.911   0.973 -1.6561 -1.6103  2.0441
 4181TIP3   OH234033   1.970   4.017  12.569 -0.0262 -0.2668 -0.2689
 4181TIP3    H134034   2.032   3.960  12.616  0.7897  0.7791 -0.0405
 4181TIP3    H234035   2.023   4.091  12.540 -1.3593  1.1887  0.8260
 4182TIP3   OH234036   6.303   2.552   2.505 -0.1405  0.5110 -0.4248
 4182TIP3    H134037   6.256   2.582   2.427  0.5600 -1.3527 -1.6287
 4182TIP3    H234038   6.352   2.475   2.476 -0.2183 -0.5460  1.9717
 4183TIP3   OH234039   3.762   4.398  15.463 -0.4235 -0.3587  0.4200
 4183TIP3    H134040   3.799   4.384  15.550 -0.1939  0.6606  0.5071
 4183TIP3    H234041   3.782   4.318  15.415  2.8489  0.4735  0.1391
 4184TIP3   OH234042   5.675   2.949   4.819  0.0267 -0.5813 -0.7659
 4184TIP3    H134043   5.597   2.920   4.866 -1.0262 -0.2036 -2.1891
 4184TIP3    H234044   5.702   2.873   4.767  2.0467 -1.4739  1.4078
 4185TIP3   OH234045   5.627   1.619  16.775  0.2034 -0.0358  0.4029
 4185TIP3    H134046   5.690   1.662  16.833  0.0395  0.1913  0.4126
 4185TIP3    H234047   5.675   1.544  16.740  0.1563 -0.4483  1.1918
 4186TIP3   OH234048   4.163   6.160  16.789  0.2386 -0.9808 -0.0789
 4186TIP3    H134049   4.123   6.223  16.728 -0.4893 -1.1236  0.2455
 4186TIP3    H234050   4.257   6.170  16.774  0.1686  0.5867  0.3440
 4187TIP3   OH234051   3.290   0.177   1.654  0.1962  0.2952 -0.3273
 4187TIP3    H134052   3.217   0.232   1.680 -0.2303 -1.1331  1.7342
 4187TIP3    H234053   3.254   0.118   1.588  0.3169  1.5561 -1.5548
 4188TIP3   OH234054   1.907   0.828   1.902 -0.1564  0.5356  0.1743
 4188TIP3    H134055   1.882   0.858   1.815 -0.7227  0.0149  0.1512
 4188TIP3    H234056   1.959   0.900   1.938 -0.2099  0.8972 -0.4555
 4189TIP3   OH234057   1.908   4.571   4.445 -0.4127 -0.7875  0.0272
 4189TIP3    H134058   1.917   4.665   4.428 -2.2472 -0.4254  0.8106
 4189TIP3    H234059   1.928   4.562   4.538  2.0240 -1.5794 -0.5006
 4190TIP3   OH234060   3.228   2.775   0.042 -0.0765  0.6573  0.5541
 4190TIP3    H134061   3.210   2.792  -0.050  1.3527 -1.2708 -0.1525
 4190TIP3    H234062   3.296   2.839   0.065 -0.0959  0.8359  0.1228
 4191TIP3   OH234063   6.475   1.134   2.746 -0.7027  0.3048 -0.0413
 4191TIP3    H134064   6.525   1.052   2.756  0.7401  0.9349 -1.6604
 4191TIP3    H234065   6.428   1.123   2.664  0.2252  1.4333 -0.7478
 4192TIP3   OH234066   2.060   1.028   2.061 -0.0576  0.1685  0.1047
 4192TIP3    H134067   2.058   1.066   2.149 -0.6908  0.9638 -0.2504
 4192TIP3    H234068   2.144   0.982   2.058  0.1977  0.5523  0.9524
 4193TIP3   OH234069   1.522   6.128   0.768  0.3284  0.0669 -0.2303
 4193TIP3    H134070   1.496   6.151   0.858  1.2918 -0.5486  0.2258
 4193TIP3    H234071   1.595   6.068   0.780  0.2793 -0.2450 -1.4406
 4194TIP3   OH234072   4.512   4.808  12.523 -0.0313 -0.3932 -0.3774
 4194TIP3    H134073   4.451   4.737  12.502 -0.0020 -0.5474  0.0493
 4194TIP3    H234074   4.502   4.821  12.617 -0.3597  0.4670 -0.5179
 4195TIP3   OH234075   3.583   5.701  12.564 -0.2501 -0.8028  0.6577
 4195TIP3    H134076   3.502   5.681  12.516  0.1546  1.1307 -0.9349
 4195TIP3    H234077   3.558   5.767  12.628  0.2379  0.8111 -0.7324
 4196TIP3   OH234078   2.004   4.945  12.886 -0.7183  0.4422 -0.0901
 4196TIP3    H134079   1.992   4.851  12.881  0.6114  0.2172  0.5821
 4196TIP3    H234080   1.963   4.979  12.806  1.7395 -1.0187 -2.1065
 4197TIP3   OH234081   3.965   6.171  12.112  0.1590  0.5861  0.3390
 4197TIP3    H134082   4.021   6.106  12.070 -0.6077  0.1627 -0.0449
 4197TIP3    H234083   4.011   6.254  12.100  0.3146  0.3593 -0.6842
 4198TIP3   OH234084   0.174   0.295  12.168  0.1127  0.0634  0.1499
 4198TIP3    H134085   0.268   0.286  12.151 -0.0649  0.5586 -1.2949
 4198TIP3    H234086   0.147   0.209  12.201  1.2624  0.2668  1.7057
 4199TIP3   OH234087   0.362   0.878   5.659 -0.5501 -0.1191 -0.2855
 4199TIP3    H134088   0.451   0.912   5.670 -0.6146 -0.3402  1.1310
 4199TIP3    H234089   0.325   0.929   5.587  0.4831  0.4594 -0.4211
 4200TIP3   OH234090   6.230   4.568   3.430  0.3693  0.1977 -0.1706
 4200TIP3    H134091   6.244   4.582   3.523 -0.5038  0.5123 -0.0812
 4200TIP3    H234092   6.188   4.481   3.425  1.2891 -0.2482 -0.3515
 4201TIP3   OH234093   3.805   0.513   0.900  0.0871  0.2593  0.2613
 4201TIP3    H134094   3.736   0.503   0.834 -0.3555 -0.9396  0.8750
 4201TIP3    H234095   3.886   0.491   0.853  0.2044  2.3930 -0.6602
 4202TIP3   OH234096   1.322   4.217  13.525  0.7490 -0.0177 -0.1897
 4202TIP3    H134097   1.401   4.248  13.570  0.7431  1.2775 -1.0437
 4202TIP3    H234098   1.260   4.201  13.596  1.4943 -0.2681  0.4324
 4203TIP3   OH234099   5.283   6.536  13.910 -0.1729  0.0797 -0.3360
 4203TIP3    H134100   5.254   6.471  13.846  0.3957 -0.7869  0.2532
 4203TIP3    H234101   5.357   6.494  13.954 -0.6748  0.5687  1.0305
 4204TIP3   OH234102   2.812   5.045  16.775  0.2348 -0.6083 -0.3451
 4204TIP3    H134103   2.872   5.109  16.815 -1.0314  0.4394 -0.0743
 4204TIP3    H234104   2.726   5.085  16.783 -0.3714 -1.5670 -1.8026
 4205TIP3   OH234105   5.384   3.746   1.033  0.2265 -0.4124  0.3836
 4205TIP3    H134106   5.460   3.788   1.074 -1.0853  0.8039  1.6871
 4205TIP3    H234107   5.358   3.807   0.964  1.5515 -1.7678 -1.4176
 4206TIP3   OH234108   2.092   2.805  13.204 -0.0479  0.5646  0.2136
 4206TIP3    H134109   2.153   2.877  13.189  0.6638  0.2743  1.5683
 4206TIP3    H234110   2.118   2.769  13.289  0.8382 -2.4732 -1.2066
 4207TIP3   OH234111   0.864   0.550   2.635 -0.2786  1.0163  0.6176
 4207TIP3    H134112   0.909   0.520   2.713 -0.3567  0.4486  0.4460
 4207TIP3    H234113   0.776   0.572   2.665 -0.3845  0.5621  0.6445
 4208TIP3   OH234114   2.265   0.307   6.167 -0.5099  0.3596  0.1630
 4208TIP3    H134115   2.295   0.397   6.179  0.4234  0.0269  0.4123
 4208TIP3    H234116   2.268   0.293   6.072  0.2102  0.3184  0.1820
 4209TIP3   OH234117   2.980   1.695   5.330 -0.3041 -0.1020 -0.0717
 4209TIP3    H134118   2.996   1.668   5.240 -0.2839 -0.2836 -0.0159
 4209TIP3    H234119   3.002   1.788   5.333 -1.3979  0.1859 -0.5269
 4210TIP3   OH234120   2.040   5.859   3.238  0.4727 -0.3608  0.0672
 4210TIP3    H134121   2.119   5.845   3.186  0.4844 -0.3330  0.0774
 4210TIP3    H234122   2.072   5.865   3.328  0.5266  0.2407  0.0144
 4211TIP3   OH234123   2.685   5.104   2.092 -0.0486 -0.6337  0.5614
 4211TIP3    H134124   2.735   5.061   2.161  0.2786  0.7386  1.2130
 4211TIP3    H234125   2.594   5.076   2.107  0.2326 -1.5483  0.5998
 4212TIP3   OH234126   4.776   2.254   0.856  1.1714 -0.4067 -0.5834
 4212TIP3    H134127   4.765   2.161   0.836  0.9136 -0.1903 -1.5071
 4212TIP3    H234128   4.853   2.257   0.913 -0.3449 -1.4303  1.6673
 4213TIP3   OH234129   4.169   3.612   4.604 -0.2145 -0.5869 -0.0834
 4213TIP3    H134130   4.157   3.567   4.688 -2.2653 -2.5821 -1.3367
 4213TIP3    H234131   4.182   3.542   4.541 -2.2874  0.6032 -1.9640
 4214TIP3   OH234132   1.704   4.825   5.896  0.3933 -0.1374 -0.2082
 4214TIP3    H134133   1.654   4.899   5.929  0.8995 -0.1311  0.5732
 4214TIP3    H234134   1.795   4.855   5.896  0.4405 -0.2262 -1.3868
 4215TIP3   OH234135   5.931   2.551   4.246 -0.2295 -0.0364 -0.1073
 4215TIP3    H134136   5.985   2.609   4.301 -0.1548  1.3834 -1.6022
 4215TIP3    H234137   5.911   2.477   4.303  1.2262  0.5713  1.2962
 4216TIP3   OH234138   0.107   0.984   1.893  0.0623 -0.1200  0.2582
 4216TIP3    H134139   0.181   1.011   1.838  0.0322  0.0728  0.3124
 4216TIP3    H234140   0.067   1.066   1.922  0.5596 -0.2105  1.2303
 4217TIP3   OH234141   3.272   3.639  13.409 -0.1574 -0.4767  0.5882
 4217TIP3    H134142   3.242   3.562  13.362 -1.6117  0.3368  0.1042
 4217TIP3    H234143   3.207   3.652  13.478 -0.6086  0.9495 -0.0580
 4218TIP3   OH234144   2.893   2.738   2.859 -0.3553 -0.4243  0.0553
 4218TIP3    H134145   2.958   2.807   2.841  0.1667 -1.4748 -2.4752
 4218TIP3    H234146   2.929   2.692   2.935  0.3111  0.8503  0.5491
 4219TIP3   OH234147   1.646   3.076   0.764 -0.4214 -0.3750 -0.2507
 4219TIP3    H134148   1.643   2.986   0.732  1.9254 -0.8066  0.5341
 4219TIP3    H234149   1.730   3.082   0.809 -0.8177  2.0373  0.2811
 4220TIP3   OH234150   1.146   3.355   1.487 -0.5974  0.3949  0.5569
 4220TIP3    H134151   1.238   3.327   1.479 -0.9397 -0.8037  0.5708
 4220TIP3    H234152   1.146   3.445   1.455  0.3424 -0.0681 -0.8637
 4221TIP3   OH234153   2.768   3.259  13.652 -0.2648  0.2293 -0.0420
 4221TIP3    H134154   2.752   3.237  13.560  0.1976  0.3987 -0.1629
 4221TIP3    H234155   2.862   3.274  13.658 -0.4346  1.3145  0.2222
 4222TIP3   OH234156   6.472   5.825  13.591 -0.2545 -0.3994  0.7205
 4222TIP3    H134157   6.507   5.831  13.502 -0.6173  1.3222  0.6438
 4222TIP3    H234158   6.548   5.811  13.646  0.1608  0.0055  0.2630
 4223TIP3   OH234159   4.248   6.222  15.080  0.5879  0.1541  0.4093
 4223TIP3    H134160   4.164   6.190  15.114 -0.2119  0.0367 -1.5432
 4223TIP3    H234161   4.227   6.307  15.041  1.0411 -0.4637 -1.2876
 4224TIP3   OH234162   1.235   1.689   4.170  0.7815  0.0737 -0.1305
 4224TIP3    H134163   1.147   1.679   4.133  0.8047 -2.5690  0.3012
 4224TIP3    H234164   1.294   1.668   4.098  1.0091  0.2883 -0.0085
 4225TIP3   OH234165   6.023   3.127   2.781  0.0363 -0.4916 -0.5465
 4225TIP3    H134166   5.993   3.208   2.823 -1.1692 -1.2715  0.1702
 4225TIP3    H234167   6.079   3.156   2.709  1.7085  0.9214  1.2035
 4226TIP3   OH234168   3.641   1.018   6.189 -0.3589  0.1800 -0.3232
 4226TIP3    H134169   3.596   1.077   6.250  0.4992 -1.3604  1.9452
 4226TIP3    H234170   3.724   1.062   6.170  0.6312 -0.5529  1.9945
 4227TIP3   OH234171   6.733   6.534   0.685 -0.0694 -0.7115 -0.4926
 4227TIP3    H134172   6.657   6.477   0.678 -0.8456  0.4156 -1.5022
 4227TIP3    H234173   6.696   6.620   0.705  0.7616  0.2588 -2.8511
 4228TIP3   OH234174   1.452   6.306   4.955 -0.4733 -0.4311 -0.4019
 4228TIP3    H134175   1.394   6.303   5.031  1.4700 -0.0054  1.1920
 4228TIP3    H234176   1.502   6.225   4.961  0.1267 -0.1008 -0.8595
 4229TIP3   OH234177   4.054   0.669   3.418  0.4811 -0.5206 -0.5747
 4229TIP3    H134178   3.959   0.674   3.404  0.3280 -0.2258  0.4706
 4229TIP3    H234179   4.091   0.732   3.356 -0.1579  0.7425  0.2830
 4230TIP3   OH234180   1.048   5.805   3.028  0.4166  0.5445  0.2473
 4230TIP3    H134181   1.042   5.809   3.124  0.5309  0.1232  0.2740
 4230TIP3    H234182   0.985   5.871   2.998 -0.6374 -0.2581  0.6024
 4231TIP3   OH234183   1.594   0.109   2.851  0.2063 -0.0127  0.2942
 4231TIP3    H134184   1.597   0.198   2.886 -0.8157  0.3803 -0.5651
 4231TIP3    H234185   1.673   0.102   2.797 -0.0313  0.6116 -0.1514
 4232TIP3   OH234186   5.500   0.180   3.125 -0.1252 -0.6399 -0.3128
 4232TIP3    H134187   5.592   0.205   3.116  0.1743 -1.8058 -0.6729
 4232TIP3    H234188   5.453   0.263   3.126  1.0300  0.0381  1.2666
 4233TIP3   OH234189   6.150   0.886  14.290  0.1265 -0.0132  0.6468
 4233TIP3    H134190   6.166   0.856  14.201  0.1365 -1.6670  1.1710
 4233TIP3    H234191   6.133   0.980  14.281 -0.9004 -0.3316 -1.2108
 4234TIP3   OH234192   1.470   0.399  16.329 -0.7285  0.2155 -0.2905
 4234TIP3    H134193   1.417   0.456  16.274 -1.4690  0.1303  0.3253
 4234TIP3    H234194   1.435   0.311  16.313 -0.6858  0.1421  0.0147
 4235TIP3   OH234195   4.651   4.204  12.182  0.2227 -0.7056 -0.9074
 4235TIP3    H134196   4.613   4.132  12.231  0.1991 -0.2885 -0.2943
 4235TIP3    H234197   4.631   4.282  12.234 -0.6659 -0.1183 -2.0739
 4236TIP3   OH234198   2.477   6.623   1.226  0.2946  0.3958  0.3205
 4236TIP3    H134199   2.418   6.602   1.153 -0.7479 -0.8268  1.4713
 4236TIP3    H234200   2.480   6.718   1.227 -0.4237  0.4507 -0.7244
 4237TIP3   OH234201   6.490   2.261   1.837  0.2680  0.7719  0.1029
 4237TIP3    H134202   6.486   2.180   1.888 -1.3132  1.0795  0.5220
 4237TIP3    H234203   6.434   2.322   1.885 -1.4356  1.0423 -2.0562
 4238TIP3   OH234204   1.942   0.836   3.693  0.6046 -0.3355  0.0385
 4238TIP3    H134205   1.940   0.839   3.597 -1.2179 -0.0481  0.0497
 4238TIP3    H234206   1.955   0.744   3.714 -1.7509 -0.8778 -0.5426
 4239TIP3   OH234207   5.328   1.719   0.624  0.1563  0.6632 -0.2365
 4239TIP3    H134208   5.351   1.698   0.534  0.1897  0.5871 -0.2105
 4239TIP3    H234209   5.247   1.770   0.617 -2.2597 -2.8134 -0.1280
 4240TIP3   OH234210   2.589   0.450   5.989 -0.2188 -0.0627 -0.4292
 4240TIP3    H134211   2.619   0.489   5.907 -0.4495 -2.7806 -1.9198
 4240TIP3    H234212   2.669   0.430   6.037  0.0811 -1.0761 -1.3190
 4241TIP3   OH234213   1.552   4.621  11.825  0.0796  0.0316  0.8113
 4241TIP3    H134214   1.644   4.647  11.822  0.0947  0.2443  2.3002
 4241TIP3    H234215   1.550   4.533  11.787  1.0857 -0.4102  1.7101
 4242TIP3   OH234216   5.596   6.108  11.652 -0.1895  0.4258  0.3739
 4242TIP3    H134217   5.546   6.119  11.571 -1.6385  0.7861  1.2889
 4242TIP3    H234218   5.616   6.014  11.655  2.3157  0.7633 -1.7393
 4243TIP3   OH234219   4.446   1.872  12.588  0.5899  0.3336 -0.6469
 4243TIP3    H134220   4.417   1.903  12.503 -0.2468 -0.8356 -0.8089
 4243TIP3    H234221   4.370   1.881  12.645  0.6107 -0.5176 -0.4681
 4244TIP3   OH234222   2.020   0.656  16.244 -0.1908 -0.6699 -0.0957
 4244TIP3    H134223   2.093   0.708  16.279 -1.7846  1.8233 -0.2344
 4244TIP3    H234224   2.041   0.648  16.150  1.2466 -2.4691  0.3093
 4245TIP3   OH234225   3.520   5.150   2.834 -0.5534  0.1912 -0.4742
 4245TIP3    H134226   3.497   5.148   2.927 -0.1308  1.1853 -0.3393
 4245TIP3    H234227   3.546   5.060   2.814 -0.7619 -0.0587  0.3417
 4246TIP3   OH234228   5.589   4.907   2.271 -0.2829 -0.1299 -0.4626
 4246TIP3    H134229   5.518   4.951   2.226 -0.5299  1.0741  1.0312
 4246TIP3    H234230   5.601   4.957   2.352  2.1629 -0.3768 -0.6023
 4247TIP3   OH234231   4.929   2.221   2.559 -0.3949 -0.3987  0.5496
 4247TIP3    H134232   4.857   2.282   2.574 -0.2422 -0.5665  2.1598
 4247TIP3    H234233   4.935   2.171   2.641  3.0624  1.2036  1.4149
 4248TIP3   OH234234   0.384   3.824   1.951  0.6227  0.1458  0.8617
 4248TIP3    H134235   0.398   3.870   2.033  0.1854  2.1379 -0.1010
 4248TIP3    H234236   0.383   3.731   1.974  2.3344  0.5570  2.8034
 4249TIP3   OH234237   1.668   5.368  12.433  0.0732 -0.1771 -0.1712
 4249TIP3    H134238   1.614   5.321  12.370  0.2988  0.5417 -0.9206
 4249TIP3    H234239   1.617   5.446  12.455 -0.0707 -0.5019  0.6597
 4250TIP3   OH234240   5.421   5.195  14.078 -0.4066  0.0646  0.0537
 4250TIP3    H134241   5.346   5.243  14.114 -0.1804  0.3856  0.1008
 4250TIP3    H234242   5.488   5.200  14.146 -0.6318 -0.9641  0.3753
 4251TIP3   OH234243   0.878   0.056   4.555 -0.6041  0.2589 -0.2090
 4251TIP3    H134244   0.903   0.143   4.585 -2.6446  1.0106 -0.5113
 4251TIP3    H234245   0.832   0.071   4.472 -1.4442 -1.0279 -0.0153
 4252TIP3   OH234246   5.809   5.215  17.108 -0.1609 -0.5154  0.3852
 4252TIP3    H134247   5.738   5.265  17.067 -1.5558 -2.0043  0.8690
 4252TIP3    H234248   5.844   5.161  17.037 -0.6928 -1.0421  0.5161
 4253TIP3   OH234249   1.304   0.219   4.513  0.3016  0.7574 -1.0249
 4253TIP3    H134250   1.256   0.302   4.511  0.1523  0.6633 -1.6067
 4253TIP3    H234251   1.364   0.228   4.587  1.8833  2.2827 -2.3871
 4254TIP3   OH234252   6.194   4.656  10.773  0.3103 -0.3336 -0.1828
 4254TIP3    H134253   6.105   4.625  10.791  0.2881 -1.1208 -1.4855
 4254TIP3    H234254   6.248   4.577  10.781  0.7951  0.0117 -0.0401
 4255TIP3   OH234255   0.645   0.068   5.129 -0.1710  0.6474 -0.0261
 4255TIP3    H134256   0.700   0.065   5.207 -0.5895  0.5093  0.2660
 4255TIP3    H234257   0.666  -0.011   5.081  2.3793  2.1774 -1.6451
 4256TIP3   OH234258   0.906   6.305  16.647 -0.3586 -0.2871  0.0337
 4256TIP3    H134259   0.854   6.228  16.669  0.6442 -1.0285 -0.1518
 4256TIP3    H234260   0.903   6.359  16.727 -0.9456 -0.5712  0.2125
 4257TIP3   OH234261   4.289   1.126   4.594 -0.0413  0.3068  0.0406
 4257TIP3    H134262   4.234   1.076   4.533 -0.6513  1.6201 -0.5280
 4257TIP3    H234263   4.238   1.205   4.611  0.4998  0.3268  1.6377
 4258TIP3   OH234264   2.865   0.808   3.409 -0.1052 -0.1514 -0.3216
 4258TIP3    H134265   2.791   0.769   3.362 -1.3438 -1.5535  2.5474
 4258TIP3    H234266   2.901   0.736   3.460  0.5264  1.4499  1.6026
 4259TIP3   OH234267   5.900   5.687   6.527 -0.2972 -0.4618  0.6882
 4259TIP3    H134268   5.888   5.740   6.606  1.4727  0.4133  0.4136
 4259TIP3    H234269   5.980   5.637   6.543 -0.0605 -0.4739 -0.4376
 4260TIP3   OH234270   2.412   6.506  16.506 -0.0246  0.0270 -0.0647
 4260TIP3    H134271   2.469   6.434  16.479 -1.2162 -1.0374  0.1428
 4260TIP3    H234272   2.391   6.553  16.426 -0.3786 -0.7328 -0.4247
 4261TIP3   OH234273   0.817   4.881  12.326 -0.9152 -0.6164 -0.1541
 4261TIP3    H134274   0.854   4.964  12.356 -0.0765 -0.6928 -0.9466
 4261TIP3    H234275   0.878   4.851  12.258 -1.6518 -1.4757 -0.4436
 4262TIP3   OH234276   0.525   1.587   1.565  0.4090 -0.5761 -0.5135
 4262TIP3    H134277   0.498   1.582   1.474  0.5259 -0.6189 -0.5447
 4262TIP3    H234278   0.453   1.546   1.614  0.8219 -1.5011 -0.6672
 4263TIP3   OH234279   5.025   4.320  17.068 -0.3164 -0.1724 -0.0905
 4263TIP3    H134280   5.030   4.253  17.135 -0.4444  2.3863  2.7116
 4263TIP3    H234281   4.946   4.299  17.018 -2.2334 -0.4082  2.8091
 4264TIP3   OH234282   5.700   2.801  12.414 -0.1123 -0.1203  0.1154
 4264TIP3    H134283   5.675   2.798  12.322 -0.0498  2.1661 -0.0384
 4264TIP3    H234284   5.622   2.773  12.462 -0.3736 -0.6351 -0.5992
 4265TIP3   OH234285   0.174   6.606   2.264  0.0485  0.6301 -0.1303
 4265TIP3    H134286   0.142   6.682   2.216 -0.6619 -0.6762 -1.8648
 4265TIP3    H234287   0.110   6.537   2.244 -1.2182  0.3401  4.0348
 4266TIP3   OH234288   1.750   5.170   2.790  0.0764  0.0423 -0.0016
 4266TIP3    H134289   1.729   5.084   2.825  0.4757 -0.2681 -0.5040
 4266TIP3    H234290   1.713   5.232   2.853 -0.9966 -0.4821 -0.0817
 4267TIP3   OH234291   5.992   4.906  15.446 -0.2213  0.0816  0.0013
 4267TIP3    H134292   5.904   4.877  15.423  0.4930 -0.9058 -1.6257
 4267TIP3    H234293   6.032   4.830  15.488  0.4577 -0.1353 -0.9962
 4268TIP3   OH234294   2.581   0.207   4.571  0.1216 -0.2593 -0.0920
 4268TIP3    H134295   2.600   0.299   4.587  1.4862 -0.8281  1.9620
 4268TIP3    H234296   2.636   0.159   4.634 -0.4782 -2.4852 -1.1408
 4269TIP3   OH234297   3.024   6.038   2.490 -0.0917  0.0786 -0.0412
 4269TIP3    H134298   3.040   5.945   2.507 -1.2171 -0.5144 -1.9524
 4269TIP3    H234299   3.087   6.061   2.422 -0.7209  0.3384 -0.5460
 4270TIP3   OH234300   5.994   0.971   2.343 -0.0515 -0.5138  0.3165
 4270TIP3    H134301   5.958   0.958   2.431  0.3944 -0.5057  0.5085
 4270TIP3    H234302   6.059   0.901   2.334 -0.1351 -0.5461 -0.0276
 4271TIP3   OH234303   1.936   4.923  16.377  0.1463 -0.4210 -0.0116
 4271TIP3    H134304   1.942   5.015  16.352  0.2946 -0.6808 -0.9858
 4271TIP3    H234305   1.906   4.879  16.298  0.1522 -1.2215  0.4206
 4272TIP3   OH234306   0.635   5.792   4.470  0.1767 -0.2839  0.0289
 4272TIP3    H134307   0.706   5.750   4.420 -0.5226 -1.2078 -0.2145
 4272TIP3    H234308   0.642   5.885   4.447  0.1705 -0.6150 -1.4543
 4273TIP3   OH234309   3.652   5.795   2.961 -0.1284 -0.2102  0.4176
 4273TIP3    H134310   3.644   5.790   2.866  0.0990 -1.1189  0.4453
 4273TIP3    H234311   3.733   5.750   2.981  0.0013  0.2778  1.0213
 4274TIP3   OH234312   4.755   2.499   6.040  0.2328 -0.5770 -0.4253
 4274TIP3    H134313   4.705   2.419   6.018  0.0349 -0.3806 -0.6989
 4274TIP3    H234314   4.794   2.480   6.125 -0.5288 -0.6403 -0.0774
 4275TIP3   OH234315   5.302   6.562  13.149 -0.5705 -0.8173 -0.5075
 4275TIP3    H134316   5.366   6.581  13.081 -0.7208 -1.7634 -0.9302
 4275TIP3    H234317   5.255   6.645  13.161 -0.0303 -0.4267 -0.9974
 4276TIP3   OH234318   3.131   0.263   4.871  0.2224 -0.3154 -0.0832
 4276TIP3    H134319   3.161   0.297   4.955  0.6845 -4.7453  1.8375
 4276TIP3    H234320   3.036   0.277   4.873  0.5463  2.5606 -0.4843
 4277TIP3   OH234321   1.366   0.915  10.736 -0.2018 -0.4548 -0.2166
 4277TIP3    H134322   1.312   0.838  10.720 -0.6360 -0.1133 -0.4234
 4277TIP3    H234323   1.310   0.974  10.787  0.4192 -0.6233  0.6769
 4278TIP3   OH234324   4.082   3.927   0.658 -0.0145 -0.0482  0.0175
 4278TIP3    H134325   4.113   3.950   0.570  2.1043 -2.1077  0.1348
 4278TIP3    H234326   4.054   4.011   0.696 -1.2159  0.8863 -2.6319
 4279TIP3   OH234327   1.346   2.735  14.125  0.4241 -0.0285  0.2629
 4279TIP3    H134328   1.318   2.644  14.138  0.0307  0.2576  1.6101
 4279TIP3    H234329   1.342   2.748  14.030  0.4218 -1.3910  0.0501
 4280TIP3   OH234330   2.428   3.436   3.205  0.1318 -0.3180  0.4834
 4280TIP3    H134331   2.344   3.402   3.237 -0.9129 -0.4248 -2.0850
 4280TIP3    H234332   2.403   3.495   3.133  2.2734 -0.4943 -0.4678
 4281TIP3   OH234333   1.335   4.968  13.409  0.2503 -0.0095  0.1310
 4281TIP3    H134334   1.396   5.011  13.350 -1.0871  1.5441 -0.2172
 4281TIP3    H234335   1.317   4.883  13.369 -0.2533  0.8240 -1.4852
 4282TIP3   OH234336   2.545   5.475  13.700 -0.4379  0.2884  0.6632
 4282TIP3    H134337   2.623   5.435  13.662 -1.0096  0.5780 -0.9145
 4282TIP3    H234338   2.482   5.479  13.627 -1.3058  1.6398  1.4359
 4283TIP3   OH234339   3.955   3.341   1.238  0.6100  0.5109  0.0670
 4283TIP3    H134340   4.039   3.294   1.241 -0.6158 -1.8285  2.5255
 4283TIP3    H234341   3.895   3.279   1.196 -0.2741  1.4431 -0.0763
 4284TIP3   OH234342   3.107   1.518  13.586 -0.1378  0.1127  0.6330
 4284TIP3    H134343   3.055   1.541  13.509  1.1140  0.2825 -0.1928
 4284TIP3    H234344   3.109   1.422  13.586  0.1864  0.1136  0.2035
 4285TIP3   OH234345   5.638   3.879  11.117 -0.0720  0.0149 -0.0937
 4285TIP3    H134346   5.651   3.862  11.211  0.1235  0.6932  0.0112
 4285TIP3    H234347   5.654   3.795  11.075  0.7291 -0.1010  0.4061
 4286TIP3   OH234348   3.240   4.317   2.437  0.5074  0.7059 -0.2210
 4286TIP3    H134349   3.166   4.301   2.379 -1.5184 -0.2068  2.4219
 4286TIP3    H234350   3.269   4.230   2.464  1.7739  1.0996 -0.2194
 4287TIP3   OH234351   1.221   1.861  13.477 -0.3964  0.1931 -0.3161
 4287TIP3    H134352   1.297   1.822  13.434 -2.1054 -1.8826 -1.6749
 4287TIP3    H234353   1.152   1.859  13.410 -2.0134  0.7809  1.2563
 4288TIP3   OH234354   0.173   6.133  17.091 -0.0364 -0.6237  0.5339
 4288TIP3    H134355   0.249   6.122  17.034 -1.0141 -0.0573 -0.9551
 4288TIP3    H234356   0.196   6.205  17.149  0.0624  0.5069 -0.8552
 4289TIP3   OH234357   3.813   4.157  17.068 -0.0330  0.7498  0.7965
 4289TIP3    H134358   3.809   4.085  17.005 -0.9474  0.9778  0.5852
 4289TIP3    H234359   3.793   4.235  17.016  0.2219  1.0651  1.1673
 4290TIP3   OH234360   3.581   2.963   1.712  0.0260  0.3669 -0.0170
 4290TIP3    H134361   3.532   2.994   1.636 -0.3797  0.6084  0.3321
 4290TIP3    H234362   3.520   2.904   1.757  0.6583 -0.6671 -0.4760
 4291TIP3   OH234363   4.713   5.333   0.258 -0.2989  0.8835 -0.2952
 4291TIP3    H134364   4.792   5.385   0.249  0.2336 -0.1364 -1.9807
 4291TIP3    H234365   4.728   5.280   0.337  0.1163  1.6357  0.1368
 4292TIP3   OH234366   4.386   4.668   5.062 -0.7498  0.2663  0.4624
 4292TIP3    H134367   4.315   4.700   5.118 -1.0482 -0.5282  0.5617
 4292TIP3    H234368   4.354   4.583   5.029 -0.0657  0.1458  0.0812
 4293TIP3   OH234369   1.382   2.969   6.704  0.8686  0.2298 -0.4753
 4293TIP3    H134370   1.375   3.047   6.650 -0.0101  0.4575 -0.0644
 4293TIP3    H234371   1.396   3.003   6.793 -0.4766 -0.0208 -0.1436
 4294TIP3   OH234372   5.052   4.143  13.777 -0.1580 -0.4079  0.3834
 4294TIP3    H134373   4.969   4.178  13.745 -0.7668 -1.3012  0.9435
 4294TIP3    H234374   5.105   4.221  13.795 -0.6359  0.1565 -0.5765
 4295TIP3   OH234375   4.678   2.129   4.088 -0.5281  0.2335  0.4840
 4295TIP3    H134376   4.639   2.042   4.095 -0.7234  0.3799  1.2296
 4295TIP3    H234377   4.771   2.116   4.110 -0.1620 -0.0788 -1.0920
 4296TIP3   OH234378   0.757   6.097   3.486  0.1984 -0.2394  0.1251
 4296TIP3    H134379   0.704   6.167   3.448 -1.6184 -1.6432 -0.0373
 4296TIP3    H234380   0.768   6.033   3.416  4.2303  0.9532 -0.6495
 4297TIP3   OH234381   1.434   0.241   4.772 -0.3309  0.1274 -0.2648
 4297TIP3    H134382   1.512   0.234   4.828 -0.2748  0.1436 -0.3406
 4297TIP3    H234383   1.362   0.210   4.827 -0.0195 -1.6070 -0.7506
 4298TIP3   OH234384   2.956   3.074  16.609  0.3923  0.2098 -0.3526
 4298TIP3    H134385   2.970   3.055  16.516 -1.7416  1.9265 -1.0980
 4298TIP3    H234386   2.875   3.028  16.632 -0.7231  2.1177 -0.2050
 4299TIP3   OH234387   1.053   2.717  11.765 -0.6441  0.2916 -0.3381
 4299TIP3    H134388   1.086   2.653  11.702 -1.6345  0.5367 -1.1397
 4299TIP3    H234389   1.131   2.762  11.797 -0.1886  1.1098 -2.4460
 4300TIP3   OH234390   0.641   0.877  13.765 -0.1540 -0.0041  0.4860
 4300TIP3    H134391   0.702   0.804  13.778  0.5175  0.3780 -0.3796
 4300TIP3    H234392   0.557   0.836  13.745  0.1861 -0.5365  0.1414
 4301TIP3   OH234393   6.543   3.052   2.123  0.1693 -0.6845 -0.1239
 4301TIP3    H134394   6.527   3.081   2.033 -2.1275 -1.7446 -0.1583
 4301TIP3    H234395   6.635   3.029   2.126  0.1809 -1.1299 -2.3971
 4302TIP3   OH234396   3.421   2.461   5.756  0.2035  0.1348  0.7246
 4302TIP3    H134397   3.351   2.485   5.817  0.3749 -0.5021  1.1924
 4302TIP3    H234398   3.441   2.541   5.708  0.2283  0.7157  1.6847
 4303TIP3   OH234399   5.941   2.017   5.981 -0.4934  0.2334 -0.2916
 4303TIP3    H134400   5.848   2.031   5.962 -0.0792  2.6930 -0.7985
 4303TIP3    H234401   5.965   2.088   6.040  0.8212 -1.0770  0.8319
 4304TIP3   OH234402   6.776   2.146  11.545  0.6718 -1.0079  0.3102
 4304TIP3    H134403   6.778   2.199  11.466 -1.1705  1.1695  1.6269
 4304TIP3    H234404   6.864   2.156  11.583  1.1883 -1.1248 -0.8066
 4305TIP3   OH234405   4.448   5.575   2.705  0.0357 -0.1465 -0.7043
 4305TIP3    H134406   4.364   5.535   2.684 -0.7467  0.4430  1.0767
 4305TIP3    H234407   4.454   5.651   2.647 -1.9459  1.3231  0.8889
 4306TIP3   OH234408   2.070   2.437  13.133 -0.2066  0.5869  0.0541
 4306TIP3    H134409   2.101   2.425  13.222  0.7485 -1.0445 -0.4451
 4306TIP3    H234410   1.976   2.421  13.137 -0.1138  0.2030  0.7231
 4307TIP3   OH234411   6.088   5.465  12.026  0.3696  0.0815  0.0170
 4307TIP3    H134412   6.096   5.373  12.004 -0.5023  0.1975 -0.8631
 4307TIP3    H234413   6.178   5.497  12.034  0.7470 -0.2402 -2.2969
 4308TIP3   OH234414   0.242   1.162  15.759  0.3811 -0.3125 -0.0967
 4308TIP3    H134415   0.172   1.187  15.819 -0.5643 -0.3780 -1.1465
 4308TIP3    H234416   0.219   1.203  15.676  1.7734 -0.0573 -0.3839
 4309TIP3   OH234417   4.071   3.264  11.241  0.3944  0.1050  0.7038
 4309TIP3    H134418   4.135   3.279  11.172 -0.1832  0.0793  0.1538
 4309TIP3    H234419   4.069   3.170  11.253 -0.1941  0.0281  0.0754
 4310TIP3   OH234420   1.668   0.751  12.864 -0.4132  1.1549 -0.1390
 4310TIP3    H134421   1.634   0.761  12.775 -0.3509  1.5938 -0.1183
 4310TIP3    H234422   1.633   0.826  12.912 -1.8541  0.0139  0.6643
 4311TIP3   OH234423   5.700   2.009   2.396  0.4206 -0.3509 -0.2182
 4311TIP3    H134424   5.736   1.949   2.331  0.4115 -0.6554  0.0537
 4311TIP3    H234425   5.766   2.078   2.404  0.4076 -0.2970 -0.5703
 4312TIP3   OH234426   2.117   4.195  11.375 -0.0664  0.3953 -0.4758
 4312TIP3    H134427   2.068   4.170  11.297 -1.0821  1.9552 -0.3937
 4312TIP3    H234428   2.156   4.280  11.352 -1.3491  1.4536  1.0709
 4313TIP3   OH234429   4.046   0.451   1.121  0.2493  0.1286 -0.1101
 4313TIP3    H134430   4.034   0.421   1.031  2.4051  1.1202 -0.7955
 4313TIP3    H234431   4.042   0.371   1.174 -1.1452 -0.4511 -1.0359
 4314TIP3   OH234432   4.282   3.654  12.871  0.2747  0.4862  0.6814
 4314TIP3    H134433   4.269   3.739  12.914 -4.3279  0.8589 -0.8659
 4314TIP3    H234434   4.309   3.677  12.782  1.9379  0.1083  1.0623
 4315TIP3   OH234435   6.738   5.117   1.327 -0.0005  0.1974 -0.4727
 4315TIP3    H134436   6.784   5.059   1.266  1.9321  1.4391 -0.2914
 4315TIP3    H234437   6.695   5.059   1.389  0.3896 -1.0381 -1.3382
 4316TIP3   OH234438   3.433   5.863  14.521  0.4106  0.1956  0.9709
 4316TIP3    H134439   3.492   5.826  14.456  0.9028  0.1485  1.4327
 4316TIP3    H234440   3.382   5.788  14.553 -1.5029  0.5532 -0.9952
 4317TIP3   OH234441   5.920   2.057  12.993 -0.1621  0.5445  0.0351
 4317TIP3    H134442   5.904   2.008  12.912  0.3357  0.7426 -0.1894
 4317TIP3    H234443   5.894   2.147  12.972 -0.4199  0.5154  0.2266
 4318TIP3   OH234444   0.604   4.135   2.977  0.1583 -0.2150 -0.4101
 4318TIP3    H134445   0.521   4.087   2.981 -1.5350  2.5514  1.0602
 4318TIP3    H234446   0.646   4.104   2.897 -2.8238 -0.9379 -1.8249
 4319TIP3   OH234447   1.874   5.313   1.344  0.0935  0.0059 -0.7187
 4319TIP3    H134448   1.827   5.316   1.427 -0.3400 -0.8925 -0.9236
 4319TIP3    H234449   1.822   5.367   1.285  0.2536  0.4168 -0.4917
 4320TIP3   OH234450   2.305   3.513  15.435 -1.0736  0.0037 -0.1801
 4320TIP3    H134451   2.261   3.473  15.359  0.5057 -0.5420 -0.8470
 4320TIP3    H234452   2.303   3.445  15.502 -0.4607 -0.3547 -0.5186
 4321TIP3   OH234453   0.593   6.682   1.612 -0.3965 -0.2538  0.4149
 4321TIP3    H134454   0.685   6.655   1.613 -0.4226 -0.3412  1.1669
 4321TIP3    H234455   0.585   6.738   1.534 -0.0271 -1.3050 -0.4061
 4322TIP3   OH234456   3.868   6.304  15.949 -0.0366 -0.1282  0.0623
 4322TIP3    H134457   3.783   6.273  15.980  0.3834 -1.0310  0.3398
 4322TIP3    H234458   3.852   6.332  15.859 -0.7360  0.1978  0.2815
 4323TIP3   OH234459   0.113   5.864   0.401 -0.4007 -0.0077 -0.2486
 4323TIP3    H134460   0.149   5.915   0.329  0.4123  0.3428  0.4002
 4323TIP3    H234461   0.125   5.919   0.478  0.3914 -1.1269  0.4501
 4324TIP3   OH234462   0.004   2.144  13.314  0.0239  0.1898  0.3004
 4324TIP3    H134463   0.057   2.070  13.284 -1.4138 -1.1969  1.0393
 4324TIP3    H234464  -0.033   2.181  13.234  0.4732 -0.0995 -0.0465
 4325TIP3   OH234465   2.169   4.401   5.387 -0.3142  0.0090 -0.5687
 4325TIP3    H134466   2.211   4.332   5.438  0.8789  1.2407  0.1865
 4325TIP3    H234467   2.102   4.438   5.445  0.5647  0.9403 -0.1153
 4326TIP3   OH234468   0.378   1.476  14.771  0.0868  0.2301 -0.3530
 4326TIP3    H134469   0.368   1.570  14.786 -0.0703  0.1692 -0.0717
 4326TIP3    H234470   0.428   1.470  14.689  0.7263  0.5625  0.0042
 4327TIP3   OH234471   0.869   2.331  15.353 -0.0202 -0.3355  0.3313
 4327TIP3    H134472   0.776   2.315  15.368 -0.7486  3.1035  0.3506
 4327TIP3    H234473   0.902   2.362  15.437  0.9375 -0.6718  0.0946
 4328TIP3   OH234474   6.177   5.241  16.409  0.5560 -0.0173  0.4854
 4328TIP3    H134475   6.197   5.149  16.425 -0.4225 -0.0120  1.8810
 4328TIP3    H234476   6.086   5.241  16.379  1.4752  0.2447 -2.7888
 4329TIP3   OH234477   3.296   0.238  13.775 -0.6593 -0.2273 -0.2695
 4329TIP3    H134478   3.216   0.256  13.824 -1.5077  1.2856 -2.0654
 4329TIP3    H234479   3.291   0.144  13.754 -1.8669 -0.2045 -0.1692
 4330TIP3   OH234480   0.063   4.850   2.119 -0.1123  0.4225  0.5891
 4330TIP3    H134481   0.029   4.761   2.111  1.0696  0.0027 -0.0311
 4330TIP3    H234482   0.031   4.896   2.042 -1.0247  0.6510  1.0931
 4331TIP3   OH234483   0.006   0.866  16.041 -0.6648  0.3308  0.0024
 4331TIP3    H134484   0.099   0.847  16.047 -0.3694  1.4105 -0.7814
 4331TIP3    H234485  -0.002   0.926  15.966 -1.6617  2.1440  1.4526
 4332TIP3   OH234486   5.948   3.298   1.727 -0.5822 -0.7146  0.3011
 4332TIP3    H134487   6.023   3.257   1.684 -0.4545  0.5138 -0.7140
 4332TIP3    H234488   5.894   3.330   1.655 -1.4232 -0.4274  1.0442
 4333TIP3   OH234489   2.283   1.641  15.866 -0.1493 -0.1015  0.0580
 4333TIP3    H134490   2.309   1.584  15.939 -0.4908 -0.0433  0.2262
 4333TIP3    H234491   2.206   1.599  15.829 -0.3898  0.2346  0.1690
 4334TIP3   OH234492   4.330   4.208  12.754 -0.0610  0.5661 -0.2193
 4334TIP3    H134493   4.340   4.243  12.842 -1.1052  2.7848 -0.8973
 4334TIP3    H234494   4.280   4.128  12.765 -0.1248  0.7833  1.2051
 4335TIP3   OH234495   0.100   2.580  11.082 -0.3553  0.5993 -0.0666
 4335TIP3    H134496   0.020   2.585  11.030  1.0234 -0.8552 -2.4843
 4335TIP3    H234497   0.147   2.662  11.062 -1.6568  2.0203  2.2741
 4336TIP3   OH234498   6.278   3.251  12.103 -0.2423  0.1609 -0.0404
 4336TIP3    H134499   6.318   3.164  12.098 -0.2100 -0.0316  2.2341
 4336TIP3    H234500   6.184   3.234  12.110 -0.1973  0.2452  0.9526
 4337TIP3   OH234501   2.505   3.607   1.664 -0.1614 -0.4270 -0.4156
 4337TIP3    H134502   2.596   3.626   1.638  0.0988 -0.9625  0.0930
 4337TIP3    H234503   2.510   3.524   1.711 -0.8318 -0.1642  0.1352
 4338TIP3   OH234504   4.533   4.949  13.579  0.3179 -0.2151 -0.0720
 4338TIP3    H134505   4.488   4.953  13.495  0.2394 -0.6982 -0.0547
 4338TIP3    H234506   4.462   4.937  13.643  0.3499  0.4478  0.0931
 4339TIP3   OH234507   3.713   6.561   3.984 -0.5799  0.1172 -0.9361
 4339TIP3    H134508   3.743   6.471   3.996 -0.1387  0.5662  2.0857
 4339TIP3    H234509   3.791   6.608   3.952 -0.6453 -0.4280 -1.9262
 4340TIP3   OH234510   2.660   2.126   0.421 -0.6307  0.4351 -0.1228
 4340TIP3    H134511   2.747   2.157   0.443 -1.2436  1.5115  0.8911
 4340TIP3    H234512   2.656   2.130   0.325  0.6474 -0.2979 -0.2267
 4341TIP3   OH234513   2.526   4.155  14.078 -0.5558 -0.5155  0.2966
 4341TIP3    H134514   2.459   4.222  14.090  0.1423 -0.0004  1.6162
 4341TIP3    H234515   2.558   4.169  13.989  0.0487  1.4257  0.7492
 4342TIP3   OH234516   4.714   1.022   5.546  0.7973 -0.1362  0.4789
 4342TIP3    H134517   4.729   1.113   5.572  0.2634 -0.1410  0.8233
 4342TIP3    H234518   4.681   1.027   5.456  1.0810 -0.0094  0.3840
 4343TIP3   OH234519   5.323   4.978  12.142  0.3597 -0.4862 -0.1125
 4343TIP3    H134520   5.251   4.943  12.090 -0.1687  0.8254 -0.3079
 4343TIP3    H234521   5.280   5.032  12.209  1.1401  0.5033 -0.3744
 4344TIP3   OH234522   2.264   6.698   3.244 -0.3824 -0.4627 -0.4326
 4344TIP3    H134523   2.321   6.746   3.184 -1.0660 -1.6899 -2.1328
 4344TIP3    H234524   2.307   6.613   3.255 -0.1145 -0.1655  1.1050
 4345TIP3   OH234525   5.880   6.191  13.574 -0.4737  0.2899  0.5830
 4345TIP3    H134526   5.885   6.210  13.481 -0.2920 -1.9776  0.0699
 4345TIP3    H234527   5.787   6.195  13.595 -0.5399  0.5682  0.2347
 4346TIP3   OH234528   4.501   0.712   5.222  0.1373 -0.6133  0.1628
 4346TIP3    H134529   4.522   0.744   5.134 -1.5602  0.7605  0.2052
 4346TIP3    H234530   4.406   0.700   5.220 -0.0890  0.5429  2.1409
 4347TIP3   OH234531   4.631   3.085  12.421  0.0548 -0.5733  0.4145
 4347TIP3    H134532   4.642   3.117  12.331 -0.2820 -0.9564  0.2330
 4347TIP3    H234533   4.537   3.086  12.436 -0.1942 -3.2589 -0.3044
 4348TIP3   OH234534   3.591   3.529  12.100  0.4104 -0.2930 -0.7224
 4348TIP3    H134535   3.516   3.531  12.040  0.7667  0.1306 -1.1632
 4348TIP3    H234536   3.578   3.604  12.158 -1.4542 -2.2650  1.6663
 4349TIP3   OH234537   1.445   0.244  10.724  0.3115 -0.2846 -0.3198
 4349TIP3    H134538   1.487   0.158  10.728  2.4656  0.6149 -1.6148
 4349TIP3    H234539   1.356   0.226  10.694  0.5260 -2.1017  0.0260
 4350TIP3   OH234540   3.735   1.904   3.446  0.6392  0.0804  0.4441
 4350TIP3    H134541   3.676   1.911   3.522  1.2037  1.0730  0.8131
 4350TIP3    H234542   3.753   1.811   3.439 -0.9258 -0.2428  0.3536
 4351TIP3   OH234543   1.812   5.349  16.782  0.5174 -0.1551  0.3218
 4351TIP3    H134544   1.870   5.344  16.857  0.4111  0.1039  0.4242
 4351TIP3    H234545   1.780   5.260  16.769  1.3978 -0.4192 -0.1006
 4352TIP3   OH234546   6.139   1.857  17.003  0.0120  0.1339  0.3986
 4352TIP3    H134547   6.206   1.871  17.071  0.4179  0.2436 -0.0174
 4352TIP3    H234548   6.143   1.763  16.985 -0.5845 -0.0131  1.0225
 4353TIP3   OH234549   3.210   5.982   3.058 -0.3488  0.2498 -0.3396
 4353TIP3    H134550   3.146   6.053   3.057  0.0280  0.5908 -0.9729
 4353TIP3    H234551   3.288   6.020   3.098 -0.6694 -0.2907  0.8297
 4354TIP3   OH234552   3.218   0.808  16.816  0.2197  0.1258  0.4635
 4354TIP3    H134553   3.193   0.799  16.908  0.6195  0.5231  0.6144
 4354TIP3    H234554   3.278   0.883  16.814  1.2589 -0.6852  0.0884
 4355TIP3   OH234555   3.211   6.710  11.223  0.4580 -0.0250  0.3533
 4355TIP3    H134556   3.153   6.646  11.182  0.0996 -0.4878  1.5560
 4355TIP3    H234557   3.299   6.674  11.212  0.4168  0.0846 -0.3973
 4356TIP3   OH234558   5.843   2.296  16.365 -0.2300  0.0200 -0.3654
 4356TIP3    H134559   5.886   2.315  16.282  0.3344 -1.2900 -0.3894
 4356TIP3    H234560   5.885   2.216  16.396  0.3879  1.1131  1.7636
 4357TIP3   OH234561   4.478   0.484  16.097 -0.1358 -0.2015 -0.5168
 4357TIP3    H134562   4.457   0.499  16.189 -0.7301  0.1746 -0.7071
 4357TIP3    H234563   4.573   0.473  16.095  0.0340  1.0810 -0.0296
 4358TIP3   OH234564   4.586   0.633  12.077 -0.4510 -0.4871  0.3946
 4358TIP3    H134565   4.498   0.597  12.087  0.5278 -2.5249  2.4560
 4358TIP3    H234566   4.638   0.561  12.043  0.5151  0.6237 -0.5631
 4359TIP3   OH234567   1.495   4.191   3.483 -0.0599 -0.1678  0.1922
 4359TIP3    H134568   1.540   4.173   3.565 -1.6995 -2.7849  0.6539
 4359TIP3    H234569   1.498   4.108   3.435 -0.9138  0.7109 -1.4876
 4360TIP3   OH234570   5.720   3.705   1.907 -0.0050  0.0923  0.0642
 4360TIP3    H134571   5.721   3.704   2.002 -0.6908 -1.1098  0.0812
 4360TIP3    H234572   5.648   3.646   1.883  1.0896 -0.7789 -1.2025
 4361TIP3   OH234573   1.363   2.943  14.311  0.0759  0.5791 -0.4377
 4361TIP3    H134574   1.345   2.866  14.256  1.8913  0.8303 -1.4598
 4361TIP3    H234575   1.276   2.975  14.336 -0.7905 -0.4083 -1.9903
 4362TIP3   OH234576   0.365   1.062   5.468  0.5521  0.2358 -0.3720
 4362TIP3    H134577   0.337   1.067   5.377 -0.7856  0.2023  0.0202
 4362TIP3    H234578   0.337   1.145   5.506 -0.7234 -0.5675  0.4880
 4363TIP3   OH234579   4.685   4.214   4.515  0.0993  0.7523  0.1161
 4363TIP3    H134580   4.720   4.125   4.518 -1.4922  0.0931  0.4201
 4363TIP3    H234581   4.590   4.202   4.506 -0.3843  2.3820  2.2153
 4364TIP3   OH234582   3.090   4.372   5.989  0.3228 -0.0251 -0.7703
 4364TIP3    H134583   3.174   4.326   5.989  0.7461  0.6829  0.3858
 4364TIP3    H234584   3.028   4.309   5.953  0.9976 -1.2874  0.1906
 4365TIP3   OH234585   4.961   4.507  15.301 -0.4961 -0.3539 -0.2229
 4365TIP3    H134586   4.872   4.532  15.324 -0.4693  0.6892 -1.2187
 4365TIP3    H234587   4.980   4.554  15.220  0.6359 -1.2783 -0.5275
 4366TIP3   OH234588   0.033   1.306  15.926  0.5046  0.2224  0.6191
 4366TIP3    H134589   0.052   1.311  16.020  2.0569  1.6762  0.2851
 4366TIP3    H234590   0.023   1.398  15.899 -3.0000 -0.2378 -0.1191
 4367TIP3   OH234591   2.996   4.653   2.604  0.3319  0.3083 -0.0016
 4367TIP3    H134592   2.989   4.651   2.509 -0.0304 -1.6931  0.0302
 4367TIP3    H234593   2.912   4.621   2.636  0.1678  1.6653  1.0401
 4368TIP3   OH234594   1.966   0.902  16.598 -0.3307 -0.3277 -0.5168
 4368TIP3    H134595   1.967   0.810  16.624 -2.3146 -0.9739 -2.5078
 4368TIP3    H234596   2.010   0.904  16.513 -0.0313  0.6521 -0.3635
 4369TIP3   OH234597   6.528   3.305   3.078  0.6216  0.1705 -0.0675
 4369TIP3    H134598   6.433   3.306   3.062  0.3162  1.0269  1.5499
 4369TIP3    H234599   6.540   3.365   3.151  2.3591 -0.3894  0.1439
 4370TIP3   OH234600   4.863   1.509  11.722 -0.3923 -0.1078  0.2797
 4370TIP3    H134601   4.933   1.488  11.660  0.5498  0.7148  1.0271
 4370TIP3    H234602   4.840   1.600  11.702 -1.3931 -0.4216 -0.0726
 4371TIP3   OH234603   4.808   6.290   2.218 -0.0173 -0.3960 -0.2601
 4371TIP3    H134604   4.801   6.246   2.303  2.6541 -0.5285 -0.0117
 4371TIP3    H234605   4.899   6.274   2.190 -0.5376  0.4323 -2.7149
 4372TIP3   OH234606   2.163   5.642  16.696  0.1161 -0.2662  0.1784
 4372TIP3    H134607   2.222   5.568  16.711 -0.1851 -0.5066  0.1896
 4372TIP3    H234608   2.203   5.690  16.623  0.4085 -0.3345  0.2912
 4373TIP3   OH234609   3.032   4.994   2.985 -0.0563  0.7349 -0.3864
 4373TIP3    H134610   3.040   5.086   2.962 -0.1386  0.8498  0.0406
 4373TIP3    H234611   2.959   4.990   3.046 -0.9336  0.1976 -1.4332
 4374TIP3   OH234612   2.179   6.007  10.655  0.1794  0.1708  0.2043
 4374TIP3    H134613   2.110   5.947  10.629 -0.2131 -0.0932  1.7222
 4374TIP3    H234614   2.252   5.950  10.679  0.0228  0.2994  1.0360
 4375TIP3   OH234615   0.552   4.308   4.896 -0.2538  0.4859  0.7627
 4375TIP3    H134616   0.476   4.297   4.953 -0.7579 -2.1833 -0.2787
 4375TIP3    H234617   0.602   4.227   4.907  0.9367  0.9672 -0.7171
 4376TIP3   OH234618   1.631   1.669  14.721  0.4138  0.0285  0.3016
 4376TIP3    H134619   1.668   1.747  14.761 -0.3820  0.3641  0.3899
 4376TIP3    H234620   1.659   1.597  14.778  0.7357  0.3022  0.4917
 4377TIP3   OH234621   1.213   4.883  14.170 -0.6541 -0.0674  0.2761
 4377TIP3    H134622   1.165   4.866  14.088 -1.0573  0.4970  0.3911
 4377TIP3    H234623   1.303   4.898  14.142 -0.0561 -3.0422  0.1982
 4378TIP3   OH234624   3.794   3.985  14.672  1.1771 -0.6116  0.5300
 4378TIP3    H134625   3.747   3.902  14.662 -1.1505  0.6680  0.2843
 4378TIP3    H234626   3.794   4.002  14.766  2.2348 -1.1608  0.6487
 4379TIP3   OH234627   1.909   0.938  12.364 -0.3273 -0.6325  0.4483
 4379TIP3    H134628   1.837   0.997  12.386 -0.1707  0.0914 -0.8940
 4379TIP3    H234629   1.879   0.851  12.392 -1.0995 -0.1192  1.2491
 4380TIP3   OH234630   6.514   1.763  11.408  0.1647  0.2476 -0.2626
 4380TIP3    H134631   6.514   1.798  11.319 -0.2459  1.5136  0.2276
 4380TIP3    H234632   6.454   1.688  11.404 -2.8741  2.4767 -0.2583
 4381TIP3   OH234633   2.018   4.655   3.433 -0.3462  0.2858 -0.4882
 4381TIP3    H134634   1.977   4.606   3.504  2.1930 -0.6797  0.4408
 4381TIP3    H234635   1.945   4.688   3.381 -2.2368 -2.0785  0.4749
 4382TIP3   OH234636   3.614   0.779  15.900  0.0810 -0.4579  0.5412
 4382TIP3    H134637   3.592   0.688  15.879  1.6014 -0.7188 -0.0426
 4382TIP3    H234638   3.705   0.776  15.927  0.2339  0.9507  0.2604
 4383TIP3   OH234639   6.216   4.007   2.989  0.0976 -0.7912 -0.0170
 4383TIP3    H134640   6.200   3.936   3.051  0.7079 -1.0563 -0.1542
 4383TIP3    H234641   6.208   3.967   2.903 -0.9590 -0.3755 -0.1287
 4384TIP3   OH234642   0.364   1.804  17.318  0.4861 -0.6242  0.3684
 4384TIP3    H134643   0.325   1.731  17.367 -0.4403 -0.6010 -0.3062
 4384TIP3    H234644   0.310   1.811  17.240  2.3325 -1.1115 -1.0177
 4385TIP3   OH234645   2.055   5.730   5.644 -0.1686  0.1479 -0.4883
 4385TIP3    H134646   2.115   5.805   5.644  0.3299 -0.2340 -1.2377
 4385TIP3    H234647   2.047   5.707   5.551 -0.6112 -0.4939 -0.2923
 4386TIP3   OH234648   4.904   5.895  14.478 -0.1638 -0.2582  0.0761
 4386TIP3    H134649   4.999   5.902  14.475  0.0191 -1.2020  2.0138
 4386TIP3    H234650   4.874   5.985  14.493  0.4150  0.0276 -0.4343
 4387TIP3   OH234651   2.209   3.237  15.777 -0.1709  0.5578  0.1242
 4387TIP3    H134652   2.178   3.228  15.687  0.3787 -1.0592  0.0732
 4387TIP3    H234653   2.268   3.312  15.775  1.0558 -0.4076 -1.2195
 4388TIP3   OH234654   1.627   1.480   5.572  0.0515 -0.3032  0.4475
 4388TIP3    H134655   1.637   1.488   5.666  0.8728  2.0360  0.2306
 4388TIP3    H234656   1.701   1.426   5.544  0.6618  0.2430  0.9946
 4389TIP3   OH234657   1.539   2.260  14.317  0.0850  0.0485  0.1633
 4389TIP3    H134658   1.478   2.199  14.358  0.5644  0.6747  1.8780
 4389TIP3    H234659   1.485   2.311  14.256 -0.8454 -0.2700  0.7025
 4390TIP3   OH234660   1.268   6.666  12.567 -0.4137  0.2809  0.7879
 4390TIP3    H134661   1.350   6.708  12.543 -0.6292  0.1853 -0.1398
 4390TIP3    H234662   1.295   6.591  12.621  0.2228 -0.5900 -0.6869
 4391TIP3   OH234663   2.288   1.507   4.978 -0.6314 -0.4619 -0.8770
 4391TIP3    H134664   2.258   1.581   5.030 -2.7518 -0.8641 -1.4390
 4391TIP3    H234665   2.345   1.458   5.037 -0.7878  0.5362  0.1488
 4392TIP3   OH234666   2.898   4.941   5.247  0.0547 -0.1761  0.3595
 4392TIP3    H134667   2.879   4.911   5.336  1.9055 -0.3177  0.7495
 4392TIP3    H234668   2.989   4.914   5.231  0.7891  2.3973 -0.4496
 4393TIP3   OH234669   5.872   0.936   4.506  0.7930  0.4992  1.0152
 4393TIP3    H134670   5.865   0.843   4.529  2.3080 -0.1744 -0.9499
 4393TIP3    H234671   5.782   0.969   4.513  0.1774 -1.1646  1.5239
 4394TIP3   OH234672   6.420   2.143   0.068 -0.1191 -0.0543 -0.0957
 4394TIP3    H134673   6.392   2.055   0.040 -1.1801  0.2863 -0.1475
 4394TIP3    H234674   6.361   2.164   0.140  0.5624  0.3576  0.3462
 4395TIP3   OH234675   4.846   4.863  10.577 -0.8567 -0.2881 -0.2748
 4395TIP3    H134676   4.918   4.887  10.517 -0.6830 -1.6928 -0.6531
 4395TIP3    H234677   4.872   4.901  10.661  0.1686 -0.4802 -0.4891
 4396TIP3   OH234678   3.604   2.910  13.570  0.0859  0.8837 -0.0461
 4396TIP3    H134679   3.629   2.960  13.648  0.8012  0.9030 -0.2824
 4396TIP3    H234680   3.686   2.896  13.522  0.0722 -1.2782  0.4452
 4397TIP3   OH234681   5.496   1.474  15.734  0.2667 -0.1137 -0.9608
 4397TIP3    H134682   5.467   1.491  15.645  0.4280 -1.5530 -1.3199
 4397TIP3    H234683   5.456   1.543  15.787  1.4406  1.6835 -2.3564
 4398TIP3   OH234684   0.070   4.239   5.155 -0.0535  0.2371  0.2146
 4398TIP3    H134685   0.090   4.148   5.179 -0.1179  0.9515  3.4335
 4398TIP3    H234686   0.042   4.234   5.063 -0.0572 -2.9710  0.2707
 4399TIP3   OH234687   2.741   0.460   4.084  0.0510  0.4823 -0.6557
 4399TIP3    H134688   2.808   0.520   4.051  0.5313 -0.8167 -2.1556
 4399TIP3    H234689   2.770   0.437   4.172  0.9847  0.8020 -0.8692
 4400TIP3   OH234690   1.155   4.743   4.672  1.1351  0.1546 -0.1514
 4400TIP3    H134691   1.125   4.830   4.699 -0.4373 -0.7983  1.4786
 4400TIP3    H234692   1.238   4.731   4.718  0.4449  0.1311  1.1632
 4401TIP3   OH234693   1.860   4.250   4.259 -0.5792 -0.3535  0.3460
 4401TIP3    H134694   1.901   4.164   4.262 -0.1979 -0.3867 -2.6397
 4401TIP3    H234695   1.780   4.240   4.311  0.2074 -2.0260  1.3196
 4402TIP3   OH234696   6.473   4.461   3.895 -0.3774  0.4068 -0.4229
 4402TIP3    H134697   6.447   4.451   3.986 -0.2833  0.3877 -0.3981
 4402TIP3    H234698   6.529   4.539   3.894  1.7241 -1.0199 -0.0277
 4403TIP3   OH234699   0.746   3.711  16.223  0.2107 -0.4911  0.2394
 4403TIP3    H134700   0.720   3.768  16.151 -0.3397 -0.4485  0.4754
 4403TIP3    H234701   0.681   3.725  16.291  2.2281  1.5977  1.9150
 4404TIP3   OH234702   1.982   1.000  11.769 -0.1920 -0.4365 -0.0025
 4404TIP3    H134703   2.068   0.960  11.785  1.0799  1.5397 -1.4564
 4404TIP3    H234704   1.963   0.979  11.678 -0.5602  0.3324 -0.1090
 4405TIP3   OH234705   4.260   5.877   2.138 -0.0041  0.2973 -0.2456
 4405TIP3    H134706   4.323   5.893   2.067  1.9138  1.6108  1.6112
 4405TIP3    H234707   4.226   5.963   2.160 -0.2623 -0.0252  0.6720
 4406TIP3   OH234708   2.027   4.768   1.222  0.0513 -0.1777  0.0906
 4406TIP3    H134709   2.048   4.680   1.254 -1.2338 -0.7006 -0.4122
 4406TIP3    H234710   1.933   4.777   1.240 -0.0208  0.7341 -0.6980
 4407TIP3   OH234711   5.101   1.065  10.776 -0.1206 -0.0850 -0.2181
 4407TIP3    H134712   5.058   0.980  10.787  0.9023 -0.9237 -2.2778
 4407TIP3    H234713   5.179   1.046  10.724  2.0878  1.6040  2.2359
 4408TIP3   OH234714   1.183   5.982   4.342  0.3613 -0.1846 -0.0356
 4408TIP3    H134715   1.212   5.942   4.260 -0.3342 -1.0515  0.1209
 4408TIP3    H234716   1.088   5.974   4.340  0.3299 -0.1004  0.7957
 4409TIP3   OH234717   0.459   3.544  16.107  0.0157  0.5515 -0.5397
 4409TIP3    H134718   0.538   3.517  16.061  0.6249  0.7530  0.3446
 4409TIP3    H234719   0.434   3.468  16.159  0.2208  0.8147 -0.0468
 4410TIP3   OH234720   5.525   2.859   5.175 -0.0281 -0.2904  0.2899
 4410TIP3    H134721   5.430   2.864   5.186 -0.2050  0.9819 -1.4957
 4410TIP3    H234722   5.546   2.767   5.193 -1.6007 -0.6205  0.6123
 4411TIP3   OH234723   4.148   1.158   2.139 -0.0206  0.0386  0.5730
 4411TIP3    H134724   4.120   1.085   2.083 -3.7903  1.6594  0.0518
 4411TIP3    H234725   4.237   1.177   2.111 -0.2909 -1.9189 -1.9327
 4412TIP3   OH234726   0.841   3.330  14.133  0.0011  0.2665 -0.1850
 4412TIP3    H134727   0.931   3.342  14.103  0.2069  0.4168  0.4681
 4412TIP3    H234728   0.818   3.415  14.172 -0.0460 -0.1043  0.6104
 4413TIP3   OH234729   3.080   4.554  11.569  0.6022  0.4415  0.4355
 4413TIP3    H134730   3.134   4.631  11.550  0.3830  0.9663  1.8107
 4413TIP3    H234731   3.129   4.480  11.532  1.0280  1.1801 -0.5148
 4414TIP3   OH234732   5.816   4.147   5.329  0.0610  0.0505 -1.0051
 4414TIP3    H134733   5.889   4.119   5.383 -0.3103 -1.4186 -1.2212
 4414TIP3    H234734   5.836   4.112   5.242 -1.1540 -0.9214 -0.9369
 4415TIP3   OH234735   2.221   3.668   5.674 -0.4507 -0.3688  0.0122
 4415TIP3    H134736   2.250   3.708   5.756  1.6857 -0.0123 -0.8487
 4415TIP3    H234737   2.137   3.710   5.655  0.5049  1.9247  0.4341
 4416TIP3   OH234738   1.697   0.181  15.225  0.4370  0.2813  0.0114
 4416TIP3    H134739   1.778   0.165  15.177  0.3399  1.2022 -0.4802
 4416TIP3    H234740   1.726   0.201  15.314  0.7061 -0.0756  0.0065
 4417TIP3   OH234741   6.126   0.293   0.788  0.3111  0.5114  0.3990
 4417TIP3    H134742   6.152   0.210   0.748  1.7794  0.7445  0.7975
 4417TIP3    H234743   6.181   0.358   0.745  1.3232  0.8815  2.1540
 4418TIP3   OH234744   6.353   2.792   5.461 -0.0550 -0.0634 -0.1380
 4418TIP3    H134745   6.377   2.762   5.374 -1.0003 -0.8698 -0.1354
 4418TIP3    H234746   6.418   2.858   5.482  1.6509 -1.5552 -0.4691
 4419TIP3   OH234747   1.049   1.829   4.389 -0.0147  0.3135 -0.1254
 4419TIP3    H134748   0.983   1.876   4.338  1.1347  0.2912 -1.7071
 4419TIP3    H234749   1.133   1.864   4.358  0.8071 -1.4639 -0.0564
 4420TIP3   OH234750   2.413   1.870   1.451 -0.0326  0.0747  0.2446
 4420TIP3    H134751   2.487   1.909   1.498  0.2836 -2.4353  2.0713
 4420TIP3    H234752   2.438   1.875   1.358  1.7669  0.5581  0.7132
 4421TIP3   OH234753   6.568   2.458  12.411 -0.3938 -0.2623 -0.3481
 4421TIP3    H134754   6.489   2.474  12.462  0.5667 -0.4545  1.2805
 4421TIP3    H234755   6.536   2.430  12.325 -2.0750  1.1176 -0.2269
 4422TIP3   OH234756   5.460   4.503  16.657 -0.6710  0.2640 -0.4814
 4422TIP3    H134757   5.534   4.525  16.599  1.3646  0.3401  1.9793
 4422TIP3    H234758   5.436   4.414  16.632  1.2673 -0.3318 -0.4014
 4423TIP3   OH234759   0.255   1.481   3.052 -0.3601 -0.4082  0.0394
 4423TIP3    H134760   0.309   1.488   2.973 -0.6014  2.1057  0.0200
 4423TIP3    H234761   0.167   1.463   3.018 -0.5059  0.8748 -0.3411
 4424TIP3   OH234762   0.711   6.379  15.468 -0.3913  0.2468 -0.2555
 4424TIP3    H134763   0.661   6.459  15.453 -2.2798 -0.9462 -0.5535
 4424TIP3    H234764   0.702   6.363  15.562 -2.5707 -1.1687 -0.6376
 4425TIP3   OH234765   5.956   0.963  15.479  0.0601 -0.4003  0.0926
 4425TIP3    H134766   5.959   1.033  15.413  0.4543  0.1904  0.7154
 4425TIP3    H234767   5.925   1.007  15.558  1.0418 -0.7599  0.6971
 4426TIP3   OH234768   1.388   5.127  16.879  0.5529  0.3437  0.5863
 4426TIP3    H134769   1.339   5.070  16.820  0.8647 -0.6216  1.2398
 4426TIP3    H234770   1.467   5.149  16.830 -0.2791  1.5235 -0.2829
 4427TIP3   OH234771   5.387   2.688   4.094  0.0815 -0.3568  0.0848
 4427TIP3    H134772   5.426   2.738   4.022 -1.4781  3.2146  1.5221
 4427TIP3    H234773   5.297   2.719   4.099 -1.0096 -3.3752  1.1852
 4428TIP3   OH234774   1.693   6.105  11.767  0.1465  0.2603  0.3314
 4428TIP3    H134775   1.669   6.045  11.838 -1.2257 -0.2240 -0.4964
 4428TIP3    H234776   1.664   6.191  11.798  1.4179  0.4068  1.1949
 4429TIP3   OH234777   0.905   3.649   2.102  0.1295 -0.5685  0.2403
 4429TIP3    H134778   0.835   3.598   2.063 -0.5239  1.9557 -2.2356
 4429TIP3    H234779   0.861   3.712   2.158  0.4103  0.5644 -0.7648
 4430TIP3   OH234780   4.745   2.640  16.996 -0.2567 -0.0925  0.6040
 4430TIP3    H134781   4.680   2.683  16.941  0.3489  0.4993  0.3261
 4430TIP3    H234782   4.812   2.707  17.010 -0.3151 -0.2939  1.9159
 4431TIP3   OH234783   2.848   0.600   1.638  0.4753 -0.0178  0.4722
 4431TIP3    H134784   2.807   0.544   1.705 -0.5724  0.7469  0.4925
 4431TIP3    H234785   2.784   0.669   1.622  1.3212  0.6093 -0.3002
 4432TIP3   OH234786   2.135   0.743   3.147  0.0984  0.1664  0.1696
 4432TIP3    H134787   2.065   0.692   3.188 -0.8680  1.7911  0.6370
 4432TIP3    H234788   2.102   0.764   3.059  1.4305 -1.8266 -0.8762
 4433TIP3   OH234789   1.004   4.650  15.807  0.5509 -0.2991 -0.0650
 4433TIP3    H134790   0.964   4.671  15.892  2.3940 -0.1119  0.8231
 4433TIP3    H234791   0.933   4.657  15.744 -0.8501 -0.3201  1.4563
 4434TIP3   OH234792   3.068   4.458   4.142 -0.0962 -0.1892  0.1780
 4434TIP3    H134793   3.090   4.551   4.136  1.9470 -0.7263 -2.3031
 4434TIP3    H234794   3.148   4.416   4.172 -0.1180 -1.4029 -1.3208
 4435TIP3   OH234795   3.437   1.075   2.924  0.1134  0.2328  0.1061
 4435TIP3    H134796   3.361   1.029   2.888  1.5783 -1.4555 -0.9935
 4435TIP3    H234797   3.485   1.009   2.973  0.9114  1.2560  0.7529
 4436TIP3   OH234798   3.353   2.572  15.037  0.4258  0.1836  0.3360
 4436TIP3    H134799   3.371   2.652  14.989  2.9164  0.6349  1.8280
 4436TIP3    H234800   3.258   2.564  15.037  0.0854  3.2295  0.2954
 4437TIP3   OH234801   4.363   0.969  14.065 -0.1964 -0.1314 -0.0041
 4437TIP3    H134802   4.291   1.020  14.027  0.3578  1.1308  0.5780
 4437TIP3    H234803   4.401   1.027  14.131  0.9073 -1.0485  0.1905
 4438TIP3   OH234804   6.747   3.137  15.841 -0.4503  0.6441 -0.1767
 4438TIP3    H134805   6.838   3.159  15.861 -1.0234  2.3355  0.8024
 4438TIP3    H234806   6.751   3.048  15.807  1.6008  0.7947 -0.4821
 4439TIP3   OH234807   4.553   4.991  15.965  0.1575  0.5766 -0.0040
 4439TIP3    H134808   4.586   5.081  15.973 -0.2876  1.1969 -3.5624
 4439TIP3    H234809   4.625   4.937  15.999  0.9356  2.1863  1.1043
 4440TIP3   OH234810   4.013   4.879   3.837 -0.3485  0.2080 -0.1027
 4440TIP3    H134811   4.048   4.809   3.892 -1.2092 -0.7266 -0.7049
 4440TIP3    H234812   4.057   4.869   3.753 -2.1255 -1.1129 -0.9330
 4441TIP3   OH234813   3.500   1.809   0.806 -0.6394 -0.3741 -0.1669
 4441TIP3    H134814   3.446   1.835   0.881  0.0185 -1.0554  0.5674
 4441TIP3    H234815   3.462   1.727   0.776  0.7662 -1.6161  1.2466
 4442TIP3   OH234816   6.437   6.000  12.541 -0.2508 -0.2709  0.2019
 4442TIP3    H134817   6.376   6.073  12.541  1.0215  0.9966  3.5819
 4442TIP3    H234818   6.404   5.941  12.609  0.0379 -1.6832 -0.8419
 4443TIP3   OH234819   2.276   5.583  11.141  0.5531 -0.2061 -0.7067
 4443TIP3    H134820   2.353   5.532  11.163  0.8597 -0.9021 -3.1432
 4443TIP3    H234821   2.203   5.521  11.145  0.0570  0.4200  1.4595
 4444TIP3   OH234822   5.143   1.891   3.782 -0.2995  0.1852  0.1654
 4444TIP3    H134823   5.130   1.972   3.734 -1.1927  0.2050  0.4245
 4444TIP3    H234824   5.054   1.858   3.799 -0.1764  1.1602  3.4404
 4445TIP3   OH234825   2.693   6.748  13.100  0.3433  0.3039 -0.1229
 4445TIP3    H134826   2.631   6.675  13.091  0.1842  0.2817  1.0562
 4445TIP3    H234827   2.638   6.824  13.120  0.7053  0.1751  1.5023
 4446TIP3   OH234828   2.077   0.579   6.168  0.3596 -0.0970 -0.1971
 4446TIP3    H134829   2.117   0.563   6.083  0.8079  1.0685 -0.2136
 4446TIP3    H234830   2.060   0.673   6.170  0.4576 -0.0887  1.0425
 4447TIP3   OH234831   1.989   0.290  10.889 -0.3915 -0.1684 -0.1370
 4447TIP3    H134832   1.937   0.231  10.833 -0.5283 -0.2809  0.1066
 4447TIP3    H234833   2.072   0.244  10.899 -0.4385 -0.2430 -0.0837
 4448TIP3   OH234834   5.852   4.885  17.051  0.3144 -0.1522 -0.0292
 4448TIP3    H134835   5.926   4.908  17.106 -0.5971  2.1830  0.3140
 4448TIP3    H234836   5.845   4.956  16.988 -0.7737 -1.0403 -0.9649
 4449TIP3   OH234837   6.368   6.211   0.276  0.1641 -0.0765 -0.0240
 4449TIP3    H134838   6.361   6.220   0.371  2.3077  0.3894  0.1362
 4449TIP3    H234839   6.323   6.288   0.241  0.1232  0.2046  0.6448
 4450TIP3   OH234840   1.971   5.572  12.607  0.3731 -0.1132  0.3515
 4450TIP3    H134841   2.006   5.501  12.661 -1.3668 -1.5136 -0.2723
 4450TIP3    H234842   1.985   5.651  12.659  2.8371 -0.7923  0.8482
 4451TIP3   OH234843   0.251   6.100   5.311  0.4761 -1.0034 -0.2201
 4451TIP3    H134844   0.192   6.099   5.386 -0.5009  0.5127 -0.9130
 4451TIP3    H234845   0.230   6.020   5.263 -0.8424 -0.6509 -0.2762
 4452TIP3   OH234846   6.166   1.839  15.055 -0.1784  0.3665  0.0781
 4452TIP3    H134847   6.089   1.893  15.037 -0.4226 -0.5803 -2.0484
 4452TIP3    H234848   6.212   1.834  14.972  0.6696 -1.3842  0.6026
 4453TIP3   OH234849   0.210   4.286  11.084  0.3419 -0.4440  0.0446
 4453TIP3    H134850   0.295   4.322  11.111  0.8349 -1.0409 -0.6875
 4453TIP3    H234851   0.231   4.224  11.015 -0.8009  0.2179 -0.9275
 4454TIP3   OH234852   2.773   1.701   2.037 -0.1506 -0.3989 -0.1480
 4454TIP3    H134853   2.686   1.663   2.032  0.2745 -1.2502 -2.9333
 4454TIP3    H234854   2.787   1.718   2.131 -3.2097 -0.3194  0.3836
 4455TIP3   OH234855   4.192   5.496  12.065 -0.0281  0.0443  0.6175
 4455TIP3    H134856   4.241   5.414  12.064 -0.5966 -0.3028  0.7319
 4455TIP3    H234857   4.247   5.558  12.018 -0.2869 -0.8108 -0.8889
 4456TIP3   OH234858   2.308   5.820  14.187 -0.1176 -0.3830  0.3933
 4456TIP3    H134859   2.243   5.890  14.175 -0.9491 -1.2754 -0.5812
 4456TIP3    H234860   2.374   5.837  14.120 -1.9310 -2.2394 -2.0261
 4457TIP3   OH234861   6.161   5.109   0.783  0.0041  0.1223 -0.0080
 4457TIP3    H134862   6.255   5.106   0.801  0.3038  2.0076 -0.9773
 4457TIP3    H234863   6.154   5.094   0.688 -1.0150 -3.2503  0.4506
 4458TIP3   OH234864   3.194   5.299   2.925 -0.1580  0.3395 -0.2541
 4458TIP3    H134865   3.277   5.344   2.914 -1.0968  1.8872 -1.4800
 4458TIP3    H234866   3.181   5.251   2.843 -0.5995  0.3378 -0.1902
 4459TIP3   OH234867   1.939   4.828   4.329  0.4762 -0.8484 -0.3342
 4459TIP3    H134868   1.868   4.786   4.280  2.0621 -1.8429 -1.8805
 4459TIP3    H234869   1.998   4.863   4.261  0.9920  0.8405  0.9114
 4460TIP3   OH234870   0.667   0.221   0.756  0.2644 -0.0230  0.1492
 4460TIP3    H134871   0.605   0.156   0.724  1.7366 -0.7796 -1.3161
 4460TIP3    H234872   0.623   0.305   0.744 -0.6709 -0.5776 -0.3548
 4461TIP3   OH234873   2.211   2.055   5.938  0.1195 -0.0834 -0.4499
 4461TIP3    H134874   2.124   2.043   5.977 -0.0544  0.5412 -0.6371
 4461TIP3    H234875   2.199   2.125   5.874  1.0085  0.8429  0.3677
 4462TIP3   OH234876   0.822   1.574   2.414 -0.0545  0.1622 -0.4536
 4462TIP3    H134877   0.822   1.513   2.487  2.3526 -0.0495 -0.5501
 4462TIP3    H234878   0.902   1.626   2.426 -0.4666  1.2373 -2.0268
 4463TIP3   OH234879   0.041   1.674   5.561  0.0103  0.0989  0.6231
 4463TIP3    H134880   0.136   1.690   5.562 -0.3170  2.4383 -0.2077
 4463TIP3    H234881   0.026   1.625   5.481  0.3930  0.9387  0.0136
 4464TIP3   OH234882   0.694   0.216  11.594 -0.1411 -0.2467  0.3944
 4464TIP3    H134883   0.635   0.141  11.607 -0.4576  0.4344  4.3339
 4464TIP3    H234884   0.770   0.179  11.550 -1.7662 -2.0299 -1.1050
 4465TIP3   OH234885   2.308   4.396  12.359 -0.3051  0.2393 -0.1458
 4465TIP3    H134886   2.396   4.358  12.364 -0.5121 -0.1264  1.0867
 4465TIP3    H234887   2.322   4.490  12.371 -0.0192  0.2618 -0.6457
 4466TIP3   OH234888   6.216   3.915   1.450  0.2917  0.5048 -0.2710
 4466TIP3    H134889   6.310   3.897   1.450  0.0848 -0.6561 -0.0875
 4466TIP3    H234890   6.175   3.828   1.447 -0.7863  0.9137  1.3596
 4467TIP3   OH234891   3.118   3.943  12.154 -0.2655 -1.0477 -0.8022
 4467TIP3    H134892   3.197   3.896  12.183  0.5928  1.0000  0.3666
 4467TIP3    H234893   3.140   3.975  12.067  0.0329 -0.8684 -0.6637
 4468TIP3   OH234894   5.926   3.824   2.206  0.3541  0.2201 -0.2385
 4468TIP3    H134895   6.014   3.830   2.244  0.4741  1.3713 -0.6497
 4468TIP3    H234896   5.923   3.738   2.164  1.6362  0.5471 -1.0485
 4469TIP3   OH234897   0.014   5.903   2.399  0.4054 -0.4881 -0.2271
 4469TIP3    H134898  -0.038   5.826   2.378  0.3328 -1.1169  1.9683
 4469TIP3    H234899   0.083   5.870   2.458  0.5568  1.0438  0.5112
 4470TIP3   OH234900   0.462   5.722   0.054  0.1151  0.1778 -0.0741
 4470TIP3    H134901   0.464   5.818   0.045  0.3532  0.4377  2.2566
 4470TIP3    H234902   0.544   5.693   0.014  0.2229  0.9804 -0.4670
 4471TIP3   OH234903   3.188   6.554   1.762  0.0612 -0.3475  0.3945
 4471TIP3    H134904   3.133   6.601   1.700  1.3217  1.7567  0.7577
 4471TIP3    H234905   3.132   6.541   1.838 -1.1031 -1.8065 -0.6610
 4472TIP3   OH234906   2.648   4.210  11.920 -0.0820 -0.1071 -0.0836
 4472TIP3    H134907   2.584   4.261  11.970  0.3570  1.3228 -0.9243
 4472TIP3    H234908   2.637   4.240  11.830  0.2194 -1.4995 -0.5985
 4473TIP3   OH234909   3.377   3.639   3.703 -0.1044 -0.2581 -0.4248
 4473TIP3    H134910   3.369   3.720   3.753 -0.5536 -1.4114  1.4595
 4473TIP3    H234911   3.288   3.603   3.700  0.1755 -0.9436 -0.7977
 4474TIP3   OH234912   6.661   1.734  12.712  0.6274 -0.0612  0.1851
 4474TIP3    H134913   6.632   1.823  12.692  0.4961 -0.3495 -1.0046
 4474TIP3    H234914   6.633   1.719  12.802 -1.9418  0.0888 -0.5169
 4475TIP3   OH234915   3.397   3.925  10.713  0.3485  0.7826  0.3614
 4475TIP3    H134916   3.388   4.009  10.667  2.5621  1.8234  1.6741
 4475TIP3    H234917   3.309   3.906  10.745 -0.7873  1.1687 -2.2355
 4476TIP3   OH234918   0.031   0.594   0.838  0.0093  0.6180 -0.1612
 4476TIP3    H134919   0.035   0.685   0.867 -0.7899  0.3600  0.8217
 4476TIP3    H234920   0.092   0.589   0.765  1.9229  1.3735  1.3227
 4477TIP3   OH234921   6.224   0.985  16.841 -0.6361 -1.1735  0.1700
 4477TIP3    H134922   6.225   1.066  16.790  2.1317 -0.1587  1.5997
 4477TIP3    H234923   6.316   0.961  16.849 -1.0344 -2.0995  3.3393
 4478TIP3   OH234924   2.931   0.926  13.199 -0.1885  0.1397  0.1940
 4478TIP3    H134925   3.012   0.890  13.162 -0.3588  1.3738 -1.4921
 4478TIP3    H234926   2.861   0.877  13.155 -0.3813  0.2866  0.3359
 4479TIP3   OH234927   4.347   4.111   5.430  0.1733 -0.3891 -0.1906
 4479TIP3    H134928   4.283   4.060   5.382 -1.2766  3.0573 -2.2827
 4479TIP3    H234929   4.431   4.072   5.408 -0.9171 -3.2670  0.3419
 4480TIP3   OH234930   6.109   5.620  15.941 -0.2403  0.3111 -0.1393
 4480TIP3    H134931   6.079   5.560  16.010 -0.3696  0.2117 -0.2799
 4480TIP3    H234932   6.195   5.650  15.970 -0.0993 -0.0731 -0.1449
 4481TIP3   OH234933   5.010   1.677  15.516 -0.0329 -0.2445 -0.2433
 4481TIP3    H134934   5.024   1.735  15.591 -1.1677  1.8198 -1.5375
 4481TIP3    H234935   4.915   1.677  15.503  0.1281 -0.7317 -1.5562
 4482TIP3   OH234936   1.598   3.316   6.182 -0.6422 -0.5636  0.7070
 4482TIP3    H134937   1.558   3.395   6.145  1.1144  0.9410  1.8165
 4482TIP3    H234938   1.588   3.327   6.277 -1.3236 -2.2427  0.8545
 4483TIP3   OH234939   4.181   6.722  11.945 -0.5505 -0.0534 -0.5445
 4483TIP3    H134940   4.233   6.656  11.991 -0.1684 -0.8103 -2.0014
 4483TIP3    H234941   4.132   6.766  12.014  0.8850 -0.3381  0.7085
 4484TIP3   OH234942   3.732   6.505   0.522 -0.0594  0.5051  0.0509
 4484TIP3    H134943   3.669   6.448   0.566  0.6778  0.4390  1.0764
 4484TIP3    H234944   3.699   6.594   0.539  0.5441  0.5150  1.3339
 4485TIP3   OH234945   3.644   0.008  12.352  0.6144  0.0433 -0.2083
 4485TIP3    H134946   3.708   0.079  12.356  1.5220 -0.7967  0.4378
 4485TIP3    H234947   3.681  -0.055  12.290  0.7157 -0.7253  0.6101
 4486TIP3   OH234948   0.088   2.058  12.583  0.6072  0.2666  0.3521
 4486TIP3    H134949   0.172   2.058  12.536  0.9314  0.3319  0.9263
 4486TIP3    H234950   0.024   2.031  12.517  0.9934  0.7644 -0.2382
 4487TIP3   OH234951   2.320   4.811   3.247 -0.6007  0.1543 -0.0402
 4487TIP3    H134952   2.299   4.770   3.331 -1.5132 -0.5482 -0.5879
 4487TIP3    H234953   2.236   4.842   3.214 -0.3466 -0.0975 -0.9535
 4488TIP3   OH234954   1.701   2.163  11.918 -0.0200  0.3633  0.3271
 4488TIP3    H134955   1.633   2.178  11.852  0.6918 -2.0808 -1.0775
 4488TIP3    H234956   1.735   2.076  11.899  1.5339  0.3099  2.8032
 4489TIP3   OH234957   3.439   1.298  13.660 -0.5687  0.4250 -0.1780
 4489TIP3    H134958   3.418   1.331  13.572 -1.6007 -0.0263 -0.1200
 4489TIP3    H234959   3.355   1.268  13.695 -0.0449 -0.0886  0.6816
 4490TIP3   OH234960   6.164   6.198   4.018 -0.2043 -0.3419 -0.0312
 4490TIP3    H134961   6.178   6.258   4.091 -1.9457  0.5206 -0.3311
 4490TIP3    H234962   6.100   6.243   3.962  1.9981 -0.3678 -2.8257
 4491TIP3   OH234963   0.692   2.216  16.421 -0.7340  0.3359 -0.2916
 4491TIP3    H134964   0.637   2.294  16.416 -0.5747  0.6679  2.0723
 4491TIP3    H234965   0.780   2.247  16.398 -0.8119  0.7118 -0.0920
 4492TIP3   OH234966   1.659   4.944   1.976  0.0069 -0.5573 -0.2454
 4492TIP3    H134967   1.733   4.900   1.934  0.2093  0.7808 -1.3705
 4492TIP3    H234968   1.699   5.005   2.038 -0.1964 -0.5861 -0.0859
 4493TIP3   OH234969   6.342   3.382   1.928  0.5406  0.4125  0.7025
 4493TIP3    H134970   6.249   3.395   1.946  0.0005  0.6687 -1.9098
 4493TIP3    H234971   6.380   3.359   2.013 -1.7199  1.2125  2.0076
 4494TIP3   OH234972   0.254   2.788   2.583  0.0845  0.3559 -0.0331
 4494TIP3    H134973   0.176   2.801   2.528  0.5481 -0.6591 -0.9652
 4494TIP3    H234974   0.317   2.744   2.525  1.7789  2.1163  0.3498
 4495TIP3   OH234975   4.805   5.393  11.633  0.1785  0.8055  0.0071
 4495TIP3    H134976   4.743   5.360  11.698  1.3224 -1.1015  0.2300
 4495TIP3    H234977   4.787   5.341  11.555  1.8276 -0.2371  0.2668
 4496TIP3   OH234978   5.718   5.108   5.532  0.2497  0.1830 -0.4432
 4496TIP3    H134979   5.698   5.032   5.477  0.0414 -0.2764  0.2477
 4496TIP3    H234980   5.754   5.071   5.613  0.8428  0.8589 -0.3886
 4497TIP3   OH234981   0.560   5.146   2.067  0.1072 -0.1980 -0.0655
 4497TIP3    H134982   0.593   5.092   2.139 -0.0739  0.3151  0.4078
 4497TIP3    H234983   0.500   5.089   2.019 -0.7831 -0.1480  0.9599
 4498TIP3   OH234984   1.359   1.263   0.847  0.4503  0.1511  0.1228
 4498TIP3    H134985   1.376   1.209   0.770 -0.0953 -0.6289  0.5382
 4498TIP3    H234986   1.300   1.210   0.901  1.4944  0.3294  1.4857
 4499TIP3   OH234987   4.226   5.723  14.941 -0.0465  0.0646 -0.5071
 4499TIP3    H134988   4.309   5.715  14.988 -0.4325  0.6701  0.3046
 4499TIP3    H234989   4.252   5.739  14.850  0.8005  2.7271  0.1130
 4500TIP3   OH234990   0.100   0.918   6.231 -0.1177  0.4111 -0.1527
 4500TIP3    H134991   0.192   0.933   6.254  0.5939 -1.0064 -1.8733
 4500TIP3    H234992   0.053   0.927   6.314  1.5718  1.0764  0.7803
 4501TIP3   OH234993   2.212   0.697   3.477  0.1272  0.5021  0.1341
 4501TIP3    H134994   2.277   0.735   3.535 -1.0015  1.7805  0.6141
 4501TIP3    H234995   2.147   0.766   3.465 -1.3281 -0.8382 -0.0444
 4502TIP3   OH234996   4.646   1.671  13.094 -0.0639  0.7832 -0.0158
 4502TIP3    H134997   4.591   1.603  13.055  0.4268  0.7339 -0.6443
 4502TIP3    H234998   4.642   1.654  13.189 -2.0264  1.4884  0.0522
 4503TIP3   OH234999   5.288   2.822   3.147 -0.0705 -0.0653  0.0088
 4503TIP3    H135000   5.223   2.880   3.107 -0.8236  0.0188  1.2938
 4503TIP3    H235001   5.370   2.871   3.142 -0.0190 -0.2645 -1.8344
 4504TIP3   OH235002   6.084   4.039  17.028 -0.3107 -0.6554 -0.1683
 4504TIP3    H135003   6.052   3.987  16.955 -0.0471 -0.9224 -0.0971
 4504TIP3    H235004   6.163   4.081  16.994  0.0052 -1.0512  0.0653
 4505TIP3   OH235005   4.125   1.347   0.419 -0.1240  0.5741  0.0221
 4505TIP3    H135006   4.066   1.276   0.394 -0.7043  1.2263 -0.5199
 4505TIP3    H235007   4.080   1.391   0.491  1.6200 -1.4007  2.4814
 4506TIP3   OH235008   4.511   6.375  11.838 -0.7736 -0.2520 -0.2915
 4506TIP3    H135009   4.440   6.437  11.820 -0.3735 -0.0388 -1.2143
 4506TIP3    H235010   4.470   6.289  11.827 -0.4329 -0.1687 -3.1053
 4507TIP3   OH235011   0.193   5.959  12.980 -0.3068  0.0027 -0.0963
 4507TIP3    H135012   0.213   5.915  13.062  0.1880 -0.1757 -0.3044
 4507TIP3    H235013   0.140   6.035  13.005  0.8914  0.6703  0.5282
 4508TIP3   OH235014   6.050   4.429  14.402 -0.5590  0.2379  0.4301
 4508TIP3    H135015   5.964   4.465  14.380 -0.8866 -1.3450 -1.0611
 4508TIP3    H235016   6.031   4.351  14.453 -0.0068 -0.2789 -0.1460
 4509TIP3   OH235017   4.875   0.873   2.810 -0.8667  0.0779 -0.4232
 4509TIP3    H135018   4.942   0.935   2.839  0.6295 -1.7077  0.1313
 4509TIP3    H235019   4.874   0.881   2.715 -0.9692  1.1907 -0.3413
 4510TIP3   OH235020   5.311   1.925   0.049  0.1543  0.3661  0.1516
 4510TIP3    H135021   5.373   1.864   0.010 -0.7926 -0.7326  0.3009
 4510TIP3    H235022   5.226   1.898   0.015 -0.3401  1.3569  0.5421
 4511TIP3   OH235023   5.292   2.592   6.070 -0.4118 -0.3551 -0.1192
 4511TIP3    H135024   5.271   2.524   6.133 -1.3392  0.6033  0.6433
 4511TIP3    H235025   5.387   2.598   6.071 -0.4122 -0.2500  1.3203
 4512TIP3   OH235026   3.048   5.372  15.068 -0.4385  0.5739  0.0453
 4512TIP3    H135027   3.118   5.312  15.093  0.2324  1.6566  0.8865
 4512TIP3    H235028   2.968   5.331  15.101  0.1635  0.7695  1.8551
 4513TIP3   OH235029   0.266   2.434   1.418 -0.1943  0.0223 -0.7610
 4513TIP3    H135030   0.295   2.501   1.480  1.1868  0.3133 -1.6773
 4513TIP3    H235031   0.212   2.482   1.355  1.7287  0.5600 -2.0769
 4514TIP3   OH235032   3.089   5.612   1.753 -0.2335  0.5585  0.2498
 4514TIP3    H135033   3.151   5.541   1.767  0.6988  1.2364 -0.3012
 4514TIP3    H235034   3.024   5.576   1.694  0.4956  0.3010 -0.4106
 4515TIP3   OH235035   2.192   3.663  11.956  0.2368  0.2845  0.1085
 4515TIP3    H135036   2.176   3.656  11.862  0.1342  0.3572  0.1202
 4515TIP3    H235037   2.125   3.724  11.987 -0.5195 -0.6758  0.4287
 4516TIP3   OH235038   2.127   1.804   1.167 -0.3033 -0.3636 -0.2485
 4516TIP3    H135039   2.046   1.803   1.116 -0.7384 -0.2681  0.4330
 4516TIP3    H235040   2.103   1.846   1.249  0.7131  0.7497 -0.4967
 4517TIP3   OH235041   5.155   6.718  15.891 -0.1727  0.6474 -0.2369
 4517TIP3    H135042   5.209   6.794  15.872  1.1282  0.0706  0.9545
 4517TIP3    H235043   5.207   6.666  15.952 -3.2056  1.4657  3.4871
 4518TIP3   OH235044   5.262   3.364  14.626 -0.4651  0.0312  0.3598
 4518TIP3    H135045   5.216   3.448  14.626 -0.5118  0.0053  0.2393
 4518TIP3    H235046   5.205   3.305  14.576 -0.7172 -0.2216  0.9273
 4519TIP3   OH235047   0.944   6.423   0.883 -0.0652  0.0198 -0.3430
 4519TIP3    H135048   0.947   6.447   0.976 -2.5357 -2.2796  0.4664
 4519TIP3    H235049   0.935   6.506   0.837  0.3763  1.1690  1.5063
 4520TIP3   OH235050   3.992   3.854   3.072  0.5218 -0.2950 -0.0234
 4520TIP3    H135051   3.969   3.788   3.138  0.6875 -1.6851 -1.3163
 4520TIP3    H235052   3.907   3.881   3.036  0.4997 -0.3422 -0.0073
 4521TIP3   OH235053   5.618   4.476  17.376  0.1255 -0.5773 -0.4830
 4521TIP3    H135054   5.708   4.456  17.347  0.8728 -1.3516  2.1376
 4521TIP3    H235055   5.563   4.419  17.323  1.3525 -1.5254 -0.8055
 4522TIP3   OH235056   2.510   2.179   2.891  0.0002  0.3555 -0.1291
 4522TIP3    H135057   2.602   2.156   2.905  0.1593 -0.0316 -1.5987
 4522TIP3    H235058   2.478   2.203   2.978  1.5182  0.6281  0.3949
 4523TIP3   OH235059   4.233   5.411  15.070  0.4510 -0.3598  0.9739
 4523TIP3    H135060   4.280   5.431  14.989  0.1140 -0.0022  0.8657
 4523TIP3    H235061   4.164   5.350  15.044  1.6046 -1.9124  1.3355
 4524TIP3   OH235062   5.903   3.663  14.987 -0.4417 -0.6744  0.3810
 4524TIP3    H135063   5.813   3.694  15.001  0.3137  0.8194  2.4248
 4524TIP3    H235064   5.906   3.577  15.029 -1.2500 -1.3966 -0.9695
 4525TIP3   OH235065   2.810   3.318  14.641 -0.1124 -0.2904  0.2803
 4525TIP3    H135066   2.760   3.278  14.570  1.6873 -1.8494 -0.1787
 4525TIP3    H235067   2.798   3.258  14.715  0.8816 -0.5531  0.2313
 4526TIP3   OH235068   4.299   5.137  11.472 -0.1101 -0.1844 -0.2439
 4526TIP3    H135069   4.243   5.069  11.435  0.5116 -0.3585 -0.8914
 4526TIP3    H235070   4.313   5.199  11.400  1.8872 -1.0201 -0.6431
 4527TIP3   OH235071   2.467   2.527  10.983  0.1271 -0.1332  0.1368
 4527TIP3    H135072   2.548   2.568  11.013  0.0593  0.5543 -0.6033
 4527TIP3    H235073   2.405   2.599  10.975 -0.3290 -0.5438 -0.0742
 4528TIP3   OH235074   3.447   5.992  10.561 -0.4054  0.5146  0.4862
 4528TIP3    H135075   3.524   6.011  10.614  1.1544  0.2143 -1.5686
 4528TIP3    H235076   3.434   5.897  10.571  0.0046  0.4252  0.1690
 4529TIP3   OH235077   1.531   2.397   4.467  0.0804 -0.3674 -0.0497
 4529TIP3    H135078   1.582   2.399   4.386 -1.7312 -0.6075 -1.2639
 4529TIP3    H235079   1.466   2.467   4.455  0.3421  0.1896  1.6094
 4530TIP3   OH235080   2.217   0.432   2.200 -0.0457  0.2162 -0.3257
 4530TIP3    H135081   2.131   0.473   2.194 -0.6082 -0.3421  2.5640
 4530TIP3    H235082   2.263   0.484   2.266  0.8062 -1.1551  0.1877
 4531TIP3   OH235083   6.129   3.457  12.012 -0.6322  0.4277  0.0513
 4531TIP3    H135084   6.180   3.379  12.036 -0.5492  0.5063  0.1329
 4531TIP3    H235085   6.176   3.495  11.938  0.2526  1.3045  1.0242
 4532TIP3   OH235086   0.794   4.623  16.782 -0.4244  0.1469  0.0151
 4532TIP3    H135087   0.733   4.664  16.721  0.1104  0.8906 -0.0352
 4532TIP3    H235088   0.755   4.538  16.802 -1.4912  0.6183  0.0134
 4533TIP3   OH235089   3.184   6.270   5.804 -0.4467 -0.0633  0.0991
 4533TIP3    H135090   3.257   6.331   5.795  1.7774 -2.5059  0.4217
 4533TIP3    H235091   3.216   6.203   5.865 -1.1981 -3.5962 -3.0409
 4534TIP3   OH235092   3.535   6.315   5.676 -0.3333  0.0170  0.4170
 4534TIP3    H135093   3.508   6.240   5.729 -0.3309  0.1973  0.6696
 4534TIP3    H235094   3.604   6.280   5.619 -0.2686 -0.1497  0.5972
 4535TIP3   OH235095   4.809   6.638  16.801 -0.2559  0.2030 -0.2490
 4535TIP3    H135096   4.882   6.617  16.860 -1.2265 -0.2280  0.8483
 4535TIP3    H235097   4.732   6.606  16.847 -1.2542  1.5380 -0.9310
 4536TIP3   OH235098   6.357   2.034  11.791  0.7538 -0.0803 -0.1580
 4536TIP3    H135099   6.409   2.104  11.752  1.3252 -0.6400 -0.4196
 4536TIP3    H235100   6.281   2.079  11.828  0.8392  0.6099 -0.7919
 4537TIP3   OH235101   1.606   4.753   1.681  0.3059  0.5556  0.1292
 4537TIP3    H135102   1.561   4.790   1.757 -2.5338 -1.0549 -0.6566
 4537TIP3    H235103   1.543   4.759   1.610  2.8794  2.0685 -2.2508
 4538TIP3   OH235104   1.289   2.033  15.764  0.3558  0.2791 -0.2025
 4538TIP3    H135105   1.224   1.966  15.786 -1.2511  1.6378 -0.6601
 4538TIP3    H235106   1.352   2.028  15.836 -0.5000 -0.7532  0.5187
 4539TIP3   OH235107   3.982   2.035  15.732  0.2354 -0.3054 -0.0117
 4539TIP3    H135108   3.919   2.012  15.800 -0.1532 -2.4046 -1.0203
 4539TIP3    H235109   4.066   2.002  15.765 -0.0495 -1.8426 -0.7534
 4540TIP3   OH235110   4.984   4.351   2.878 -0.4135  0.3826  0.7513
 4540TIP3    H135111   4.920   4.418   2.898  1.6611  2.1809  1.7486
 4540TIP3    H235112   5.036   4.341   2.958  2.7500  1.6194 -0.9640
 4541TIP3   OH235113   2.229   3.774  15.389  0.1967 -0.2792  0.6447
 4541TIP3    H135114   2.252   3.837  15.457 -1.6746  0.9852  0.1791
 4541TIP3    H235115   2.254   3.689  15.425  0.8678  0.5283  2.1606
 4542TIP3   OH235116   4.136   6.009   0.332 -0.4285  0.0367 -0.2163
 4542TIP3    H135117   4.178   6.095   0.342 -1.8167  0.6070  1.2744
 4542TIP3    H235118   4.146   5.969   0.419 -0.4958 -0.9787 -0.6753
 4543TIP3   OH235119   5.107   2.747  12.783 -0.2947 -0.1098 -0.2668
 4543TIP3    H135120   5.180   2.778  12.837  0.4460 -1.0346 -0.7056
 4543TIP3    H235121   5.029   2.780  12.827  0.4106  1.9189 -0.4373
 4544TIP3   OH235122   0.439   2.844   3.262  0.4371  0.1948  0.2071
 4544TIP3    H135123   0.515   2.885   3.223  1.2756  0.1055  1.6663
 4544TIP3    H235124   0.451   2.750   3.247  0.8768  0.1422  0.8539
 4545TIP3   OH235125   2.304   4.339   5.092  0.0510  0.1760  0.2074
 4545TIP3    H135126   2.259   4.337   5.177 -1.9807  1.9006 -0.7409
 4545TIP3    H235127   2.267   4.267   5.043 -2.3814  1.9896 -0.8110
 4546TIP3   OH235128   4.975   6.093  15.677  0.3201  0.2715  0.4316
 4546TIP3    H135129   5.070   6.096  15.686  0.3759  1.0331 -0.2465
 4546TIP3    H235130   4.949   6.185  15.673 -0.3347  0.0680 -0.3995
 4547TIP3   OH235131   0.475   1.789   1.889  0.4188 -0.1150 -0.3181
 4547TIP3    H135132   0.420   1.758   1.817  0.1894 -0.1016 -0.1490
 4547TIP3    H235133   0.563   1.795   1.851  0.1959  0.4337 -0.7500
 4548TIP3   OH235134   0.577   5.057   0.953 -0.1126 -0.4839  0.1365
 4548TIP3    H135135   0.582   5.065   1.048 -0.8727  0.5567  0.0985
 4548TIP3    H235136   0.663   5.024   0.928 -0.5519 -2.7995  1.3643
 4549TIP3   OH235137   3.253   4.442   3.255 -0.6568  0.5269 -0.5002
 4549TIP3    H135138   3.341   4.415   3.227  0.3435  1.4258  1.5559
 4549TIP3    H235139   3.196   4.413   3.184  0.7233 -3.6036 -0.2297
 4550TIP3   OH235140   1.417   1.802  15.980  0.6474  0.0373  0.4271
 4550TIP3    H135141   1.443   1.883  16.023 -0.3420  0.6308 -0.0384
 4550TIP3    H235142   1.341   1.771  16.030  1.3610 -0.9144  0.9447
 4551TIP3   OH235143   0.203   2.972  11.818  0.2344  0.2115  0.2694
 4551TIP3    H135144   0.240   3.016  11.741 -0.8847  1.3856  0.3664
 4551TIP3    H235145   0.270   2.909  11.844  1.6811  1.4687 -0.2350
 4552TIP3   OH235146   3.879   2.074   2.083 -0.0741  0.1277 -0.1714
 4552TIP3    H135147   3.857   1.981   2.087  0.7463 -0.0411  1.9086
 4552TIP3    H235148   3.948   2.084   2.149 -0.8881  2.4083  0.4119
 4553TIP3   OH235149   2.745   2.005  16.429 -0.1630  0.0211 -0.1426
 4553TIP3    H135150   2.725   2.042  16.515  1.5042 -1.1583  0.8145
 4553TIP3    H235151   2.679   1.938  16.415  0.3874 -0.7758  0.9184
 4554TIP3   OH235152   2.738   2.565  14.502 -0.2502 -0.3591 -0.1055
 4554TIP3    H135153   2.713   2.472  14.504 -1.1287 -0.1246  1.1118
 4554TIP3    H235154   2.698   2.598  14.422 -0.9429 -0.7840  0.0510
 4555TIP3   OH235155   4.193   6.746   0.180  0.0483 -0.8369  0.0597
 4555TIP3    H135156   4.284   6.764   0.159 -0.0359 -0.4701  0.0042
 4555TIP3    H235157   4.197   6.685   0.254  0.3362 -0.7885  0.0847
 4556TIP3   OH235158   1.319   4.840  10.938  0.1631  0.3003  0.1879
 4556TIP3    H135159   1.267   4.769  10.900 -1.9505  0.9536  1.7238
 4556TIP3    H235160   1.256   4.910  10.955  1.1924  0.5841  3.5134
 4557TIP3   OH235161   2.361   0.935  13.296  0.3254  0.4008  0.5211
 4557TIP3    H135162   2.427   0.881  13.252 -0.4488  1.1809 -1.7460
 4557TIP3    H235163   2.400   1.023  13.297 -0.2623  0.6683  0.0855
 4558TIP3   OH235164   6.724   3.245   4.778 -0.4813  0.2621  0.0155
 4558TIP3    H135165   6.812   3.280   4.788 -1.1317  1.5419  1.9358
 4558TIP3    H235166   6.716   3.181   4.849 -1.1733  0.3472  0.0196
 4559TIP3   OH235167   2.970   5.753  12.166  0.4733 -0.4865 -0.1953
 4559TIP3    H135168   3.037   5.712  12.112 -0.5248 -1.1238 -0.9836
 4559TIP3    H235169   2.942   5.684  12.226 -0.5842 -0.7411 -0.9405
 4560TIP3   OH235170   2.878   2.443   5.081 -0.3506  0.3435 -0.2395
 4560TIP3    H135171   2.871   2.522   5.028  0.7650  1.6339  1.4285
 4560TIP3    H235172   2.964   2.407   5.059  0.2426  1.0474  0.8653
 4561TIP3   OH235173   5.739   0.582   0.398 -0.3243 -0.0580 -0.1272
 4561TIP3    H135174   5.768   0.668   0.367  0.5953 -0.0360  0.7364
 4561TIP3    H235175   5.804   0.521   0.363 -0.3689 -0.2679  0.1557
 4562TIP3   OH235176   2.295   0.390  15.230  0.2137 -0.0320  0.3790
 4562TIP3    H135177   2.308   0.484  15.243  2.4252 -0.1766 -0.3115
 4562TIP3    H235178   2.383   0.355  15.220 -0.2979 -2.6911  3.5762
 4563TIP3   OH235179   4.885   2.553   0.311 -1.0791 -0.0864  0.0804
 4563TIP3    H135180   4.899   2.478   0.254  1.5390  1.3980 -1.4393
 4563TIP3    H235181   4.954   2.545   0.378 -0.0056  1.4852 -0.7784
 4564TIP3   OH235182   1.451   1.292  14.249  0.3669  0.1890 -0.2440
 4564TIP3    H135183   1.459   1.346  14.171  1.4194 -0.4808 -0.6251
 4564TIP3    H235184   1.455   1.353  14.322 -1.9572  0.9783 -0.6966
 4565TIP3   OH235185   1.737   1.030  17.282  0.2807 -0.1940 -0.3265
 4565TIP3    H135186   1.688   0.948  17.274 -0.7057  0.4712 -1.3768
 4565TIP3    H235187   1.776   1.043  17.196  0.7881  0.2206 -0.0382
 4566TIP3   OH235188   4.191   0.544  12.769 -0.4424 -0.4597 -0.0696
 4566TIP3    H135189   4.213   0.637  12.762  2.2963 -1.0849 -1.0018
 4566TIP3    H235190   4.136   0.526  12.693 -0.2664  0.2225 -0.3653
 4567TIP3   OH235191   3.854   0.868  15.170 -0.0475 -0.4917  0.2148
 4567TIP3    H135192   3.828   0.941  15.225  0.0635  1.0980 -1.7349
 4567TIP3    H235193   3.903   0.810  15.228 -3.2207 -0.9414  2.7305
 4568TIP3   OH235194   5.698   6.716  14.485  0.2625 -0.6881 -0.6902
 4568TIP3    H135195   5.689   6.727  14.580 -0.8762 -1.0489 -0.7517
 4568TIP3    H235196   5.611   6.731  14.450  0.9568  0.9152 -1.8504
 4569TIP3   OH235197   2.978   2.622  16.356 -0.2996  0.1329  0.1590
 4569TIP3    H135198   2.901   2.602  16.304  0.9026 -1.0026 -1.2784
 4569TIP3    H235199   2.984   2.718  16.354 -1.5211  0.2198  0.1001
 4570TIP3   OH235200   5.094   6.119   2.627  1.0087  0.0995  0.0447
 4570TIP3    H135201   5.166   6.133   2.689  1.3067 -0.7448 -0.0911
 4570TIP3    H235202   5.090   6.200   2.577  1.4322  0.4086  0.4916
 4571TIP3   OH235203   0.287   5.076  13.747  0.3843  0.3790  0.0093
 4571TIP3    H135204   0.194   5.065  13.765  0.5902 -0.8614  0.4597
 4571TIP3    H235205   0.306   5.010  13.679  1.3577 -0.9525  1.5020
 4572TIP3   OH235206   1.667   6.171  16.345 -0.4260  0.4313 -0.1411
 4572TIP3    H135207   1.593   6.220  16.383  0.5229  0.7551  1.3876
 4572TIP3    H235208   1.684   6.101  16.408  0.5571  0.3611 -0.4671
 4573TIP3   OH235209   2.526   2.819   1.587 -0.1456  0.2090 -0.1147
 4573TIP3    H135210   2.570   2.775   1.514  2.1742  2.8401 -0.4799
 4573TIP3    H235211   2.573   2.789   1.665  0.7417  1.1658 -0.2603
 4574TIP3   OH235212   0.221   6.274   2.806 -0.0130 -0.1195 -0.4771
 4574TIP3    H135213   0.255   6.217   2.738 -0.2810  0.0161 -0.7279
 4574TIP3    H235214   0.155   6.221   2.851  0.1701 -0.2121 -0.3132
 4575TIP3   OH235215   4.797   2.779   0.867  0.0695  0.0297 -0.4216
 4575TIP3    H135216   4.787   2.847   0.934  0.2348 -2.0904  1.9198
 4575TIP3    H235217   4.892   2.764   0.862 -0.0466 -1.0709  0.2764
 4576TIP3   OH235218   2.819   3.197  15.973 -0.0581 -0.1669 -0.2527
 4576TIP3    H135219   2.768   3.179  16.052 -0.8560  0.9342 -0.5022
 4576TIP3    H235220   2.757   3.236  15.912  0.5875 -0.8264 -1.3753
 4577TIP3   OH235221   3.808   4.763  15.811 -0.2331  0.5759 -0.2896
 4577TIP3    H135222   3.847   4.679  15.786 -0.8048 -0.4967  2.1613
 4577TIP3    H235223   3.743   4.780  15.742  0.2653 -0.7276 -1.1119
 4578TIP3   OH235224   4.541   2.913   0.325 -0.2887  0.0563 -0.0843
 4578TIP3    H135225   4.455   2.884   0.355  0.3320 -0.3207  1.4628
 4578TIP3    H235226   4.535   2.913   0.230 -1.5257 -1.4620 -0.0487
 4579TIP3   OH235227   5.360   1.899   0.854  0.7738 -0.3089 -0.3457
 4579TIP3    H135228   5.417   1.878   0.929  0.4323  0.6814  0.2133
 4579TIP3    H235229   5.389   1.840   0.785  1.9820 -0.3458  0.1587
 4580TIP3   OH235230   3.228   3.541   0.417  0.2673 -0.4470 -0.2127
 4580TIP3    H135231   3.161   3.587   0.366 -1.8005  0.1378  2.7199
 4580TIP3    H235232   3.204   3.448   0.410 -1.4929 -0.1905  1.4251
 4581TIP3   OH235233   1.043   0.529  15.794  0.0578 -0.2888  0.3475
 4581TIP3    H135234   1.132   0.565  15.788 -0.0590 -0.1327 -0.4871
 4581TIP3    H235235   1.007   0.568  15.874  1.1366 -1.2547  1.3550
 4582TIP3   OH235236   6.183   5.971   4.693  0.1916 -0.5864 -0.1259
 4582TIP3    H135237   6.191   5.918   4.772  0.7035 -1.5085 -0.7706
 4582TIP3    H235238   6.114   5.929   4.642 -0.5841  0.3770  0.1009
 4583TIP3   OH235239   2.785   0.428   4.618  0.4380  0.4289  0.2083
 4583TIP3    H135240   2.874   0.444   4.587  0.9064 -0.1334  1.2210
 4583TIP3    H235241   2.751   0.516   4.636  0.5678  0.6885 -0.7090
 4584TIP3   OH235242   2.945   2.457   3.644  0.2674  0.7078 -0.0302
 4584TIP3    H135243   3.003   2.388   3.610 -0.2900 -0.0549  0.5222
 4584TIP3    H235244   2.942   2.440   3.739 -2.8870 -0.9190 -0.2934
 4585TIP3   OH235245   0.269   3.363  15.184  0.3077 -0.3447  0.0397
 4585TIP3    H135246   0.339   3.388  15.124 -1.5986  0.1808 -2.1088
 4585TIP3    H235247   0.260   3.268  15.173  0.5082 -0.3773  0.1454
 4586TIP3   OH235248   3.137   4.735   4.863 -0.3463 -0.5797  0.3248
 4586TIP3    H135249   3.096   4.801   4.919 -0.5303 -0.7510  0.3923
 4586TIP3    H235250   3.116   4.652   4.904  0.7365 -0.6364  0.7908
 4587TIP3   OH235251   3.582   4.389  14.333  0.0091  0.1669 -0.1703
 4587TIP3    H135252   3.650   4.382  14.401  0.9857  2.4542 -0.8335
 4587TIP3    H235253   3.525   4.314  14.350  1.8428 -1.0014  1.3533
 4588TIP3   OH235254   1.470   5.497   0.755 -0.2126 -0.0428 -0.0993
 4588TIP3    H135255   1.404   5.446   0.710 -0.2743  0.2331 -0.3198
 4588TIP3    H235256   1.470   5.582   0.711  0.6315 -0.2009 -0.4251
 4589TIP3   OH235257   4.851   4.315   0.506 -0.1788 -0.1544 -0.0256
 4589TIP3    H135258   4.844   4.342   0.598 -0.6128 -0.4728  0.0372
 4589TIP3    H235259   4.879   4.223   0.511 -0.7425 -0.3368 -0.2021
 4590TIP3   OH235260   4.212   4.843  14.027 -0.3303  0.3941 -0.4349
 4590TIP3    H135261   4.163   4.774  14.071  1.7062 -0.8069  0.0916
 4590TIP3    H235262   4.201   4.920  14.083 -0.6172 -0.1827  0.3121
 4591TIP3   OH235263   4.148   6.108  17.383 -0.3732 -0.3096  0.6617
 4591TIP3    H135264   4.200   6.138  17.309  1.6261  0.3861  2.2610
 4591TIP3    H235265   4.193   6.029  17.413 -1.5306 -0.9455  0.7791
 4592TIP3   OH235266   4.873   2.815  15.419 -0.0269 -0.4118  0.2412
 4592TIP3    H135267   4.853   2.902  15.384 -0.0862 -1.3806 -2.2975
 4592TIP3    H235268   4.966   2.819  15.440 -0.1703  0.4386  0.8047
 4593TIP3   OH235269   4.583   6.583   3.749  0.4960 -0.4604  0.0297
 4593TIP3    H135270   4.644   6.657   3.747  1.0692 -0.7581  2.8642
 4593TIP3    H235271   4.567   6.563   3.656  0.9623  2.6513 -0.8519
 4594TIP3   OH235272   6.741   0.002  11.623  0.2276 -0.7567 -0.4618
 4594TIP3    H135273   6.691   0.043  11.693  1.3176 -0.4879  0.1949
 4594TIP3    H235274   6.774   0.076  11.571 -0.8968 -0.9697 -1.5032
 4595TIP3   OH235275   3.925   2.898   0.357 -0.1254  0.3567  0.0251
 4595TIP3    H135276   3.871   2.889   0.436 -0.2234 -0.0946 -0.0886
 4595TIP3    H235277   3.993   2.831   0.367 -1.5509 -1.4312 -1.4026
 4596TIP3   OH235278   1.156   4.397  15.220  0.0155  0.4682  0.6154
 4596TIP3    H135279   1.203   4.480  15.215 -0.0972  0.7520  3.0558
 4596TIP3    H235280   1.220   4.335  15.254 -0.2290 -0.1880 -0.0913
 4597TIP3   OH235281   0.490   1.054  12.984 -0.3671 -0.2679  0.3081
 4597TIP3    H135282   0.556   1.122  12.999  0.3767 -0.7406 -0.7155
 4597TIP3    H235283   0.432   1.061  13.060 -0.3910  1.5712  0.1762
 4598TIP3   OH235284   1.365   3.076   0.683  0.5034 -0.0282 -0.5929
 4598TIP3    H135285   1.320   3.012   0.627  1.0472 -0.5219 -0.4782
 4598TIP3    H235286   1.422   3.023   0.739  0.4138  0.5057  0.0174
 4599TIP3   OH235287   5.666   3.773   5.214 -0.2037 -0.3184 -0.6657
 4599TIP3    H135288   5.751   3.778   5.259 -0.6768 -1.4834  0.4094
 4599TIP3    H235289   5.644   3.864   5.195 -0.6495  0.4430  2.8313
 4600TIP3   OH235290   0.447   4.636   1.761 -0.6583  0.2564  0.6981
 4600TIP3    H135291   0.487   4.680   1.835 -4.0354 -1.1670  3.6994
 4600TIP3    H235292   0.376   4.694   1.733 -1.5093 -0.6617  0.8681
 4601TIP3   OH235293   3.202   2.169  10.872 -0.5873  0.1326 -0.0846
 4601TIP3    H135294   3.137   2.199  10.935 -0.1767  0.4310  0.2019
 4601TIP3    H235295   3.270   2.128  10.924 -0.7984 -0.6757 -0.4251
 4602TIP3   OH235296   1.186   1.367  11.378 -0.1798  0.3315  0.3444
 4602TIP3    H135297   1.268   1.415  11.393  1.8425 -2.1734 -1.5825
 4602TIP3    H235298   1.142   1.416  11.309  0.6465  0.7446  0.0876
 4603TIP3   OH235299   0.493   4.941  13.098 -0.1564  0.1785  0.4665
 4603TIP3    H135300   0.482   4.940  13.003 -2.5372  0.7103  0.6718
 4603TIP3    H235301   0.425   5.001  13.129 -0.5420 -1.2488  2.6226
 4604TIP3   OH235302   0.177   2.339  16.185  0.6529 -0.4715  0.6896
 4604TIP3    H135303   0.133   2.384  16.113  0.4959 -0.3577  0.8549
 4604TIP3    H235304   0.142   2.250  16.183  0.2950 -0.3397  0.9163
 4605TIP3   OH235305   2.365   4.742  13.678  0.5039  0.2787 -0.3418
 4605TIP3    H135306   2.396   4.824  13.637 -0.1512  0.3029 -0.8150
 4605TIP3    H235307   2.422   4.674  13.642  1.1875  0.5526  0.2150
 4606TIP3   OH235308   0.975   5.976   2.637  0.1414  0.0139 -0.1929
 4606TIP3    H135309   1.001   5.911   2.572 -0.3613  0.7963 -1.1893
 4606TIP3    H235310   1.057   6.009   2.672  0.5678  1.7515 -2.6020
 4607TIP3   OH235311   6.140   3.561   2.863 -0.9095 -0.4695  0.3313
 4607TIP3    H135312   6.156   3.589   2.773 -2.1679 -1.5706 -0.2761
 4607TIP3    H235313   6.112   3.641   2.908  0.6112  0.2810  0.0044
 4608TIP3   OH235314   4.535   3.561  14.662 -0.3633 -0.0662 -0.4751
 4608TIP3    H135315   4.502   3.550  14.751 -1.4379 -2.2100 -1.0840
 4608TIP3    H235316   4.630   3.559  14.672 -0.4553 -2.2658  0.4622
 4609TIP3   OH235317   2.866   1.176   0.275 -0.2128  0.4326  0.7084
 4609TIP3    H135318   2.821   1.191   0.357 -1.3280  0.5590  0.0939
 4609TIP3    H235319   2.798   1.184   0.208  0.7873  1.0055 -0.2872
 4610TIP3   OH235320   6.529   1.441   0.544  0.0535  0.9605  0.5041
 4610TIP3    H135321   6.528   1.516   0.604 -4.5183  2.9905 -1.6477
 4610TIP3    H235322   6.498   1.368   0.598 -1.5180  2.1472  1.3074
 4611TIP3   OH235323   4.294   2.067   1.801 -0.0813  0.4164  0.0837
 4611TIP3    H135324   4.239   2.018   1.862 -0.4896  1.5351  0.6503
 4611TIP3    H235325   4.382   2.058   1.836 -0.2991  0.9617  0.7904
 4612TIP3   OH235326   4.292   0.752   5.508  0.0010  0.5604  0.4235
 4612TIP3    H135327   4.371   0.804   5.518 -1.6198  3.1557  0.7322
 4612TIP3    H235328   4.235   0.780   5.580 -1.9321  0.2698 -0.9086
 4613TIP3   OH235329   0.307   0.693   0.384  0.3805  0.0171 -0.3672
 4613TIP3    H135330   0.380   0.632   0.380 -0.6853 -1.2707 -1.2989
 4613TIP3    H235331   0.266   0.675   0.469 -0.5908 -1.4339 -1.0964
 4614TIP3   OH235332   4.967   4.610  12.726 -0.6467 -0.4474 -0.2628
 4614TIP3    H135333   4.969   4.516  12.746  0.7721 -0.3738  0.0837
 4614TIP3    H235334   5.045   4.625  12.672 -0.9959  0.4946 -0.5359
 4615TIP3   OH235335   5.051   6.107   4.843 -0.0224 -0.2009  0.0492
 4615TIP3    H135336   5.132   6.156   4.827  0.1542 -1.0070 -1.8672
 4615TIP3    H235337   5.080   6.024   4.880  0.0789 -0.5930 -0.8792
 4616TIP3   OH235338   6.663   3.443  12.298  0.2059 -0.1132  0.1103
 4616TIP3    H135339   6.579   3.438  12.254 -0.0945 -2.0955  0.7766
 4616TIP3    H235340   6.678   3.354  12.331  2.0404  0.4506  0.9635
 4617TIP3   OH235341   4.000   2.294  16.331  0.3180 -0.0363  0.0038
 4617TIP3    H135342   3.962   2.372  16.372  1.6897 -0.4114  2.1573
 4617TIP3    H235343   3.987   2.307  16.237 -1.2783  1.8107  0.4181
 4618TIP3   OH235344   1.465   2.830   6.082 -0.7516  0.1987 -0.2112
 4618TIP3    H135345   1.553   2.865   6.067 -0.7475  0.5254  0.5359
 4618TIP3    H235346   1.447   2.777   6.004  0.3372 -0.3380 -0.1147
 4619TIP3   OH235347   3.559   1.440   3.493 -0.5435  0.0869 -0.1183
 4619TIP3    H135348   3.592   1.362   3.537 -0.2004  1.0616  1.4304
 4619TIP3    H235349   3.545   1.503   3.563 -2.6209  0.8147 -1.1015
 4620TIP3   OH235350   5.119   2.559   3.547 -0.0036 -0.3667  0.5796
 4620TIP3    H135351   5.099   2.521   3.632 -0.4046  0.4153  0.8453
 4620TIP3    H235352   5.038   2.601   3.519  0.2917 -0.1151  0.0749
 4621TIP3   OH235353   3.140   3.976  10.793 -0.1866  0.0523  0.0621
 4621TIP3    H135354   3.112   4.037  10.861  3.6185  0.1698  1.7796
 4621TIP3    H235355   3.105   4.012  10.712  0.0332  3.3124  1.2736
 4622TIP3   OH235356   5.561   2.963   0.188 -0.4644 -0.1179  0.1686
 4622TIP3    H135357   5.638   3.020   0.183 -0.0009 -0.5692  1.5922
 4622TIP3    H235358   5.596   2.878   0.217 -1.0942 -1.2754 -2.1809
 4623TIP3   OH235359   2.150   4.055  16.497  0.5290  0.4845 -0.2363
 4623TIP3    H135360   2.207   4.131  16.508  0.3601  0.6228 -0.3246
 4623TIP3    H235361   2.186   4.009  16.420  2.0692 -0.7956  1.1585
 4624TIP3   OH235362   5.145   6.559   0.587  0.3041 -0.1791  0.2070
 4624TIP3    H135363   5.217   6.592   0.641 -0.6195  1.5424  0.4700
 4624TIP3    H235364   5.067   6.602   0.623 -1.0946 -2.9132  0.7486
 4625TIP3   OH235365   6.019   0.940  15.850 -0.1415 -0.3679 -0.8053
 4625TIP3    H135366   6.040   0.852  15.818 -0.7200 -0.2254 -1.6213
 4625TIP3    H235367   5.923   0.941  15.855 -0.0856 -0.2243  0.5122
 4626TIP3   OH235368   1.534   0.673   0.157  0.0819 -0.0399  0.5345
 4626TIP3    H135369   1.468   0.741   0.153  1.0931  0.9161 -1.2988
 4626TIP3    H235370   1.497   0.600   0.107 -0.1949 -0.0901  0.8110
 4627TIP3   OH235371   5.244   2.829  11.110  1.0852  0.4752  0.1117
 4627TIP3    H135372   5.321   2.882  11.090  1.0221  0.5079 -0.0418
 4627TIP3    H235373   5.171   2.874  11.068  1.0317  0.2658 -0.0212
 4628TIP3   OH235374   0.118   5.349   0.060  0.4416 -0.0519  0.0638
 4628TIP3    H135375   0.197   5.398   0.084 -0.2577  0.8604  0.5414
 4628TIP3    H235376   0.046   5.402   0.093 -0.4021 -0.6119 -0.8420
 4629TIP3   OH235377   0.333   2.515  14.264 -0.1819  0.2615 -0.3755
 4629TIP3    H135378   0.395   2.588  14.263  0.4891 -0.2489  1.1541
 4629TIP3    H235379   0.249   2.555  14.286 -0.2159  0.8073 -1.4122
 4630TIP3   OH235380   0.118   0.976  14.606 -0.3306 -0.0461  0.1581
 4630TIP3    H135381   0.115   1.026  14.688 -0.1151 -1.1141  0.8285
 4630TIP3    H235382   0.142   0.888  14.633  1.2400 -0.0726 -1.2179
 4631TIP3   OH235383   5.952   4.704  17.349 -0.1762  0.4265  0.1465
 4631TIP3    H135384   5.939   4.620  17.392  0.0632 -0.2544 -1.0447
 4631TIP3    H235385   5.877   4.757  17.375 -0.0163  0.0586  1.4002
 4632TIP3   OH235386   1.127   5.781  13.585 -0.1092 -0.3387 -0.5378
 4632TIP3    H135387   1.161   5.705  13.536 -0.3713  0.0873 -1.4129
 4632TIP3    H235388   1.190   5.794  13.656  0.8287 -0.3894 -1.3311
 4633TIP3   OH235389   1.637   2.552   4.688 -0.0869 -0.4413 -0.5690
 4633TIP3    H135390   1.551   2.582   4.718 -0.4032 -1.5219 -0.3738
 4633TIP3    H235391   1.618   2.490   4.618  0.5753 -0.0225 -1.1383
 4634TIP3   OH235392   3.991   3.949   3.406  0.5141 -0.6111  0.4333
 4634TIP3    H135393   3.913   3.988   3.367 -0.1768 -0.7981  1.6090
 4634TIP3    H235394   4.047   3.929   3.331 -0.3839 -0.1113 -0.3972
 4635TIP3   OH235395   5.345   3.084   4.923 -0.6338  0.1033 -0.2438
 4635TIP3    H135396   5.270   3.094   4.864 -0.6149 -0.5916 -0.3944
 4635TIP3    H235397   5.391   3.006   4.890 -0.0447  0.3210  0.0615
 4636TIP3   OH235398   3.648   4.809   3.561 -0.1093  1.0668 -0.4227
 4636TIP3    H135399   3.704   4.768   3.627 -0.1862  1.1889 -0.2820
 4636TIP3    H235400   3.608   4.736   3.514  0.9130  0.9537 -1.1674
 4637TIP3   OH235401   0.044   6.498   4.142  0.1770  0.3534 -0.1207
 4637TIP3    H135402   0.129   6.456   4.150 -0.0810 -0.1740 -0.1047
 4637TIP3    H235403   0.039   6.524   4.050  0.1330 -0.1104 -0.2532
 4638TIP3   OH235404   3.844   5.634   5.268 -0.0971 -0.4711  0.1975
 4638TIP3    H135405   3.863   5.592   5.351  0.2491  0.4728  0.6089
 4638TIP3    H235406   3.849   5.728   5.287 -2.3223 -0.1974 -0.3398
 4639TIP3   OH235407   6.687   1.200  11.987 -0.0454 -0.8982 -0.1254
 4639TIP3    H135408   6.672   1.112  12.021 -0.6603 -1.0385 -0.7397
 4639TIP3    H235409   6.770   1.194  11.939  0.2759 -0.9604  0.4304
 4640TIP3   OH235410   1.936   2.252  14.530  0.3568 -0.5787 -0.1697
 4640TIP3    H135411   1.901   2.191  14.465  1.9641 -0.6076 -1.0481
 4640TIP3    H235412   2.026   2.222  14.545  0.4352  0.2171  1.1117
 4641TIP3   OH235413   3.885   6.412   1.116 -0.0189 -0.5808 -0.7749
 4641TIP3    H135414   3.967   6.426   1.164  0.3038 -2.2929 -0.7664
 4641TIP3    H235415   3.894   6.465   1.037  1.5044 -1.4022 -1.1986
 4642TIP3   OH235416   4.940   0.397  13.044 -0.0398  1.0127  0.2494
 4642TIP3    H135417   5.005   0.328  13.054 -1.4145 -0.2945  0.7063
 4642TIP3    H235418   4.987   0.478  13.061  1.2328  0.0369  1.5953
 4643TIP3   OH235419   6.405   5.454  13.525  0.3919 -0.0260  0.5313
 4643TIP3    H135420   6.340   5.477  13.591  2.0981  1.6295  1.7600
 4643TIP3    H235421   6.391   5.361  13.509 -1.6032  0.0528  1.4530
 4644TIP3   OH235422   2.008   5.883  17.319  0.1602 -0.4312  0.1948
 4644TIP3    H135423   1.928   5.847  17.356 -1.8957  3.9227  0.6792
 4644TIP3    H235424   2.000   5.869  17.225 -1.6300  0.5834  0.1567
 4645TIP3   OH235425   6.279   0.645  12.871 -0.1423  0.0429 -0.1524
 4645TIP3    H135426   6.256   0.622  12.781  0.6318 -0.7188 -0.1708
 4645TIP3    H235427   6.364   0.689  12.864 -0.5827  0.9671  0.1103
 4646TIP3   OH235428   0.540   2.200  16.089  0.2208  0.2101  0.0308
 4646TIP3    H135429   0.518   2.164  16.175 -0.9336  1.4595  0.3035
 4646TIP3    H235430   0.458   2.193  16.039  1.0195 -0.9877 -1.1645
 4647TIP3   OH235431   1.998   5.813  13.701  0.5232  0.2775 -1.0748
 4647TIP3    H135432   1.966   5.794  13.613 -1.9203  0.9311 -0.4042
 4647TIP3    H235433   2.053   5.738  13.724  0.1363 -0.5184 -2.6455
 4648TIP3   OH235434   5.433   4.001  14.021 -0.1248  0.4913 -0.0969
 4648TIP3    H135435   5.376   3.935  13.981  0.1982 -1.7079  2.8213
 4648TIP3    H235436   5.376   4.048  14.082  0.5416  0.0737  0.8756
 4649TIP3   OH235437   5.219   5.475  11.451  0.2928  0.2308  0.1906
 4649TIP3    H135438   5.178   5.394  11.483  1.2246 -0.6459 -0.7467
 4649TIP3    H235439   5.313   5.462  11.467  0.6722  0.2641 -1.7092
 4650TIP3   OH235440   5.227   4.739  12.681  0.4752  0.1907 -0.6414
 4650TIP3    H135441   5.316   4.706  12.669  0.5350  0.8195 -2.2546
 4650TIP3    H235442   5.229   4.782  12.766  1.7702  0.3294 -0.7152
 4651TIP3   OH235443   0.739   4.413  12.726  0.1481 -0.3040  0.4851
 4651TIP3    H135444   0.719   4.496  12.769 -0.9231  0.9545 -2.1843
 4651TIP3    H235445   0.829   4.394  12.752  0.8261  2.3166  0.3103
 4652TIP3   OH235446   1.685   1.547  16.811  0.1819 -0.6012 -0.0384
 4652TIP3    H135447   1.746   1.486  16.771  2.5789  1.8981 -0.4503
 4652TIP3    H235448   1.609   1.547  16.752  0.8611 -1.7990 -0.9630
 4653TIP3   OH235449   6.652   3.456  13.379 -0.2143  0.3932  0.2752
 4653TIP3    H135450   6.636   3.548  13.403 -0.6091  0.5414 -0.5367
 4653TIP3    H235451   6.565   3.419  13.366 -0.1561 -0.6092  2.3652
 4654TIP3   OH235452   1.632   5.941  10.961 -0.1638 -0.5774  0.2078
 4654TIP3    H135453   1.666   5.852  10.973  0.4931 -0.4518 -0.6084
 4654TIP3    H235454   1.576   5.935  10.883  0.1171 -0.2248 -0.0273
 4655TIP3   OH235455   6.739   6.671  13.783 -0.0338  0.4050 -0.5152
 4655TIP3    H135456   6.712   6.634  13.867  0.4069  0.7898 -0.1990
 4655TIP3    H235457   6.812   6.616  13.755  0.9704  1.3306  0.2119
 4656TIP3   OH235458   4.707   0.885  16.276  0.5268  0.2035  0.0160
 4656TIP3    H135459   4.696   0.930  16.191  0.0598  1.4193  0.6896
 4656TIP3    H235460   4.763   0.944  16.326  2.3258 -1.3790 -0.0413
 4657TIP3   OH235461   5.210   4.398   5.498  0.0080  0.0156 -0.0220
 4657TIP3    H135462   5.153   4.447   5.558 -1.6955 -1.8756  0.0140
 4657TIP3    H235463   5.249   4.329   5.552  0.2210 -0.3360 -0.6182
 4658TIP3   OH235464   3.040   5.436   2.508  0.3454 -0.2433  0.4775
 4658TIP3    H135465   3.056   5.459   2.417 -3.6540  1.4613 -0.0001
 4658TIP3    H235466   2.995   5.352   2.504  0.3864 -0.2893  0.9238
 4659TIP3   OH235467   4.185   2.705   2.817 -0.3499 -0.1778 -0.2011
 4659TIP3    H135468   4.138   2.788   2.810 -1.5013 -0.8723 -0.8872
 4659TIP3    H235469   4.262   2.716   2.761 -1.7239 -0.3793 -2.2118
 4660TIP3   OH235470   2.326   4.177  11.774 -0.4733 -0.3643 -0.0117
 4660TIP3    H135471   2.323   4.163  11.869 -0.6525 -0.3131 -0.0098
 4660TIP3    H235472   2.235   4.192  11.750 -0.6334 -1.8579 -0.4157
 4661TIP3   OH235473   4.675   1.310  16.562 -0.4138  0.9795  0.2737
 4661TIP3    H135474   4.679   1.220  16.594  0.9734  0.9634  0.1433
 4661TIP3    H235475   4.600   1.349  16.608  1.2118  0.8427  3.3414
 4662TIP3   OH235476   3.008   4.709  11.966 -0.1844  0.1170  0.5575
 4662TIP3    H135477   2.935   4.676  12.019 -1.5546 -1.4304 -2.1035
 4662TIP3    H235478   2.991   4.677  11.878  1.9363  2.6279 -0.9233
 4663TIP3   OH235479   4.721   4.994  12.156  0.0308 -0.1505 -0.1452
 4663TIP3    H135480   4.631   5.019  12.131  0.3121 -0.1193 -1.1841
 4663TIP3    H235481   4.717   4.983  12.251 -0.8144  0.9596 -0.0210
 4664TIP3   OH235482   5.565   1.710  11.844  0.3919  0.0030 -0.5410
 4664TIP3    H135483   5.600   1.773  11.907 -0.9684  2.0062 -1.6856
 4664TIP3    H235484   5.585   1.747  11.758  1.0055 -1.9954 -1.3328
 4665TIP3   OH235485   3.416   3.076   3.326 -0.5516 -0.5300 -0.1516
 4665TIP3    H135486   3.356   3.023   3.273 -0.7315 -0.3908 -0.0860
 4665TIP3    H235487   3.360   3.134   3.377 -0.5441 -2.4239  2.1784
 4666TIP3   OH235488   2.577   6.389  13.702  0.3640 -0.3927  0.2824
 4666TIP3    H135489   2.514   6.317  13.699  0.5720 -0.6008  0.7254
 4666TIP3    H235490   2.645   6.364  13.639 -1.0111  0.8456 -1.8373
 4667TIP3   OH235491   1.720   5.786  12.474 -0.2521  0.7929  0.5336
 4667TIP3    H135492   1.723   5.860  12.414 -2.0171 -1.1351 -2.1701
 4667TIP3    H235493   1.793   5.730  12.446 -2.0554 -0.8960 -1.0815
 4668TIP3   OH235494   3.711   2.739  11.697  0.0243  0.1313 -0.3668
 4668TIP3    H135495   3.749   2.676  11.635 -1.9181 -1.0287 -0.4659
 4668TIP3    H235496   3.624   2.757  11.663 -0.9458 -0.1978  1.7310
 4669TIP3   OH235497   3.302   3.302   5.321 -0.1327  0.0258  0.0024
 4669TIP3    H135498   3.350   3.220   5.319 -0.5288 -0.2359 -2.8571
 4669TIP3    H235499   3.369   3.370   5.316  0.0776 -0.2476 -0.9624
 4670TIP3   OH235500   3.579   1.924   0.437 -0.8262  0.3880 -0.7819
 4670TIP3    H135501   3.626   1.909   0.519 -0.5470  0.5444 -0.9093
 4670TIP3    H235502   3.621   2.002   0.401 -0.6873  0.0890 -1.2657
 4671TIP3   OH235503   3.694   2.917   5.633 -0.1821  0.4264 -0.1581
 4671TIP3    H135504   3.783   2.937   5.660 -0.3578  0.4324  0.4493
 4671TIP3    H235505   3.665   2.994   5.584  0.0528  0.5404 -0.1154
 4672TIP3   OH235506   3.496   5.429   0.022  0.1624 -0.0335  0.4354
 4672TIP3    H135507   3.461   5.392  -0.060 -1.6421  0.1642  1.0812
 4672TIP3    H235508   3.590   5.411   0.017 -0.1545 -1.6387 -0.8610
 4673TIP3   OH235509   1.002   3.212  17.026  0.5986 -0.3220  0.0935
 4673TIP3    H135510   1.007   3.140  16.962 -0.8034 -0.5004  0.1594
 4673TIP3    H235511   0.924   3.192  17.078  0.1147  1.3062  0.0346
 4674TIP3   OH235512   0.040   5.638  11.798  0.1284 -0.2522  0.6213
 4674TIP3    H135513   0.125   5.669  11.767 -0.5882 -1.6243 -3.2375
 4674TIP3    H235514  -0.015   5.716  11.796  0.8386  0.2953  1.4807
 4675TIP3   OH235515   0.915   1.311  13.964 -0.3567  0.1976 -0.4141
 4675TIP3    H135516   0.917   1.396  13.920  0.6647  0.2771 -0.2438
 4675TIP3    H235517   0.995   1.309  14.016  0.8391 -1.7901 -2.1784
 4676TIP3   OH235518   5.315   2.230  13.971  0.0498 -0.4959 -0.4618
 4676TIP3    H135519   5.381   2.161  13.979  0.7880  0.0083 -1.8230
 4676TIP3    H235520   5.300   2.239  13.876 -1.4025 -0.0516 -0.2267
 4677TIP3   OH235521   0.529   2.983   4.501 -0.1005 -0.4067 -0.3519
 4677TIP3    H135522   0.552   2.942   4.418  0.2264  0.4940 -0.7110
 4677TIP3    H235523   0.579   2.933   4.567  0.5526 -0.3799 -0.8171
 4678TIP3   OH235524   3.133   4.771   4.165 -0.4473 -0.0369  0.0429
 4678TIP3    H135525   3.079   4.838   4.122  1.9588  1.9579 -0.0940
 4678TIP3    H235526   3.217   4.774   4.119  0.6760 -1.1482  1.8857
 4679TIP3   OH235527   2.749   0.202   3.577 -0.7836 -0.2317 -0.5453
 4679TIP3    H135528   2.765   0.294   3.595  1.6278 -0.0030 -3.1645
 4679TIP3    H235529   2.750   0.160   3.664  2.3610  1.6623  0.5091
 4680TIP3   OH235530   2.982   4.641   3.305 -0.0083  0.1740  0.1534
 4680TIP3    H135531   3.023   4.611   3.225 -0.8921  1.5766 -0.8787
 4680TIP3    H235532   2.934   4.721   3.280  0.4579  1.2110  2.2537
 4681TIP3   OH235533   3.721   5.172   6.642  0.7163 -0.2022 -0.1871
 4681TIP3    H135534   3.693   5.097   6.694  1.0430 -0.7036 -0.7278
 4681TIP3    H235535   3.809   5.192   6.675 -0.1491  1.2977  1.4291
 4682TIP3   OH235536   0.041   5.935  16.964  0.1613  0.4912  0.2215
 4682TIP3    H135537   0.052   5.997  17.036  1.1163  2.1652 -1.2842
 4682TIP3    H235538  -0.025   5.976  16.907  1.4735  0.6421 -1.2619
 4683TIP3   OH235539   2.066   4.511   4.039 -0.0009 -0.1657 -0.6250
 4683TIP3    H135540   2.040   4.422   4.013 -1.4293 -0.6164  1.9433
 4683TIP3    H235541   2.068   4.561   3.957 -0.3417 -2.2752 -1.9948
 4684TIP3   OH235542   0.388   3.558  13.755  0.2040 -0.4498 -0.7326
 4684TIP3    H135543   0.335   3.509  13.818 -1.2414 -0.9148 -2.2448
 4684TIP3    H235544   0.344   3.546  13.672  1.4004  1.1261 -1.6555
 4685TIP3   OH235545   0.392   1.082   0.927 -0.1599 -0.1406  0.9088
 4685TIP3    H135546   0.435   1.161   0.894  2.1933 -1.2062  1.2305
 4685TIP3    H235547   0.354   1.108   1.011 -0.5366  0.9381  0.4225
 4686TIP3   OH235548   1.826   4.025  11.909  0.2667 -0.1477 -0.2750
 4686TIP3    H135549   1.764   3.975  11.856  0.8891 -1.3679  0.1273
 4686TIP3    H235550   1.774   4.060  11.981  0.1044 -1.4901  0.2750
 4687TIP3   OH235551   2.314   3.412   5.751  0.5961  0.7118 -0.2237
 4687TIP3    H135552   2.257   3.481   5.718  1.7030  1.4721 -0.6270
 4687TIP3    H235553   2.376   3.396   5.680 -0.2899 -1.5192 -0.5821
 4688TIP3   OH235554   3.779   6.643  11.765  0.8186 -0.3065  0.0686
 4688TIP3    H135555   3.783   6.557  11.724  0.2746 -0.6108  0.6517
 4688TIP3    H235556   3.733   6.698  11.701 -0.3575 -0.8685  0.4081
 4689TIP3   OH235557   2.313   1.583   1.602  0.5248  0.3461 -0.6441
 4689TIP3    H135558   2.226   1.589   1.642 -0.1535  0.6298 -2.0896
 4689TIP3    H235559   2.374   1.599   1.674 -0.6316  0.5996  0.3109
 4690TIP3   OH235560   0.135   2.116   1.122 -0.1599  0.2392  0.3689
 4690TIP3    H135561   0.101   2.202   1.098 -0.9419  0.3482  1.7505
 4690TIP3    H235562   0.153   2.123   1.216  0.5013 -0.8686  0.3399
 4691TIP3   OH235563   1.241   4.092  17.332 -0.7382  0.6596  0.5692
 4691TIP3    H135564   1.159   4.134  17.358 -1.4139 -0.8901  1.0563
 4691TIP3    H235565   1.235   4.003  17.368  2.2443  1.2183  2.8083
 4692TIP3   OH235566   0.775   5.927   3.273 -0.1429 -0.0739 -0.4262
 4692TIP3    H135567   0.725   5.868   3.217  1.0033  0.5900 -2.2198
 4692TIP3    H235568   0.849   5.875   3.304 -0.9969 -0.5680  0.9042
 4693TIP3   OH235569   3.619   1.060   4.506  0.2215 -0.3329  0.6580
 4693TIP3    H135570   3.698   1.024   4.547  0.6156  0.7628  0.8828
 4693TIP3    H235571   3.565   0.983   4.488  2.1708 -1.3691 -1.3482
 4694TIP3   OH235572   1.928   0.356  11.573  0.0898  0.3936  0.3407
 4694TIP3    H135573   2.002   0.379  11.629 -0.0201 -0.6342  0.9344
 4694TIP3    H235574   1.914   0.434  11.519  1.3645  0.7398  0.4679
 4695TIP3   OH235575   3.027   6.408   3.617 -0.0041  0.0047  0.8203
 4695TIP3    H135576   2.995   6.492   3.651  0.8328  0.2732  0.9667
 4695TIP3    H235577   3.115   6.400   3.654 -0.0192 -0.8648  0.6747
 4696TIP3   OH235578   5.147   3.416   3.071  0.5128  0.2509  0.6663
 4696TIP3    H135579   5.185   3.478   3.134  1.6039 -0.2500  0.5196
 4696TIP3    H235580   5.137   3.467   2.991 -0.4635  0.7671  1.0881
 4697TIP3   OH235581   6.519   2.068  14.546 -0.3559 -0.1236  0.5109
 4697TIP3    H135582   6.471   1.986  14.547  0.6671 -0.8518  4.1536
 4697TIP3    H235583   6.458   2.132  14.584  0.5602 -0.4835  2.7230
 4698TIP3   OH235584   4.503   2.483  13.498  1.0510  0.1482  0.4150
 4698TIP3    H135585   4.427   2.438  13.461  2.8910 -1.8083 -1.3063
 4698TIP3    H235586   4.501   2.462  13.591 -0.8142  0.6341  0.5058
 4699TIP3   OH235587   4.352   5.015   4.259 -0.3295  0.8310  0.2815
 4699TIP3    H135588   4.328   4.991   4.169 -1.3988 -1.7171  1.1575
 4699TIP3    H235589   4.295   5.089   4.280 -0.8702  0.7300 -0.7663
 4700TIP3   OH235590   0.249   2.171  14.658 -0.5032  0.1930 -0.1422
 4700TIP3    H135591   0.267   2.256  14.617 -0.5742 -0.5580 -1.7788
 4700TIP3    H235592   0.153   2.168  14.667 -0.4001  1.6130  2.9783
 4701TIP3   OH235593   4.700   0.973  16.021  0.1113 -0.8695  0.0409
 4701TIP3    H135594   4.745   1.009  15.945 -2.2177 -0.9320 -1.4484
 4701TIP3    H235595   4.656   1.049  16.061  0.3118 -1.0464  0.6094
 4702TIP3   OH235596   0.643   5.043  11.166  0.2724 -0.4670  0.0312
 4702TIP3    H135597   0.573   4.983  11.189 -0.0980 -0.5291 -1.1911
 4702TIP3    H235598   0.695   4.996  11.100  0.7346  0.0479  0.0164
 4703TIP3   OH235599   0.766   4.691  17.385  0.0187 -0.4621 -0.2988
 4703TIP3    H135600   0.743   4.710  17.294  0.9790  0.6221 -0.3394
 4703TIP3    H235601   0.822   4.764  17.411 -0.4749 -0.6076  1.2658
 4704TIP3   OH235602   6.788   3.044  15.447 -0.0949  0.1337 -0.3705
 4704TIP3    H135603   6.812   3.044  15.354 -1.3432  1.8572 -0.7288
 4704TIP3    H235604   6.749   2.957  15.461 -0.7497  0.1828 -1.7120
 4705TIP3   OH235605   2.010   6.750   3.637 -0.1088 -0.8476  0.5789
 4705TIP3    H135606   1.988   6.768   3.546 -0.4847 -1.2953  0.5725
 4705TIP3    H235607   2.096   6.709   3.633  0.3028  0.0134  0.5130
 4706TIP3   OH235608   1.319   2.624  12.525  0.1730 -0.5200  0.4912
 4706TIP3    H135609   1.335   2.702  12.578 -1.2916  0.7761 -0.8436
 4706TIP3    H235610   1.392   2.622  12.463  1.3719 -1.4963  1.8578
 4707TIP3   OH235611   1.950   5.882  14.449 -0.1231 -0.2485 -0.0567
 4707TIP3    H135612   2.036   5.849  14.422 -0.4765  0.1780 -1.8313
 4707TIP3    H235613   1.955   5.887  14.544  1.4942 -1.1003 -0.0620
 4708TIP3   OH235614   1.850   0.785  14.408 -0.1099 -0.4221  0.0277
 4708TIP3    H135615   1.901   0.812  14.331  0.2414  0.9970  0.7176
 4708TIP3    H235616   1.903   0.813  14.483 -1.6247  0.6161  0.7648
 4709TIP3   OH235617   2.371   4.814  16.169  0.4831 -0.3339 -0.0580
 4709TIP3    H135618   2.361   4.793  16.077  0.3203 -0.5225  0.0020
 4709TIP3    H235619   2.284   4.843  16.197  0.7393  0.5958 -0.1815
 4710TIP3   OH235620   3.262   5.110   5.546  0.4044  0.1627  0.8277
 4710TIP3    H135621   3.260   5.203   5.525 -0.8828  0.1637  0.8319
 4710TIP3    H235622   3.169   5.087   5.557  0.6015 -1.3836 -0.4111
 4711TIP3   OH235623   4.946   0.858   5.590  0.0996  0.1267  0.3890
 4711TIP3    H135624   5.023   0.909   5.613  0.0004  0.6485 -0.3717
 4711TIP3    H235625   4.877   0.923   5.578 -0.8339 -0.4279  2.3976
 4712TIP3   OH235626   0.847   1.863   4.726 -0.3487 -0.2969 -0.8656
 4712TIP3    H135627   0.803   1.778   4.731 -0.6969 -0.0656  0.6126
 4712TIP3    H235628   0.873   1.881   4.817 -0.5625  1.3261 -1.1075
 4713TIP3   OH235629   6.728   0.824   2.314  0.4930 -0.0947  0.0707
 4713TIP3    H135630   6.677   0.886   2.263  1.0225  0.3244  0.0400
 4713TIP3    H235631   6.704   0.738   2.278 -2.2573 -0.1879  1.8737
 4714TIP3   OH235632   4.663   0.253   5.214 -0.2252  0.0601 -0.1272
 4714TIP3    H135633   4.700   0.281   5.130  1.2954  1.1242  0.8462
 4714TIP3    H235634   4.659   0.333   5.266 -2.4838 -0.3269  0.3834
 4715TIP3   OH235635   0.187   0.775  12.050  0.1182  0.2294  0.2188
 4715TIP3    H135636   0.274   0.815  12.055  1.1780 -1.9730  0.8837
 4715TIP3    H235637   0.178   0.728  12.133 -0.8929 -1.1124 -0.6109
 4716TIP3   OH235638   0.192   1.337  12.171  0.7527 -0.1471 -0.4350
 4716TIP3    H135639   0.128   1.307  12.236  0.2937  1.4397 -0.1224
 4716TIP3    H235640   0.259   1.381  12.223  0.2356  1.3994 -1.0391
 4717TIP3   OH235641   0.987   2.858  12.126  0.2037  0.2722  0.0744
 4717TIP3    H135642   0.892   2.871  12.121 -0.1289 -1.6977  0.6592
 4717TIP3    H235643   1.002   2.829  12.215  1.0974 -1.2239 -0.5297
 4718TIP3   OH235644   5.537   5.718   3.099  0.0091 -0.1558  0.2998
 4718TIP3    H135645   5.606   5.713   3.033 -1.7064  0.4606 -1.6245
 4718TIP3    H235646   5.574   5.773   3.169  2.4797 -2.1829  0.7344
 4719TIP3   OH235647   3.865   5.838  15.305  0.0794 -0.5207  0.2999
 4719TIP3    H135648   3.937   5.802  15.357 -0.6663 -0.9605  1.0504
 4719TIP3    H235649   3.786   5.802  15.345 -0.5273 -0.9051 -1.1714
 4720TIP3   OH235650   2.482   5.593   5.829 -0.2236 -0.2742  0.4281
 4720TIP3    H135651   2.393   5.612   5.798 -0.2011  1.5398  1.3603
 4720TIP3    H235652   2.483   5.624   5.920  1.8523  1.3271 -0.0812
 4721TIP3   OH235653   2.668   1.164   3.493  0.3011  0.3470  0.6702
 4721TIP3    H135654   2.580   1.129   3.497  0.1803  0.5733  0.0400
 4721TIP3    H235655   2.721   1.101   3.542 -0.3334  0.6239  1.7531
 4722TIP3   OH235656   3.596   0.603   5.840  0.0695  0.5340 -0.2025
 4722TIP3    H135657   3.536   0.554   5.783  0.7453  0.5499 -0.9461
 4722TIP3    H235658   3.553   0.603   5.926 -1.1947  0.8939 -0.8058
 4723TIP3   OH235659   2.039   6.519  12.182 -0.7674 -0.3720  0.4282
 4723TIP3    H135660   1.974   6.572  12.136  0.5200 -1.0902 -2.4266
 4723TIP3    H235661   2.121   6.536  12.137  0.3275 -2.3029  1.5448
 4724TIP3   OH235662   0.483   2.620  14.569 -0.3851  0.2222 -0.5164
 4724TIP3    H135663   0.565   2.659  14.537  0.0918  1.1060  1.5846
 4724TIP3    H235664   0.498   2.607  14.662 -2.7896  0.8079  0.0287
 4725TIP3   OH235665   5.820   1.181  14.097  0.2074 -0.5039  0.7694
 4725TIP3    H135666   5.907   1.205  14.129 -1.2099  2.2979  2.9837
 4725TIP3    H235667   5.768   1.261  14.106 -2.1049 -1.3948 -2.6089
 4726TIP3   OH235668   1.949   1.950   2.179  0.2753  0.4048 -0.1426
 4726TIP3    H135669   1.937   2.027   2.235 -1.3182 -0.5537  0.9316
 4726TIP3    H235670   1.939   1.984   2.089 -2.2435  1.2202  0.3636
 4727TIP3   OH235671   4.393   0.321  13.800  0.1406 -0.1327  0.8748
 4727TIP3    H135672   4.422   0.282  13.717 -0.3715 -0.0846  0.6698
 4727TIP3    H235673   4.326   0.385  13.774 -0.0583 -0.1567  1.3295
 4728TIP3   OH235674   1.928   6.415   4.166 -0.4647  0.1053 -0.3372
 4728TIP3    H135675   2.006   6.470   4.161 -1.2376  1.1877 -0.9621
 4728TIP3    H235676   1.855   6.478   4.169 -1.3174 -0.8816  0.0709
 4729TIP3   OH235677   0.931   5.756   5.365  0.5004  0.1149  0.4251
 4729TIP3    H135678   0.994   5.695   5.329 -0.0092  0.3562 -0.9482
 4729TIP3    H235679   0.939   5.834   5.311  0.4118  0.8903  1.4928
 4730TIP3   OH235680   1.654   0.329   3.932  0.1697 -0.5924  0.0361
 4730TIP3    H135681   1.661   0.236   3.951  0.6546 -1.0787 -2.1764
 4730TIP3    H235682   1.571   0.338   3.884  0.9209 -0.2266 -1.2577
 4731TIP3   OH235683   5.362   3.437   0.385  0.2318  1.1010 -0.3433
 4731TIP3    H135684   5.360   3.374   0.312  1.5318 -1.1131  1.3855
 4731TIP3    H235685   5.271   3.460   0.399 -0.1792  0.4656 -1.7520
 4732TIP3   OH235686   4.034   3.408   5.530 -0.0904 -0.1828 -0.3763
 4732TIP3    H135687   4.090   3.475   5.489  0.8309  0.4547  1.7492
 4732TIP3    H235688   4.071   3.398   5.618 -2.9131 -0.2383  0.9051
 4733TIP3   OH235689   1.614   2.557   6.996  0.1040  0.1021 -0.5217
 4733TIP3    H135690   1.659   2.543   7.080  1.7652 -1.1762 -1.5593
 4733TIP3    H235691   1.595   2.651   6.994  2.0585  0.5640  0.3339
 4734TIP3   OH235692   4.949   5.586  14.645 -0.3150 -0.1043  0.7642
 4734TIP3    H135693   4.923   5.677  14.628  0.1615 -0.0053  0.5390
 4734TIP3    H235694   4.889   5.534  14.591 -0.6622  0.0708  0.9794
 4735TIP3   OH235695   4.979   5.149  12.204  0.4909 -0.4695  0.4109
 4735TIP3    H135696   4.891   5.121  12.179  0.6949 -0.7286 -0.0178
 4735TIP3    H235697   4.984   5.130  12.298 -0.3634  0.7334  0.7303
 4736TIP3   OH235698   3.653   0.614  16.154 -0.3868 -0.7745  0.1589
 4736TIP3    H135699   3.678   0.555  16.083 -0.3632 -1.5801  0.8148
 4736TIP3    H235700   3.635   0.556  16.228 -0.5579  0.0350  0.7709
 4737TIP3   OH235701   6.203   6.389  15.359  0.0242  0.8386 -0.3101
 4737TIP3    H135702   6.241   6.381  15.271 -1.4640 -1.7708 -0.8290
 4737TIP3    H235703   6.252   6.325  15.411 -0.6802  0.6709  0.1532
 4738TIP3   OH235704   5.357   1.048  13.839  0.0887  0.3624 -0.2292
 4738TIP3    H135705   5.290   1.037  13.907  1.8693 -1.2077  1.3938
 4738TIP3    H235706   5.307   1.073  13.761 -2.0974  1.8605  1.4886
 4739TIP3   OH235707   5.421   5.948   5.578 -0.1022  0.1008  0.8899
 4739TIP3    H135708   5.498   5.920   5.628  0.6939 -0.7546 -0.6951
 4739TIP3    H235709   5.427   6.044   5.577  0.2656  0.0936  1.8064
 4740TIP3   OH235710   2.295   2.516   6.152  0.0734 -0.8209  0.0774
 4740TIP3    H135711   2.242   2.559   6.218  1.1793  0.7557 -0.0070
 4740TIP3    H235712   2.232   2.471   6.095 -1.1777  1.0981 -0.1176
 4741TIP3   OH235713   4.065   6.600   1.636  0.1363  0.4159  0.0639
 4741TIP3    H135714   3.987   6.553   1.607 -0.3386  0.7990  0.7110
 4741TIP3    H235715   4.137   6.539   1.619 -0.2376  0.2590 -1.0164
 4742TIP3   OH235716   2.314   2.630   2.088 -0.3774  0.4931  0.5647
 4742TIP3    H135717   2.260   2.693   2.136  0.2691  0.3503  1.4942
 4742TIP3    H235718   2.382   2.604   2.150  0.6817  0.5539 -0.5401
 4743TIP3   OH235719   6.634   1.124  14.228  0.0789 -0.0569  0.5147
 4743TIP3    H135720   6.649   1.212  14.194 -0.8075  0.7506  2.1345
 4743TIP3    H235721   6.662   1.127  14.319  1.2654 -1.8428  0.2820
 4744TIP3   OH235722   4.280   0.833  13.356  0.0539 -0.1939 -0.9075
 4744TIP3    H135723   4.265   0.839  13.450  0.8327  0.3987 -0.8130
 4744TIP3    H235724   4.354   0.891  13.340 -0.3983  0.1093 -1.9668
 4745TIP3   OH235725   0.555   5.053   1.220 -0.1092  0.8420  0.0732
 4745TIP3    H135726   0.600   5.065   1.304 -0.6420 -1.1678  0.6960
 4745TIP3    H235727   0.476   5.004   1.242  0.1392 -0.4226 -1.7109
 4746TIP3   OH235728   4.865   4.029  12.355  0.3856 -0.4539 -0.6087
 4746TIP3    H135729   4.886   4.019  12.262 -0.0804  1.3304 -0.9465
 4746TIP3    H235730   4.778   3.990  12.364  0.6250 -1.0436 -0.8190
 4747TIP3   OH235731   5.574   4.555   5.481 -0.3069  0.4861 -0.3456
 4747TIP3    H135732   5.600   4.556   5.573 -0.1349  1.6961 -0.3887
 4747TIP3    H235733   5.649   4.516   5.436 -1.2167 -2.0773  0.2169
 4748TIP3   OH235734   3.384   3.058  14.048 -0.0246 -0.2106  0.2268
 4748TIP3    H135735   3.291   3.069  14.069 -0.7904  1.6995 -3.4352
 4748TIP3    H235736   3.412   3.143  14.016  2.6558 -1.1123 -0.0642
 4749TIP3   OH235737   0.041   2.431  14.707  0.4795  0.3593 -0.2322
 4749TIP3    H135738   0.056   2.434  14.802  0.5881 -1.5667 -0.1579
 4749TIP3    H235739   0.101   2.497  14.672  1.6001 -0.0033  0.9058
 4750TIP3   OH235740   5.159   6.631  15.174  0.2754 -0.0673  0.3701
 4750TIP3    H135741   5.139   6.594  15.088  0.6237 -0.2172  0.3513
 4750TIP3    H235742   5.246   6.598  15.194 -0.0069 -0.4454  1.0066
 4751TIP3   OH235743   4.802   3.502  11.958 -0.0427  0.5700 -0.1370
 4751TIP3    H135744   4.862   3.547  12.016  1.4388 -2.0219  0.4982
 4751TIP3    H235745   4.768   3.571  11.900 -0.6266  3.0304  2.8842
 4752TIP3   OH235746   5.789   5.286   2.091 -0.8577  0.1415  0.0825
 4752TIP3    H135747   5.828   5.275   2.178 -0.0905  1.2025 -0.1139
 4752TIP3    H235748   5.829   5.365   2.056 -1.8250  0.2286 -0.8879
 4753TIP3   OH235749   2.049   6.559   5.135  0.0859 -0.0930 -0.0437
 4753TIP3    H135750   2.049   6.600   5.049  0.3352  0.7844  0.3567
 4753TIP3    H235751   1.970   6.505   5.136 -0.5973  0.8655 -0.3825
 4754TIP3   OH235752   6.761   2.972  14.392  0.1856 -0.1342  0.2509
 4754TIP3    H135753   6.785   2.950  14.482  0.9176  1.5873  0.5287
 4754TIP3    H235754   6.843   2.961  14.342 -0.3903 -1.7930 -0.3741
 4755TIP3   OH235755   4.813   5.038   5.353 -0.2871  0.5535  0.6206
 4755TIP3    H135756   4.795   4.952   5.391  0.4229 -0.2882 -0.8806
 4755TIP3    H235757   4.788   5.030   5.261  2.6434  0.9502 -0.3098
 4756TIP3   OH235758   2.169   2.492   3.081  0.5105  0.1732  0.4352
 4756TIP3    H135759   2.081   2.507   3.115 -0.8799  0.4868 -2.8776
 4756TIP3    H235760   2.203   2.579   3.064 -0.5083  0.1041 -2.5394
 4757TIP3   OH235761   3.402   2.085  12.075 -0.0144  0.4168  0.2380
 4757TIP3    H135762   3.490   2.122  12.069  0.0901  0.3799  1.2777
 4757TIP3    H235763   3.378   2.096  12.167 -1.1497  0.5324 -0.0520
 4758TIP3   OH235764   0.535   3.088   1.673 -0.1494 -0.4889  0.0201
 4758TIP3    H135765   0.559   3.166   1.623 -1.3319  0.0157  0.2066
 4758TIP3    H235766   0.586   3.018   1.633  0.0107  0.1630 -0.9689
 4759TIP3   OH235767   0.489   2.277  13.835 -0.1758 -0.0844  0.4136
 4759TIP3    H135768   0.533   2.362  13.830 -1.5766  0.6421  0.0346
 4759TIP3    H235769   0.435   2.273  13.756 -1.2393 -0.6933  1.1497
 4760TIP3   OH235770   6.590   0.357  13.262 -0.5922 -0.0312 -0.3504
 4760TIP3    H135771   6.588   0.288  13.329  0.3355 -3.1864 -3.3126
 4760TIP3    H235772   6.680   0.356  13.230 -0.9097  1.6916 -1.4046
 4761TIP3   OH235773   4.985   5.586  13.579  0.4868 -0.3263 -0.4984
 4761TIP3    H135774   4.894   5.615  13.571  1.0901  1.8916  0.2156
 4761TIP3    H235775   4.981   5.512  13.640 -0.8176 -0.3025 -0.5257
 4762TIP3   OH235776   2.014   3.614   2.501 -0.0362  0.5648  0.0841
 4762TIP3    H135777   2.084   3.663   2.545  0.4454 -0.2132  0.1887
 4762TIP3    H235778   2.044   3.607   2.410 -0.3539  0.9054 -0.0525
 4763TIP3   OH235779   2.980   2.875   5.554 -0.2991  0.2836  0.0367
 4763TIP3    H135780   2.937   2.818   5.618 -0.7027  0.0522 -0.4349
 4763TIP3    H235781   3.059   2.827   5.530 -1.1626 -0.6087 -1.1555
 4764TIP3   OH235782   5.560   4.618   4.542 -0.3185  0.3598 -0.4562
 4764TIP3    H135783   5.589   4.657   4.460 -0.3890  0.5708 -0.3806
 4764TIP3    H235784   5.560   4.690   4.605 -1.6451  0.5329 -0.6094
 4765TIP3   OH235785   4.331   2.665  15.736 -0.5328  0.1780  0.1956
 4765TIP3    H135786   4.390   2.739  15.752 -0.1554 -0.1382  0.2643
 4765TIP3    H235787   4.275   2.694  15.664 -1.0047  0.8910  0.8336
 4766TIP3   OH235788   4.080   3.036  13.004  0.1571 -0.3344  0.2429
 4766TIP3    H135789   4.168   3.002  12.987  0.6858  0.8955  0.4527
 4766TIP3    H235790   4.085   3.076  13.090 -1.2795 -2.3587  1.3613
 4767TIP3   OH235791   1.512   4.399   3.940 -0.5109  0.0067  0.3991
 4767TIP3    H135792   1.520   4.372   4.031 -0.8326 -2.8146 -0.2989
 4767TIP3    H235793   1.475   4.322   3.896  1.2929  0.6061 -2.4196
 4768TIP3   OH235794   1.309   1.914   4.396 -0.4879  0.0335 -0.2334
 4768TIP3    H135795   1.317   2.009   4.387 -2.2590  0.0661 -2.1959
 4768TIP3    H235796   1.269   1.901   4.482 -0.5611  1.0854 -0.0950
 4769TIP3   OH235797   4.190   1.422  15.163  0.1268  0.4603  0.2030
 4769TIP3    H135798   4.197   1.478  15.240  1.7761  2.8101 -1.4872
 4769TIP3    H235799   4.101   1.435  15.132  0.0630  1.1112  0.6293
 4770TIP3   OH235800   1.693   5.050  12.503  0.0905 -0.1263 -0.2119
 4770TIP3    H135801   1.623   4.985  12.510  0.0983 -0.3043 -1.5552
 4770TIP3    H235802   1.647   5.132  12.483  0.2525 -0.2576 -1.1677
 4771TIP3   OH235803   1.442   4.980  15.300 -0.2785  1.1370  0.4675
 4771TIP3    H135804   1.511   5.020  15.352  0.9623 -0.7410  0.3395
 4771TIP3    H235805   1.474   4.893  15.279 -3.0843 -0.2047  1.2407
 4772TIP3   OH235806   0.690   3.768  15.078  0.1248 -0.4086 -0.1058
 4772TIP3    H135807   0.714   3.736  15.165  0.4305  1.4551  0.5413
 4772TIP3    H235808   0.645   3.851  15.095  1.2880  0.6048 -1.7788
 4773TIP3   OH235809   4.325   6.697   2.563  0.4251 -0.1424  0.1363
 4773TIP3    H135810   4.235   6.717   2.537  0.3624 -1.1879 -0.5497
 4773TIP3    H235811   4.317   6.617   2.615  0.7920  0.7354  1.5780
 4774TIP3   OH235812   1.050   3.025   0.371 -0.0900  0.1807 -0.3985
 4774TIP3    H135813   1.119   2.961   0.388 -0.5259 -0.2310 -0.1522
 4774TIP3    H235814   0.980   3.000   0.431  0.0857  1.4523  0.3781
 4775TIP3   OH235815   2.001   4.765  16.142  0.9822 -0.3760 -0.3175
 4775TIP3    H135816   1.980   4.688  16.195  0.7358  0.8720  1.4585
 4775TIP3    H235817   1.986   4.736  16.051 -1.3319 -1.7383  0.4083
 4776TIP3   OH235818   2.672   2.163  13.577 -0.0270 -0.6054  0.2122
 4776TIP3    H135819   2.745   2.206  13.622  1.2609 -1.0455 -1.3805
 4776TIP3    H235820   2.679   2.071  13.603  0.0485 -0.6651 -0.0207
 4777TIP3   OH235821   4.942   1.389  13.512 -0.1777  0.3704 -0.4244
 4777TIP3    H135822   4.948   1.293  13.504  1.0246  0.3105  0.9190
 4777TIP3    H235823   5.011   1.422  13.455 -0.6279  0.4557 -0.9294
 4778TIP3   OH235824   0.156   4.181   6.313 -0.1332 -0.5772 -0.1093
 4778TIP3    H135825   0.127   4.260   6.357 -1.2739  0.1519 -2.0570
 4778TIP3    H235826   0.096   4.113   6.343 -1.5178  0.1168 -1.2227
 4779TIP3   OH235827   2.808   3.947   4.382  0.2714 -0.3981 -0.2198
 4779TIP3    H135828   2.854   3.946   4.466  1.9840 -2.4882 -1.0837
 4779TIP3    H235829   2.744   3.876   4.389 -2.8660  2.2810  0.8502
 4780TIP3   OH235830   3.819   6.463  12.660  0.0327  0.5562  0.1410
 4780TIP3    H135831   3.774   6.391  12.705 -1.0186  2.2077  1.9180
 4780TIP3    H235832   3.892   6.485  12.718  1.1820  0.0518 -1.0867
 4781TIP3   OH235833   1.187   1.602   4.894 -0.0436  0.1701  0.0210
 4781TIP3    H135834   1.164   1.516   4.858 -3.1235  0.0936  1.8185
 4781TIP3    H235835   1.166   1.664   4.825 -0.9922 -0.3226 -0.1469
 4782TIP3   OH235836   5.499   1.195  13.224  0.1933 -0.3986  0.1497
 4782TIP3    H135837   5.555   1.134  13.273  1.6805 -0.3761 -1.4246
 4782TIP3    H235838   5.561   1.252  13.178 -1.1550  2.1321  1.2852
 4783TIP3   OH235839   5.784   6.498   0.774  0.5830 -0.2360  0.6329
 4783TIP3    H135840   5.768   6.481   0.682 -2.5624  1.2238  0.7574
 4783TIP3    H235841   5.716   6.449   0.820  0.1814  1.4221  1.9122
 4784TIP3   OH235842   0.570   3.760   1.613  0.3827  0.2331 -0.4547
 4784TIP3    H135843   0.557   3.665   1.605 -0.0758  0.3261 -0.8096
 4784TIP3    H235844   0.634   3.781   1.545  0.5742  0.1634 -0.2987
 4785TIP3   OH235845   2.292   6.006   2.723  0.3238 -0.0819 -0.3116
 4785TIP3    H135846   2.354   6.077   2.713 -0.0133  0.3009  0.2684
 4785TIP3    H235847   2.346   5.928   2.734  0.6973  0.2183 -0.0141
 4786TIP3   OH235848   4.974   5.620  15.899 -0.2936 -0.3038  0.2686
 4786TIP3    H135849   4.912   5.655  15.834  2.9418  1.8129 -1.9452
 4786TIP3    H235850   4.996   5.695  15.954  0.2030 -1.0935  1.1911
 4787TIP3   OH235851   1.183   2.666   5.616 -1.2825  0.4090  0.0961
 4787TIP3    H135852   1.160   2.630   5.701 -2.8681 -3.4301 -1.6836
 4787TIP3    H235853   1.114   2.635   5.557  0.4271  1.7103 -2.8287
 4788TIP3   OH235854   0.442   3.270   1.871  0.2385  0.1854  0.3362
 4788TIP3    H135855   0.482   3.204   1.813  0.8613 -0.5878  1.6027
 4788TIP3    H235856   0.514   3.329   1.893 -0.2008  0.9935 -0.3742
 4789TIP3   OH235857   2.288   2.054   3.416  0.2272  0.0820  0.5050
 4789TIP3    H135858   2.338   2.006   3.482  1.6228  0.2306 -0.4178
 4789TIP3    H235859   2.197   2.042   3.443  0.5212 -2.8416  0.5062
 4790TIP3   OH235860   4.419   3.141  16.169 -0.7750  0.2473 -0.6173
 4790TIP3    H135861   4.364   3.172  16.241  0.6164  2.7421 -0.5315
 4790TIP3    H235862   4.392   3.193  16.093  0.5877  0.5932 -0.8790
 4791TIP3   OH235863   4.349   3.247   0.342  0.3294  0.2667  0.9242
 4791TIP3    H135864   4.337   3.314   0.274 -0.0027 -0.8862 -0.1948
 4791TIP3    H235865   4.319   3.166   0.301 -0.0299 -0.4434  2.5201
 4792TIP3   OH235866   4.849   3.018  14.759  0.6515 -0.0641  0.0061
 4792TIP3    H135867   4.762   3.003  14.797  0.6340  0.9517  0.3937
 4792TIP3    H235868   4.870   2.935  14.716 -0.2320 -0.5412  0.4480
 4793TIP3   OH235869   1.123   2.159  13.687 -0.4015 -0.1123  0.3703
 4793TIP3    H135870   1.106   2.148  13.594  0.0631  0.9688  0.1402
 4793TIP3    H235871   1.216   2.137  13.698 -0.0479  1.2344  0.2856
 4794TIP3   OH235872   3.491   5.472  16.993 -0.2100 -0.3084 -0.6571
 4794TIP3    H135873   3.455   5.537  17.054  0.9729  0.2450 -0.5178
 4794TIP3    H235874   3.422   5.459  16.928 -1.1394 -0.2201  0.2764
 4795TIP3   OH235875   2.030   2.538  11.255 -0.4391 -0.1819 -0.3880
 4795TIP3    H135876   2.126   2.538  11.261 -0.4393  1.7164  0.3304
 4795TIP3    H235877   2.012   2.583  11.172 -0.7286 -1.8886 -1.2902
 4796TIP3   OH235878   4.870   1.934   4.177  0.0262 -0.1202 -0.2363
 4796TIP3    H135879   4.840   1.857   4.225 -0.3278  0.7610  1.0053
 4796TIP3    H235880   4.947   1.903   4.128 -0.9582 -1.6054 -0.9313
 4797TIP3   OH235881   5.423   5.165   3.988  0.4604 -0.2470 -0.2560
 4797TIP3    H135882   5.363   5.092   4.004 -1.8631  1.6227  0.2573
 4797TIP3    H235883   5.418   5.217   4.068  2.0659  0.4804 -0.6037
 4798TIP3   OH235884   0.368   6.468  13.284 -0.0083  0.0237 -0.6985
 4798TIP3    H135885   0.458   6.477  13.253  0.5326  1.8861  1.1676
 4798TIP3    H235886   0.322   6.543  13.248 -0.4906 -0.2157 -0.5913
 4799TIP3   OH235887   4.450   0.482  12.487  0.4856  0.5998 -0.6976
 4799TIP3    H135888   4.466   0.492  12.581 -0.3652  3.2878 -0.7620
 4799TIP3    H235889   4.526   0.523  12.446  1.1136 -1.0370 -1.2375
 4800TIP3   OH235890   4.830   0.646  16.176 -0.3653 -0.2029  0.1729
 4800TIP3    H135891   4.792   0.734  16.178  1.1164  0.4916 -0.4965
 4800TIP3    H235892   4.885   0.645  16.098 -0.9087 -1.9939 -0.2441
 4801TIP3   OH235893   2.777   3.903   0.233  0.3056 -0.2233 -0.2404
 4801TIP3    H135894   2.717   3.860   0.295 -0.5055 -1.4669 -1.7936
 4801TIP3    H235895   2.723   3.970   0.192  1.0484  1.0885  0.8640
 4802TIP3   OH235896   3.222   6.157  15.763 -0.3082 -0.6347  0.2113
 4802TIP3    H135897   3.238   6.083  15.821 -0.1031 -1.6399 -1.0566
 4802TIP3    H235898   3.222   6.118  15.675  0.5977  1.0041 -0.5531
 4803TIP3   OH235899   3.221   4.599  16.808  1.1347 -0.1433 -0.4828
 4803TIP3    H135900   3.219   4.620  16.714  2.6582  0.6729 -0.3616
 4803TIP3    H235901   3.305   4.556  16.821  0.5392 -1.0786  0.3643
 4804TIP3   OH235902   1.851   2.472   4.835 -0.2687 -0.3131 -0.2169
 4804TIP3    H135903   1.908   2.550   4.829  0.6297 -0.9840 -0.6922
 4804TIP3    H235904   1.770   2.498   4.791  0.5810 -0.1223 -1.7337
 4805TIP3   OH235905   2.249   3.759  16.852 -0.2508 -0.1251 -0.0054
 4805TIP3    H135906   2.247   3.850  16.820  2.3709 -0.3363 -1.0188
 4805TIP3    H235907   2.157   3.733  16.854 -0.9467  1.8135 -1.9240
 4806TIP3   OH235908   6.198   4.976  16.477  0.1149 -0.3441 -0.0500
 4806TIP3    H135909   6.257   4.921  16.529  1.9236 -0.1570 -1.8064
 4806TIP3    H235910   6.201   4.938  16.389 -2.3122 -0.2238 -0.2448
 4807TIP3   OH235911   4.869   6.584  10.675  0.3926  0.1037 -0.3316
 4807TIP3    H135912   4.817   6.622  10.604 -0.1150  1.8956  0.9499
 4807TIP3    H235913   4.960   6.599  10.649  0.2086  0.9301 -0.5081
 4808TIP3   OH235914   0.895   5.853  12.212 -0.0513  0.0820 -0.0383
 4808TIP3    H135915   0.988   5.865  12.196  0.7187 -0.7686  3.1835
 4808TIP3    H235916   0.873   5.769  12.172  0.4457  0.4378 -1.0848
 4809TIP3   OH235917   0.844   3.958   3.279 -0.0569  1.3467 -0.4914
 4809TIP3    H135918   0.749   3.957   3.269 -0.3230 -4.0066 -0.4596
 4809TIP3    H235919   0.859   3.916   3.364  2.4117  2.9044 -0.0685
 4810TIP3   OH235920   1.127   1.164   1.093 -0.1544  0.7126  0.1009
 4810TIP3    H135921   1.190   1.091   1.093 -1.0145 -0.0591 -0.9526
 4810TIP3    H235922   1.139   1.205   1.008  1.3840  2.8071  1.2286
 4811TIP3   OH235923   6.527   6.179   3.059  0.3471 -0.7106 -0.2554
 4811TIP3    H135924   6.617   6.182   3.026  0.2941  0.2508 -0.3257
 4811TIP3    H235925   6.532   6.120   3.135  0.7817 -1.6609 -0.9988
 4812TIP3   OH235926   3.971   1.356  14.888  0.6896  0.3381 -0.1258
 4812TIP3    H135927   3.987   1.270  14.850 -0.4885 -0.1946  0.5154
 4812TIP3    H235928   3.972   1.416  14.813  1.1455 -0.2817 -0.6254
 4813TIP3   OH235929   5.023   3.207  12.043  0.3983 -0.5719 -0.0795
 4813TIP3    H135930   4.968   3.131  12.024  0.0596 -0.4058  0.2458
 4813TIP3    H235931   5.033   3.251  11.958  1.1215 -1.3204 -0.4006
 4814TIP3   OH235932   6.254   5.238   5.691 -0.5778 -0.2570  0.2538
 4814TIP3    H135933   6.345   5.236   5.659 -0.2414 -1.6614  1.2248
 4814TIP3    H235934   6.260   5.273   5.780 -1.0862  0.2108  0.1152
 4815TIP3   OH235935   5.548   1.895   2.091 -0.0278 -0.2266  0.1853
 4815TIP3    H135936   5.584   1.956   2.026  2.2039  0.4472  1.9665
 4815TIP3    H235937   5.592   1.812   2.073  0.8171  0.0384  1.0121
 4816TIP3   OH235938   0.294   1.335  11.913  0.1499  0.1142 -0.2660
 4816TIP3    H135939   0.249   1.307  11.993 -1.3758  0.0737 -1.1142
 4816TIP3    H235940   0.279   1.429  11.909 -0.5119 -0.0096 -0.9279
 4817TIP3   OH235941   2.801   2.360  16.723  0.4864 -0.4427 -0.0183
 4817TIP3    H135942   2.827   2.278  16.765 -1.6709 -1.2108 -0.0307
 4817TIP3    H235943   2.779   2.335  16.633  0.1390  0.2143 -0.1198
 4818TIP3   OH235944   0.352   0.541   0.968 -0.1157 -0.3767  0.0588
 4818TIP3    H135945   0.393   0.623   0.941 -0.3650  1.4331  4.3045
 4818TIP3    H235946   0.259   0.560   0.972 -0.3712 -1.4359 -0.4956
 4819TIP3   OH235947   3.280   2.942  10.842 -0.0306 -0.1165 -0.0197
 4819TIP3    H135948   3.333   2.987  10.776 -0.1657 -0.2158 -0.1963
 4819TIP3    H235949   3.214   2.895  10.792  0.9047 -1.5910  0.0581
 4820TIP3   OH235950   3.007   5.971  15.276  0.2842 -0.2673  0.0474
 4820TIP3    H135951   3.064   5.983  15.200 -0.1470  0.9617 -0.1014
 4820TIP3    H235952   2.920   5.994  15.244 -0.0323 -0.5270  0.7127
 4821TIP3   OH235953   2.993   5.910  17.011  0.3221 -0.0972  0.3814
 4821TIP3    H135954   3.038   5.883  17.091 -1.4862 -1.6168  0.9512
 4821TIP3    H235955   2.949   5.992  17.035  0.9189  0.1894  0.5108
 4822TIP3   OH235956   2.258   0.507  13.802  0.1725  0.1707 -0.5242
 4822TIP3    H135957   2.246   0.573  13.870  0.5699  0.8858 -1.1416
 4822TIP3    H235958   2.181   0.516  13.746 -0.1049 -0.3529 -0.2426
 4823TIP3   OH235959   4.397   5.909  13.350 -0.3595  0.2133  0.0835
 4823TIP3    H135960   4.354   5.882  13.268  1.9823  1.0708 -1.5291
 4823TIP3    H235961   4.448   5.833  13.376 -0.1743  0.3385  0.0878
 4824TIP3   OH235962   3.015   1.194   1.554  0.1382  0.5385 -0.3017
 4824TIP3    H135963   2.981   1.276   1.590 -1.9390 -0.0303 -0.8487
 4824TIP3    H235964   2.962   1.177   1.476  0.2702 -1.4915 -0.0203
 4825TIP3   OH235965   1.231   1.131   5.518  0.0278  0.8919 -0.2693
 4825TIP3    H135966   1.162   1.135   5.451 -1.5401  1.1792  1.2756
 4825TIP3    H235967   1.289   1.061   5.489 -1.9162 -0.6075 -0.7596
 4826TIP3   OH235968   4.452   5.807   5.784  0.0934  0.3221 -0.6387
 4826TIP3    H135969   4.425   5.878   5.725  0.4104 -0.4552 -1.7624
 4826TIP3    H235970   4.506   5.850   5.850  0.4263  1.1128 -1.4001
 4827TIP3   OH235971   6.446   6.430   4.115  0.3294 -0.0644 -0.3852
 4827TIP3    H135972   6.516   6.389   4.164  0.5920  1.1522  0.3115
 4827TIP3    H235973   6.366   6.389   4.147  0.5286  0.4476  0.8262
 4828TIP3   OH235974   0.489   4.495  13.969  0.2146  0.0920  0.5611
 4828TIP3    H135975   0.556   4.432  13.993 -0.3235 -0.7753 -0.1583
 4828TIP3    H235976   0.411   4.466  14.016  0.5167  1.6023  2.0982
 4829TIP3   OH235977   3.279   1.206   1.636  0.3476 -0.5802  0.7241
 4829TIP3    H135978   3.193   1.202   1.593 -0.2040 -0.4407  1.7664
 4829TIP3    H235979   3.258   1.216   1.729  1.5012  0.5471  0.8926
 4830TIP3   OH235980   3.091   4.087  16.010 -0.5711 -0.4711  0.3174
 4830TIP3    H135981   3.179   4.122  15.994 -0.2484 -1.6712 -0.6196
 4830TIP3    H235982   3.032   4.152  15.971 -0.1362  0.3999  1.0567
 4831TIP3   OH235983   5.214   6.649   3.814  0.6185 -0.4898  0.4109
 4831TIP3    H135984   5.220   6.726   3.758  1.2168 -0.8539 -0.0366
 4831TIP3    H235985   5.124   6.618   3.802  0.1044  0.5875  1.2260
 4832TIP3   OH235986   4.459   2.162   5.412  0.0691  0.5550 -0.3491
 4832TIP3    H135987   4.490   2.173   5.322 -0.5875  1.5887 -0.4682
 4832TIP3    H235988   4.364   2.174   5.406 -0.2077 -1.1383  0.2183
 4833TIP3   OH235989   4.953   1.816   4.788  0.5302 -0.2849  0.1214
 4833TIP3    H135990   5.014   1.743   4.799 -1.7196 -2.1752  0.9199
 4833TIP3    H235991   4.967   1.870   4.866  0.5953 -1.1690  0.7373
 4834TIP3   OH235992   4.534   1.870   2.744  0.4538 -0.2501 -0.4873
 4834TIP3    H135993   4.578   1.806   2.801  0.9094  0.7681  0.3338
 4834TIP3    H235994   4.457   1.896   2.794  0.7893  0.5615 -0.3870
 4835TIP3   OH235995   5.037   0.269  12.692  0.1703  0.3361 -0.3204
 4835TIP3    H135996   5.050   0.219  12.611  0.5498 -1.2329  0.6566
 4835TIP3    H235997   4.975   0.337  12.668 -0.9073 -1.0147 -1.5784
 4836TIP3   OH235998   4.557   3.355   1.707 -0.7128 -0.2665  0.3895
 4836TIP3    H135999   4.650   3.350   1.682 -0.5997 -0.0703  0.7641
 4836TIP3    H236000   4.515   3.399   1.634 -0.4178  0.1269  0.4536
 4837TIP3   OH236001   2.222   0.706   5.326  0.0716  0.0108  0.0204
 4837TIP3    H136002   2.289   0.731   5.389 -0.5050  0.0911  0.6175
 4837TIP3    H236003   2.196   0.788   5.284  0.5520 -0.0612 -0.4243
 4838TIP3   OH236004   3.581   4.681   4.995 -0.0477  0.6512 -0.1509
 4838TIP3    H136005   3.567   4.597   5.038  1.9171 -0.6860 -1.9268
 4838TIP3    H236006   3.656   4.719   5.040  0.4778  0.3896 -0.7982
 4839TIP3   OH236007   5.407   6.170  11.437 -0.2050  0.4673  0.1421
 4839TIP3    H136008   5.452   6.252  11.418 -0.1178 -0.0000 -1.8236
 4839TIP3    H236009   5.331   6.195  11.489  1.1986  1.4799  1.8437
 4840TIP3   OH236010   0.790   1.398   3.650 -0.5268  0.0515 -0.0154
 4840TIP3    H136011   0.837   1.399   3.733  0.0131  1.6983 -0.3026
 4840TIP3    H236012   0.777   1.305   3.630  0.2611 -0.3759  1.3814
 4841TIP3   OH236013   6.747   2.477   3.947 -0.6543  0.3105 -0.0980
 4841TIP3    H136014   6.689   2.463   4.021  0.4216 -1.1470  0.5027
 4841TIP3    H236015   6.790   2.560   3.966 -0.5972  0.0872  0.7671
 4842TIP3   OH236016   0.845   0.506   6.313  0.0977 -0.3401 -0.1219
 4842TIP3    H136017   0.903   0.441   6.273  2.3221  0.3476  1.8032
 4842TIP3    H236018   0.895   0.587   6.313 -1.6793  0.8182 -0.2292
 4843TIP3   OH236019   5.303   4.272   2.692  0.2025 -0.2041  0.1992
 4843TIP3    H136020   5.232   4.214   2.666  0.3611 -0.6525  0.7346
 4843TIP3    H236021   5.354   4.220   2.755  1.3070 -0.0828 -0.5739
 4844TIP3   OH236022   3.296   5.738  15.567  0.3237  0.1287 -0.1183
 4844TIP3    H136023   3.294   5.647  15.539 -1.0690  0.4482 -1.1942
 4844TIP3    H236024   3.389   5.761  15.568  0.6646 -1.1681 -0.2305
 4845TIP3   OH236025   5.147   0.685  16.607 -0.0981 -0.0856  0.1583
 4845TIP3    H136026   5.097   0.655  16.531 -0.6738  1.2083 -0.0028
 4845TIP3    H236027   5.132   0.618  16.674 -2.4027  0.4222  0.2518
 4846TIP3   OH236028   6.064   1.306   3.463  0.0295 -0.3305 -0.2497
 4846TIP3    H136029   6.144   1.277   3.419  0.9325  1.0721  0.4301
 4846TIP3    H236030   6.026   1.370   3.403 -0.1346 -0.3573 -0.1735
 4847TIP3   OH236031   3.011   5.468  13.204 -0.1559  0.7131 -0.1052
 4847TIP3    H136032   3.046   5.490  13.291  2.3120  1.8070 -1.2836
 4847TIP3    H236033   2.988   5.552  13.166 -2.4909  0.1444 -0.1006
 4848TIP3   OH236034   4.274   0.921  12.092  0.0920 -0.2025 -0.4382
 4848TIP3    H136035   4.367   0.901  12.104  0.2146  0.8726  0.5124
 4848TIP3    H236036   4.232   0.887  12.171 -0.1420  0.4554 -0.2762
 4849TIP3   OH236037   2.911   3.905  14.353 -0.5686  0.3273  0.3728
 4849TIP3    H136038   2.839   3.945  14.303  0.2104  2.8941  1.1378
 4849TIP3    H236039   2.952   3.979  14.399  1.0691 -1.3986  1.8560
 4850TIP3   OH236040   5.055   1.843  15.746 -0.4513 -0.4615 -0.3587
 4850TIP3    H136041   4.968   1.832  15.784 -1.4771  0.5259 -2.2588
 4850TIP3    H236042   5.062   1.937  15.730  0.3543 -0.7055 -1.5591
 4851TIP3   OH236043   3.202   5.312   4.308  0.3122 -0.1972  0.3828
 4851TIP3    H136044   3.206   5.221   4.277 -1.7750  0.6408 -2.7721
 4851TIP3    H236045   3.115   5.321   4.346  0.5941  0.4769  0.9042
 4852TIP3   OH236046   2.081   3.161  16.723 -0.5581  0.5592 -0.8262
 4852TIP3    H136047   2.065   3.255  16.717 -0.3263  0.8342  1.7465
 4852TIP3    H236048   2.026   3.132  16.796  0.4300 -1.0239 -0.6611
 4853TIP3   OH236049   5.496   0.477   3.229  0.5616  0.1737  0.0220
 4853TIP3    H136050   5.543   0.530   3.164 -0.1588  1.8382  0.7905
 4853TIP3    H236051   5.413   0.456   3.187  1.5581 -1.9998 -0.9912
 4854TIP3   OH236052   4.249   0.570   1.972 -0.2600 -0.1701 -0.0668
 4854TIP3    H136053   4.240   0.521   2.054  0.7038  0.1839  0.2561
 4854TIP3    H236054   4.254   0.502   1.905 -0.2325 -0.4827  0.2456
 4855TIP3   OH236055   3.472   2.043  16.471 -0.1881  0.2350 -0.0715
 4855TIP3    H136056   3.403   1.995  16.516 -0.7044  0.2829 -0.8057
 4855TIP3    H236057   3.458   2.134  16.497 -1.2017  0.4275 -1.2147
 4856TIP3   OH236058   0.076   2.353   3.428  0.5344  0.5775  0.2268
 4856TIP3    H136059   0.066   2.417   3.357 -0.2737  1.0432  0.7469
 4856TIP3    H236060   0.036   2.395   3.504 -2.2879 -1.4717  0.0348
 4857TIP3   OH236061   5.623   5.183  10.910 -0.0277 -0.1289  0.0034
 4857TIP3    H136062   5.566   5.212  10.981 -2.2438  1.0427 -2.0677
 4857TIP3    H236063   5.572   5.115  10.865  0.9590 -0.2861 -0.9135
 4858TIP3   OH236064   1.071   1.009   2.119  0.3129  0.1150  0.3014
 4858TIP3    H136065   1.050   1.099   2.094  2.6807  0.6133 -0.2241
 4858TIP3    H236066   1.083   1.013   2.214  0.6351  0.4212  0.2511
 4859TIP3   OH236067   1.192   6.606  14.818  0.5976  0.3228  0.2980
 4859TIP3    H136068   1.173   6.538  14.883  0.8518  1.1725  1.2887
 4859TIP3    H236069   1.158   6.687  14.857 -0.3073  0.6726 -1.1531
 4860TIP3   OH236070   1.716   1.666  13.025  0.1852  0.0499  0.3811
 4860TIP3    H136071   1.748   1.751  13.056 -1.1156  1.0433 -0.8492
 4860TIP3    H236072   1.643   1.646  13.083  0.3131 -0.1092  0.4903
 4861TIP3   OH236073   2.456   2.000   5.750  0.2716 -0.1852 -0.1742
 4861TIP3    H136074   2.539   1.953   5.756 -0.2889 -1.0014  2.1629
 4861TIP3    H236075   2.480   2.092   5.752  1.1051 -0.4116  1.5012
 4862TIP3   OH236076   1.248   6.699  14.414 -0.6049  0.2217  0.2045
 4862TIP3    H136077   1.246   6.694  14.318 -0.1101 -1.3485  0.2460
 4862TIP3    H236078   1.166   6.658  14.441  1.0256 -3.2973  0.4680
 4863TIP3   OH236079   3.674   4.803   0.272  0.0486 -0.3429  0.0111
 4863TIP3    H136080   3.632   4.781   0.189  0.5573 -1.4878  0.0355
 4863TIP3    H236081   3.765   4.773   0.261 -0.1261 -1.4950  1.3386
 4864TIP3   OH236082   4.325   3.155   5.454  0.3478  0.1012 -0.4947
 4864TIP3    H136083   4.346   3.230   5.510  0.3571 -1.6435  2.0572
 4864TIP3    H236084   4.410   3.120   5.429  0.3450  0.6373 -1.2767
 4865TIP3   OH236085   1.850   6.742   5.415  0.1150 -0.1797 -0.2037
 4865TIP3    H136086   1.793   6.796   5.359  0.7198 -0.0769 -0.7247
 4865TIP3    H236087   1.801   6.660   5.426 -0.7053  0.3727  0.3956
 4866TIP3   OH236088   6.509   0.699  15.092 -0.3006 -0.0588  0.4392
 4866TIP3    H136089   6.507   0.679  14.999 -3.5024  1.6677 -0.0179
 4866TIP3    H236090   6.545   0.620  15.133 -0.9643 -1.7939 -2.0843
 4867TIP3   OH236091   6.009   0.984   1.416 -0.0254  0.3364  0.2497
 4867TIP3    H136092   6.022   1.073   1.383  0.2365  0.0202 -0.5130
 4867TIP3    H236093   6.082   0.969   1.476  0.3718  0.3598 -0.2196
 4868TIP3   OH236094   0.423   3.198   0.942  0.3623 -0.2800  0.1277
 4868TIP3    H136095   0.454   3.284   0.971 -0.5683 -0.0308  0.3930
 4868TIP3    H236096   0.418   3.206   0.846 -1.1391  0.4650  0.2424
 4869TIP3   OH236097   2.979   0.050   2.709 -0.2098 -0.1981 -0.0417
 4869TIP3    H136098   2.926  -0.028   2.729 -0.6506 -0.4805 -2.0569
 4869TIP3    H236099   2.966   0.064   2.615  1.6927  0.9620 -0.1874
 4870TIP3   OH236100   0.336   2.997   5.695 -0.0342  0.1172  0.4460
 4870TIP3    H136101   0.385   2.920   5.723  0.5793  1.0282  2.0113
 4870TIP3    H236102   0.276   2.964   5.628  2.3864 -1.1136 -1.2591
 4871TIP3   OH236103   3.401   3.530   4.565 -0.0572  0.5067  0.1157
 4871TIP3    H136104   3.356   3.467   4.509  0.7775 -0.0320  0.0422
 4871TIP3    H236105   3.339   3.603   4.574 -1.0469 -0.3275  0.2273
 4872TIP3   OH236106   3.776   5.320  12.373 -0.0005 -0.6681  0.3005
 4872TIP3    H136107   3.728   5.296  12.294  0.4907  3.9082 -1.7174
 4872TIP3    H236108   3.708   5.344  12.437 -0.4162 -0.3686 -0.2515
 4873TIP3   OH236109   1.641   2.409  12.530  0.0338  0.6442 -0.2436
 4873TIP3    H136110   1.623   2.476  12.596  1.9220  1.1479 -0.2073
 4873TIP3    H236111   1.589   2.437  12.454 -0.3224  1.3556  0.2440
 4874TIP3   OH236112   6.361   5.946   3.068 -0.2669 -0.3280 -0.3702
 4874TIP3    H136113   6.427   5.954   3.136 -0.1858 -0.9715 -0.3694
 4874TIP3    H236114   6.400   5.988   2.991  0.1595 -0.7385 -0.3803
 4875TIP3   OH236115   5.891   3.646  13.206 -0.1401 -0.1867 -0.6564
 4875TIP3    H136116   5.873   3.588  13.280  2.5242 -0.2456  0.0231
 4875TIP3    H236117   5.913   3.730  13.246  0.1536  0.1118 -1.4344
 4876TIP3   OH236118   3.888   1.372  11.661  0.1557 -0.4822 -0.0589
 4876TIP3    H136119   3.852   1.357  11.573  0.7199  0.7817 -0.5382
 4876TIP3    H236120   3.853   1.458  11.686 -1.6045 -1.6714  1.8247
 4877TIP3   OH236121   0.419   3.966  16.196  0.3655 -0.8854  0.0066
 4877TIP3    H136122   0.412   3.902  16.267 -2.4554 -1.3044 -0.5140
 4877TIP3    H236123   0.346   4.026  16.212  0.0112 -0.6510 -2.2160
 4878TIP3   OH236124   2.574   4.642  15.760  0.3072  0.2222  0.2779
 4878TIP3    H136125   2.558   4.547  15.764  0.1915  0.2865  1.5870
 4878TIP3    H236126   2.593   4.658  15.667  1.7562 -1.2971  0.2627
 4879TIP3   OH236127   0.350   5.698  12.003  0.0152 -0.0032 -0.2521
 4879TIP3    H136128   0.362   5.632  12.070  0.2307 -0.8460 -1.0975
 4879TIP3    H236129   0.402   5.773  12.033  0.1530 -0.3900  0.4795
 4880TIP3   OH236130   0.188   1.052  12.325  0.1174  0.5429  0.0846
 4880TIP3    H136131   0.224   1.138  12.302 -0.0122  0.2913 -1.1228
 4880TIP3    H236132   0.260   1.008  12.372  0.7154  0.7735 -0.5887
 4881TIP3   OH236133   0.535   3.284  11.563 -0.2716  0.4544  0.4839
 4881TIP3    H136134   0.450   3.303  11.524 -0.6808 -0.4606  0.8988
 4881TIP3    H236135   0.580   3.231  11.498  1.0519  3.0749 -0.8714
 4882TIP3   OH236136   0.490   5.603  16.836 -0.0658  0.4934  0.0476
 4882TIP3    H136137   0.411   5.615  16.889  0.0547 -1.9578  0.9037
 4882TIP3    H236138   0.459   5.562  16.755  0.3096 -0.8879  0.5663
 4883TIP3   OH236139   4.963   6.710   0.700 -0.4398 -0.0633 -0.0683
 4883TIP3    H136140   4.929   6.670   0.780 -0.8804  0.3482 -0.0411
 4883TIP3    H236141   4.965   6.804   0.720 -2.4377  0.2774 -1.1811
 4884TIP3   OH236142   4.434   5.854  11.486 -0.3034 -0.0371  0.2338
 4884TIP3    H136143   4.517   5.902  11.495 -0.2515 -0.2851  1.2445
 4884TIP3    H236144   4.461   5.763  11.470 -0.4005  0.2116 -1.5535
 4885TIP3   OH236145   5.011   3.654   4.511 -0.3096 -0.9978  0.4904
 4885TIP3    H136146   5.017   3.640   4.606 -1.0155  0.8437  0.8623
 4885TIP3    H236147   5.098   3.631   4.478  1.1511  1.5451  2.1245
 4886TIP3   OH236148   1.324   1.881   2.229 -0.2550 -0.8821  0.0417
 4886TIP3    H136149   1.340   1.967   2.269  0.2201 -0.9160 -0.0593
 4886TIP3    H236150   1.241   1.852   2.266  0.9451 -1.6713  2.3149
 4887TIP3   OH236151   3.400   3.396  17.032 -0.1532 -0.1944 -0.1975
 4887TIP3    H136152   3.372   3.391  16.941  0.6213 -1.7095 -0.3921
 4887TIP3    H236153   3.494   3.413  17.027  0.2593 -2.0988  0.2298
 4888TIP3   OH236154   5.452   4.040   0.635 -0.2392 -0.2622 -0.1888
 4888TIP3    H136155   5.517   3.974   0.658 -0.0517  0.0365  0.1470
 4888TIP3    H236156   5.476   4.117   0.686 -0.5559  0.0146 -0.4486
 4889TIP3   OH236157   3.060   3.213   4.105  0.0583  0.5495 -0.0385
 4889TIP3    H136158   2.998   3.267   4.056  1.7095  2.3834 -0.2531
 4889TIP3    H236159   3.062   3.130   4.057 -1.4387  0.8042 -0.5977
 4890TIP3   OH236160   0.302   6.544  12.530  0.2557  0.4335 -0.8068
 4890TIP3    H136161   0.393   6.539  12.501  0.9358 -0.5883  1.3033
 4890TIP3    H236162   0.253   6.497  12.463  1.8228 -2.3827 -0.1522
 4891TIP3   OH236163   4.398   1.964  12.339 -0.7559 -0.2004 -0.2642
 4891TIP3    H136164   4.306   1.985  12.352 -0.2585  2.1493 -0.1964
 4891TIP3    H236165   4.417   1.993  12.250 -0.0645 -0.6618 -0.2746
 4892TIP3   OH236166   6.200   2.254   3.174  0.3779  0.6642  0.0127
 4892TIP3    H136167   6.138   2.220   3.239 -0.0516  0.1959 -0.6279
 4892TIP3    H236168   6.219   2.343   3.204 -1.8361  1.4034 -0.5783
 4893TIP3   OH236169   1.314   5.213  10.854  0.2271 -0.2123 -0.2992
 4893TIP3    H136170   1.279   5.297  10.883 -1.1704 -0.3859 -1.3449
 4893TIP3    H236171   1.289   5.152  10.923 -0.4183 -0.0919 -0.4179
 4894TIP3   OH236172   4.864   2.342   6.242 -0.2598 -0.7689  0.0040
 4894TIP3    H136173   4.959   2.336   6.251 -0.0843  1.0247 -0.2245
 4894TIP3    H236174   4.835   2.251   6.234  1.5128 -1.3258 -0.7567
 4895TIP3   OH236175   1.302   3.144   3.990  0.3616 -0.5692 -0.1750
 4895TIP3    H136176   1.386   3.158   3.946  1.1021  1.0898  1.6165
 4895TIP3    H236177   1.325   3.122   4.081 -1.1362 -0.5566  0.2445
 4896TIP3   OH236178   0.236   3.209   0.219  0.2511  0.5303  0.2460
 4896TIP3    H136179   0.226   3.304   0.207  0.4741  0.5744  0.3887
 4896TIP3    H236180   0.330   3.197   0.234  0.7258 -0.0517 -2.7044
 4897TIP3   OH236181   2.449   2.508  15.021  0.1127  0.5847 -0.1062
 4897TIP3    H136182   2.515   2.520  14.954  0.0672  0.0755 -0.2461
 4897TIP3    H236183   2.494   2.525  15.104  1.2344 -2.5237  0.0703
 4898TIP3   OH236184   5.251   0.272   4.801 -0.4772  0.0160 -0.1677
 4898TIP3    H136185   5.263   0.322   4.720  0.9952 -0.2335 -0.1307
 4898TIP3    H236186   5.227   0.185   4.771 -0.3090  0.0241 -0.3335
 4899TIP3   OH236187   4.328   0.532   3.097 -0.6525  0.5279 -0.2456
 4899TIP3    H136188   4.370   0.606   3.052 -0.6267  0.9764  0.5047
 4899TIP3    H236189   4.278   0.488   3.029  0.5372  0.3452 -1.0393
 4900TIP3   OH236190   3.366   3.725  15.304  0.1605 -0.6177 -0.7424
 4900TIP3    H136191   3.283   3.766  15.329  0.6550  1.2072 -1.8600
 4900TIP3    H236192   3.343   3.635  15.284 -0.7067 -1.5146  3.3870
 4901TIP3   OH236193   1.488   1.959  12.809  0.0322  0.4258  0.1147
 4901TIP3    H136194   1.482   1.906  12.729 -2.0482  0.5272  0.1608
 4901TIP3    H236195   1.541   2.034  12.784  0.8306 -0.3746 -0.6834
 4902TIP3   OH236196   5.640   4.599  12.016 -0.0039 -0.2974 -0.2777
 4902TIP3    H136197   5.692   4.519  12.025  2.2525  1.2192  1.1553
 4902TIP3    H236198   5.623   4.627  12.106 -1.5045  0.4029 -0.7499
 4903TIP3   OH236199   3.839   1.958  11.387  0.2578  0.1208 -0.0350
 4903TIP3    H136200   3.762   1.911  11.356 -0.5212  1.8481 -0.8377
 4903TIP3    H236201   3.824   1.970  11.481 -0.7869  0.9589 -0.2814
 4904TIP3   OH236202   2.726   1.940   2.544  0.4228 -0.0723  0.2133
 4904TIP3    H136203   2.649   1.902   2.586  1.8233 -0.7171  2.4174
 4904TIP3    H236204   2.692   2.012   2.491 -1.6268  0.2108  1.7696
 4905TIP3   OH236205   1.675   4.325  13.092  0.5956  0.1025  0.5313
 4905TIP3    H136206   1.763   4.309  13.056 -0.2065 -1.2842 -0.9311
 4905TIP3    H236207   1.683   4.300  13.184  1.4207 -1.3792  0.1041
 4906TIP3   OH236208   6.020   5.854   4.455 -0.4527 -0.0806 -0.6979
 4906TIP3    H136209   5.925   5.851   4.465 -0.3290 -2.1130  0.4826
 4906TIP3    H236210   6.040   5.782   4.395  0.4314 -0.9692  0.5837
 4907TIP3   OH236211   3.452   5.358   3.558  0.8416 -0.1662  0.0816
 4907TIP3    H136212   3.384   5.290   3.563 -0.3071  0.9947  1.1017
 4907TIP3    H236213   3.403   5.438   3.539  2.0855  0.5095 -0.3494
 4908TIP3   OH236214   0.089   4.986  14.536 -0.1870 -0.0601 -0.2296
 4908TIP3    H136215   0.055   4.979  14.447 -0.5569  0.2949 -0.1147
 4908TIP3    H236216   0.132   5.071  14.539  0.0319 -0.1713 -0.1341
 4909TIP3   OH236217   2.494   3.663  11.961 -0.6419  0.0620  0.0655
 4909TIP3    H136218   2.413   3.670  11.911 -0.4742  0.4358 -0.1581
 4909TIP3    H236219   2.495   3.572  11.993 -1.6097  0.3130  0.8728
 4910TIP3   OH236220   0.610   0.975  14.194  0.8373 -0.1251 -0.0832
 4910TIP3    H136221   0.518   0.972  14.168  1.2219 -1.4555 -1.4114
 4910TIP3    H236222   0.620   0.902  14.254  0.5585  1.3797  1.9087
 4911TIP3   OH236223   3.442   0.825   1.467  0.5686 -0.0938 -0.2021
 4911TIP3    H136224   3.472   0.874   1.544 -1.3764  0.1117  0.4644
 4911TIP3    H236225   3.510   0.841   1.401  1.9863  0.1892  1.2773
 4912TIP3   OH236226   1.272   6.628   4.036 -0.4381 -0.0324 -0.0064
 4912TIP3    H136227   1.267   6.545   3.988 -0.3542 -0.3352  0.4909
 4912TIP3    H236228   1.181   6.655   4.046 -0.3828  1.6314 -2.9810
 4913TIP3   OH236229   2.574   5.525   3.542 -0.6309  0.2186  0.6787
 4913TIP3    H136230   2.568   5.494   3.633  1.5514 -1.9349  0.1670
 4913TIP3    H236231   2.645   5.589   3.543  1.9021 -2.3902 -0.0207
 4914TIP3   OH236232   4.808   6.473   3.173 -0.4284 -0.1077 -0.0593
 4914TIP3    H136233   4.836   6.386   3.144 -0.0723 -0.0953  0.2392
 4914TIP3    H236234   4.716   6.478   3.148 -1.7520 -2.2051  3.5976
 4915TIP3   OH236235   1.679   5.651  16.392  0.4572  0.3032  0.3561
 4915TIP3    H136236   1.634   5.594  16.454 -0.6253  0.1133 -0.5509
 4915TIP3    H236237   1.735   5.593  16.341  0.4572  0.2775  0.3863
 4916TIP3   OH236238   4.052   0.757  12.255  0.3594  0.2456 -0.0692
 4916TIP3    H136239   3.976   0.757  12.312 -0.3970 -0.0367 -1.0470
 4916TIP3    H236240   4.117   0.704  12.301 -0.3462 -0.2423  0.3711
 4917TIP3   OH236241   3.171   4.384   4.889  0.0577  0.0725  0.5945
 4917TIP3    H136242   3.083   4.419   4.877  0.1030  0.7666  1.9940
 4917TIP3    H236243   3.197   4.415   4.976  2.2008  0.9970 -0.3060
 4918TIP3   OH236244   3.047   6.784  17.372 -0.3764  0.2409  0.5447
 4918TIP3    H136245   2.975   6.803  17.313 -2.6591 -1.0679  2.6893
 4918TIP3    H236246   3.084   6.869  17.394 -1.7459  1.0150 -0.0646
 4919TIP3   OH236247   2.466   2.562  12.435  0.4541 -0.4270  0.0202
 4919TIP3    H136248   2.495   2.588  12.523  0.4828 -0.9723  0.1770
 4919TIP3    H236249   2.450   2.468  12.443  1.4468 -0.6808 -0.8190
 4920TIP3   OH236250   4.030   2.397   2.758 -0.3608  0.4984  0.0095
 4920TIP3    H136251   4.085   2.441   2.823  0.9125  0.2208 -0.8340
 4920TIP3    H236252   3.953   2.369   2.806  1.4090 -1.4930  1.9464
 4921TIP3   OH236253   2.952   0.084   1.270  0.5178  0.4122  0.2129
 4921TIP3    H136254   2.927   0.106   1.360 -0.1683 -0.0785  0.1436
 4921TIP3    H236255   2.921  -0.006   1.257 -2.8994  1.6846 -1.7585
 4922TIP3   OH236256   4.341   6.768  11.573  0.2170  0.3922  0.1695
 4922TIP3    H136257   4.338   6.860  11.599 -1.5144  0.6028 -0.6215
 4922TIP3    H236258   4.325   6.770  11.478 -0.2875 -0.7430  0.2204
 4923TIP3   OH236259   4.602   4.594  12.115 -0.0301 -0.5554 -0.2415
 4923TIP3    H136260   4.529   4.539  12.086 -0.6954  0.4718 -0.5567
 4923TIP3    H236261   4.578   4.619  12.204 -2.1506  3.0770 -1.6359
 4924TIP3   OH236262   1.428   0.497  17.391  0.5141  0.3966  0.5473
 4924TIP3    H136263   1.460   0.508  17.302 -0.3405  1.5717  0.3567
 4924TIP3    H236264   1.357   0.432  17.383  2.6920 -2.2338  0.9773
 4925TIP3   OH236265   3.936   1.826  12.791 -0.2006 -0.3620  0.5150
 4925TIP3    H136266   3.872   1.817  12.720 -0.9623  0.2526  1.1047
 4925TIP3    H236267   3.906   1.902  12.841  0.8634 -0.2072  0.9450
 4926TIP3   OH236268   3.031   4.143   1.479  0.1406  0.4461  0.2976
 4926TIP3    H136269   3.122   4.168   1.462  1.2458 -2.9193  0.5972
 4926TIP3    H236270   3.037   4.059   1.524 -3.1504 -0.2476 -0.3052
 4927TIP3   OH236271   1.099   3.901   1.259  0.1510 -0.8294  0.0546
 4927TIP3    H136272   1.075   3.899   1.351 -2.2196 -1.9502 -0.5153
 4927TIP3    H236273   1.103   3.994   1.238  2.1080 -0.5067  1.5420
 4928TIP3   OH236274   1.190   3.553   2.819  0.1701 -0.4551 -0.1436
 4928TIP3    H136275   1.161   3.552   2.910  0.2272  2.1156 -0.0019
 4928TIP3    H236276   1.110   3.571   2.769  0.4421  0.1265 -0.3849
 4929TIP3   OH236277   4.101   1.553   4.401  0.1573 -0.1950 -0.0256
 4929TIP3    H136278   4.093   1.464   4.366 -0.4303 -0.5449  0.9604
 4929TIP3    H236279   4.056   1.550   4.486 -0.2522  1.1457 -0.1614
 4930TIP3   OH236280   1.835   1.017  15.076  0.1441  0.3491 -0.3688
 4930TIP3    H136281   1.764   0.963  15.108  0.9983 -1.6707 -1.6678
 4930TIP3    H236282   1.910   0.995  15.132  1.0872 -1.6307 -2.2430
 4931TIP3   OH236283   0.497   6.654  13.089 -0.1095 -0.2445 -0.1864
 4931TIP3    H136284   0.426   6.718  13.077  2.8031  3.3027 -0.4162
 4931TIP3    H236285   0.526   6.668  13.179  0.2164 -1.8198 -0.0176
 4932TIP3   OH236286   1.851   5.168   1.874  0.2468 -0.4675  0.5404
 4932TIP3    H136287   1.923   5.112   1.903  0.3452 -0.7644 -0.2397
 4932TIP3    H236288   1.886   5.257   1.875  0.0003 -0.3766  2.0748
 4933TIP3   OH236289   1.613   0.670  11.000  0.0858  0.3480 -0.0885
 4933TIP3    H136290   1.706   0.674  11.020  0.2532 -0.6312 -0.5997
 4933TIP3    H236291   1.591   0.577  11.005 -0.6045  0.4371 -1.0814
 4934TIP3   OH236292   6.385   2.523  12.612  0.1730  0.4557 -0.3706
 4934TIP3    H136293   6.426   2.528  12.699  1.5602 -0.8532 -0.8934
 4934TIP3    H236294   6.294   2.499  12.630  0.7374 -1.0694  0.7304
 4935TIP3   OH236295   3.859   6.062   0.621 -0.3741  0.3857  0.0573
 4935TIP3    H136296   3.853   5.972   0.589  0.6497  1.1356 -2.5028
 4935TIP3    H236297   3.769   6.095   0.616 -0.5327 -0.0954 -0.3548
 4936TIP3   OH236298   5.564   0.046   0.154  0.1664  0.0430  0.4853
 4936TIP3    H136299   5.566   0.113   0.086  0.3400  0.1315  0.5774
 4936TIP3    H236300   5.596   0.090   0.232 -1.3595  0.3360  0.9753
 4937TIP3   OH236301   1.788   2.849   3.774  0.1199  0.0187  0.0880
 4937TIP3    H136302   1.871   2.806   3.798  0.7687  0.8116 -0.6714
 4937TIP3    H236303   1.794   2.862   3.679 -1.9273 -2.0640 -0.4099
 4938TIP3   OH236304   5.208   0.998  16.418  0.0253  0.3661 -0.1814
 4938TIP3    H136305   5.248   1.078  16.385  2.4667 -0.9369 -0.6159
 4938TIP3    H236306   5.192   0.944  16.340 -1.7006  0.4097  0.0884
 4939TIP3   OH236307   2.375   3.090   1.615  0.0884  0.0230  0.5749
 4939TIP3    H136308   2.445   3.069   1.554 -1.1141 -0.6814 -0.6319
 4939TIP3    H236309   2.343   3.175   1.586 -0.1598 -0.0881  0.5149
 4940TIP3   OH236310   0.088   6.659  13.200  0.5271  0.0494  0.0933
 4940TIP3    H136311   0.003   6.648  13.158  0.5059  1.0875 -0.1814
 4940TIP3    H236312   0.073   6.638  13.292 -0.0532  0.3308  0.0626
 4941TIP3   OH236313   6.395   2.956  11.730 -0.3348  0.6323  0.0741
 4941TIP3    H136314   6.411   2.864  11.708 -2.3432  0.0541  0.7431
 4941TIP3    H236315   6.348   2.991  11.654  1.7103  1.5937 -0.8299
 4942TIP3   OH236316   5.959   6.135   5.789 -0.7538 -0.1191  0.3780
 4942TIP3    H136317   6.032   6.193   5.767 -0.7015 -0.1899  0.3637
 4942TIP3    H236318   5.914   6.180   5.861  0.1428 -0.7516  1.3713
 4943TIP3   OH236319   5.780   6.479   6.183  0.0717 -0.2594 -0.3960
 4943TIP3    H136320   5.736   6.561   6.201 -1.6466 -1.5840  2.0183
 4943TIP3    H236321   5.855   6.477   6.243  0.8885  0.0562 -1.3687
 4944TIP3   OH236322   4.832   4.302  15.145 -0.0117  0.0832  0.7955
 4944TIP3    H136323   4.895   4.368  15.174 -0.6148  1.4034 -0.7452
 4944TIP3    H236324   4.886   4.226  15.123  1.1774  1.4083 -1.1557
 4945TIP3   OH236325   1.266   1.391  11.726  0.7393 -0.1582  0.3343
 4945TIP3    H136326   1.361   1.379  11.722  1.1267  2.5166 -1.5379
 4945TIP3    H236327   1.236   1.367  11.639  0.1935  1.9280 -0.0990
 4946TIP3   OH236328   4.512   0.863   5.646 -0.5146 -0.0345  0.2001
 4946TIP3    H136329   4.595   0.904   5.620  0.2295 -1.7989 -0.3247
 4946TIP3    H236330   4.480   0.919   5.717 -0.4638  2.4479 -1.6005
 4947TIP3   OH236331   4.885   4.255   1.427  0.0362  0.5963 -0.1388
 4947TIP3    H136332   4.955   4.210   1.380 -0.8433  0.4226 -1.3199
 4947TIP3    H236333   4.914   4.346   1.431  0.8605  0.3174  0.4183
 4948TIP3   OH236334   5.398   0.192   0.347 -0.1366  0.2685 -0.4300
 4948TIP3    H136335   5.333   0.122   0.354 -1.7311  1.7209 -0.1916
 4948TIP3    H236336   5.392   0.223   0.257  0.7107 -0.0196 -0.5944
 4949TIP3   OH236337   3.657   5.665   4.725 -0.2324  0.2604  0.0387
 4949TIP3    H136338   3.687   5.588   4.676  2.4247  0.3004  1.4077
 4949TIP3    H236339   3.657   5.736   4.661 -0.7521 -0.4627 -0.7858
 4950TIP3   OH236340   2.685   3.758  16.841 -0.1157 -0.8050  0.4684
 4950TIP3    H136341   2.638   3.791  16.917 -0.9501  0.9656 -0.7572
 4950TIP3    H236342   2.639   3.677  16.819 -0.9421 -0.4528  0.8463
 4951TIP3   OH236343   0.369   5.017  16.354 -0.1398  0.0815 -0.4657
 4951TIP3    H136344   0.318   5.065  16.420 -0.4361  0.3675 -0.8970
 4951TIP3    H236345   0.449   5.068  16.345  0.4603 -0.6387  0.5769
 4952TIP3   OH236346   0.387   5.924  14.352  0.1027  0.2054  0.0751
 4952TIP3    H136347   0.400   5.965  14.267  0.7312 -1.8429 -0.8807
 4952TIP3    H236348   0.310   5.869  14.340  0.9166 -1.0532  0.4057
 4953TIP3   OH236349   5.102   4.427  12.540  0.2137 -0.3856  0.1459
 4953TIP3    H136350   5.172   4.471  12.493 -0.8235  1.4803  0.2470
 4953TIP3    H236351   5.045   4.392  12.472  0.0661  0.0813  0.0223
 4954TIP3   OH236352   4.673   2.777  11.765 -0.1923 -0.3426 -0.0691
 4954TIP3    H136353   4.726   2.702  11.739 -0.9677 -0.3288 -1.8703
 4954TIP3    H236354   4.609   2.741  11.827 -1.3244 -1.5061 -1.8093
 4955TIP3   OH236355   2.082   6.564   0.013 -0.1878 -0.0239  0.2946
 4955TIP3    H136356   2.099   6.621  -0.063  2.9967 -0.8974  0.2037
 4955TIP3    H236357   2.026   6.616   0.070  1.6759  2.8445 -0.2723
 4956TIP3   OH236358   3.423   5.385  14.117  0.2832  0.3903  0.2669
 4956TIP3    H136359   3.447   5.297  14.091  0.4553  0.1459  1.1915
 4956TIP3    H236360   3.455   5.441  14.047  1.4589 -0.1535  0.3396
 4957TIP3   OH236361   3.578   1.505   2.122 -0.0778  0.1160  0.5841
 4957TIP3    H136362   3.508   1.442   2.105  0.2504  0.1921 -1.2697
 4957TIP3    H236363   3.535   1.590   2.121  0.3172  0.5117 -3.8716
 4958TIP3   OH236364   2.016   4.991  14.789  0.2231  0.2111  0.2568
 4958TIP3    H136365   1.981   4.989  14.700 -0.2839 -0.2967  0.4634
 4958TIP3    H236366   1.948   4.951  14.842  0.3127  0.9507  0.9504
 4959TIP3   OH236367   0.427   2.081  16.791 -0.2654  0.2086 -0.5813
 4959TIP3    H136368   0.478   2.087  16.872 -1.0905 -1.6295  0.1376
 4959TIP3    H236369   0.359   2.147  16.799 -0.9116 -0.5745  0.6920
 4960TIP3   OH236370   1.333   1.273  17.233 -0.1972 -0.1721  0.2583
 4960TIP3    H136371   1.360   1.321  17.155  1.2815 -0.3709  0.6201
 4960TIP3    H236372   1.316   1.184  17.203  2.7144 -0.8914  0.4917
 4961TIP3   OH236373   0.494   6.301   4.075 -1.0076  0.1839  0.0910
 4961TIP3    H136374   0.588   6.296   4.057 -0.8474  2.1433  0.1254
 4961TIP3    H236375   0.461   6.213   4.055  1.0989 -1.1143  1.8305
 4962TIP3   OH236376   3.846   6.361  15.401 -0.1059 -0.5708  0.5036
 4962TIP3    H136377   3.849   6.413  15.321  0.2040  0.0616  0.9118
 4962TIP3    H236378   3.914   6.295  15.390 -1.3446 -1.7255 -0.5601
 4963TIP3   OH236379   4.657   4.447   3.230  0.1985  0.2158 -0.6197
 4963TIP3    H136380   4.622   4.438   3.319 -0.6086  0.3569 -0.9142
 4963TIP3    H236381   4.673   4.356   3.202 -0.6546  0.0979 -0.7537
 4964TIP3   OH236382   0.551   1.921  13.306  0.7841  0.2113 -0.5603
 4964TIP3    H136383   0.598   1.996  13.268  2.1516  0.7717  1.9908
 4964TIP3    H236384   0.464   1.955  13.326  1.2188  0.9819  0.0692
 4965TIP3   OH236385   5.813   3.004  17.248  0.0174  0.0896  0.6883
 4965TIP3    H136386   5.798   2.924  17.198 -2.6803  0.2829  1.0711
 4965TIP3    H236387   5.844   2.973  17.333  1.3277 -0.3839  0.0692
 4966TIP3   OH236388   2.830   6.438   5.611 -0.2447  0.1824 -0.3460
 4966TIP3    H136389   2.804   6.377   5.542  0.5825 -0.8220  0.1971
 4966TIP3    H236390   2.754   6.443   5.669 -0.9251  0.9907 -1.2712
 4967TIP3   OH236391   1.031   5.021   2.880 -0.1824  0.2564  0.3837
 4967TIP3    H136392   1.119   5.034   2.917 -0.1508  1.0340  0.0655
 4967TIP3    H236393   0.978   4.995   2.955  0.4384 -0.8423  0.4702
 4968TIP3   OH236394   2.321   1.568  12.971  0.0070  0.2051  0.3641
 4968TIP3    H136395   2.396   1.570  13.031 -0.0173 -0.9844  0.4545
 4968TIP3    H236396   2.245   1.587  13.027  0.1390  0.5219  0.4377
 4969TIP3   OH236397   6.072   2.306   2.929 -0.4372 -0.2364 -0.0866
 4969TIP3    H136398   6.126   2.296   3.008  1.1239  2.1045 -0.7800
 4969TIP3    H236399   6.119   2.258   2.861 -0.2441  0.1849 -0.2519
 4970TIP3   OH236400   5.468   3.683   1.799 -0.3194  0.2330 -0.0491
 4970TIP3    H136401   5.482   3.772   1.833  0.9493 -0.2563  0.7783
 4970TIP3    H236402   5.379   3.661   1.828 -0.3625  0.9418  0.3968
 4971TIP3   OH236403   6.493   2.812   3.214  0.0675 -0.6409  0.2122
 4971TIP3    H136404   6.489   2.907   3.198  1.0557 -0.3658  1.4486
 4971TIP3    H236405   6.494   2.773   3.127  1.5866  0.5881 -0.3693
 4972TIP3   OH236406   5.698   1.879   0.871  0.4516 -0.2540  0.6054
 4972TIP3    H136407   5.622   1.853   0.923 -1.4305  2.2149 -0.7032
 4972TIP3    H236408   5.718   1.968   0.901  0.3668  0.5809 -1.6338
 4973TIP3   OH236409   1.259   3.075   4.701 -0.3600  0.4490  0.4996
 4973TIP3    H136410   1.298   3.156   4.734 -1.4772  0.0217  3.1173
 4973TIP3    H236411   1.187   3.057   4.761 -0.8758 -1.8776 -0.7050
 4974TIP3   OH236412   6.453   1.130   1.832  0.1718 -0.7738  0.3735
 4974TIP3    H136413   6.358   1.133   1.825  0.1507  1.7398  0.7547
 4974TIP3    H236414   6.470   1.066   1.902 -1.3127 -0.3989  1.1142
 4975TIP3   OH236415   5.930   3.988   1.868  0.2653 -0.0019 -0.0915
 4975TIP3    H136416   5.878   3.921   1.912 -0.4528 -0.0806 -1.0365
 4975TIP3    H236417   5.940   4.057   1.934 -1.5998  0.3030 -0.0774
 4976TIP3   OH236418   6.179   2.809  12.894 -0.9734 -0.3216 -0.0228
 4976TIP3    H136419   6.154   2.768  12.811  1.9092 -1.6246 -0.3566
 4976TIP3    H236420   6.221   2.891  12.868  1.0953 -1.3253 -0.0337
 4977TIP3   OH236421   6.215   6.725   5.350  0.1040 -0.2617 -0.6904
 4977TIP3    H136422   6.305   6.730   5.382 -0.1990  1.4623 -0.0276
 4977TIP3    H236423   6.196   6.631   5.349  1.7381 -0.6320 -0.3811
 4978TIP3   OH236424   5.113   2.795   4.084  0.4246  0.2003  0.5087
 4978TIP3    H136425   5.107   2.763   3.994 -1.7498  0.8345  0.3777
 4978TIP3    H236426   5.026   2.827   4.104  0.7358 -0.3170  3.0198
 4979TIP3   OH236427   0.110   2.211   2.827  0.2213 -0.7717 -0.3624
 4979TIP3    H136428   0.021   2.224   2.795  0.1936 -1.3610 -0.5276
 4979TIP3    H236429   0.163   2.202   2.748  0.6153  0.6867 -0.2969
 4980TIP3   OH236430   0.709   1.409   2.226  0.1251 -0.7779 -0.2188
 4980TIP3    H136431   0.711   1.478   2.292  1.2145  0.1894 -1.1984
 4980TIP3    H236432   0.732   1.330   2.273 -3.2354 -0.9662  1.3749
 4981TIP3   OH236433   0.939   4.315   4.690 -0.2445  0.1159  0.3296
 4981TIP3    H136434   0.853   4.282   4.665 -0.8043  1.3781  0.5139
 4981TIP3    H236435   0.959   4.382   4.625  1.7744 -1.8744 -1.2553
 4982TIP3   OH236436   4.434   5.804   4.605 -0.1565 -0.1801 -0.3454
 4982TIP3    H136437   4.404   5.718   4.576 -2.0769  0.0944  0.6198
 4982TIP3    H236438   4.486   5.837   4.532  1.7015 -2.6301 -0.2488
 4983TIP3   OH236439   4.554   3.296  13.309  0.8641  0.2845 -0.2071
 4983TIP3    H136440   4.602   3.319  13.229  1.5765  0.2987  0.2085
 4983TIP3    H236441   4.609   3.230  13.351  0.2774 -0.0419  0.0562
 4984TIP3   OH236442   1.253   1.041  16.004 -0.1524 -0.1053 -0.8253
 4984TIP3    H136443   1.170   1.010  15.967 -0.7508  0.2348  0.2146
 4984TIP3    H236444   1.281   0.970  16.062 -0.6972  0.5683  0.2939
 4985TIP3   OH236445   2.243   1.932  13.220  0.7175  0.2922 -0.8893
 4985TIP3    H136446   2.161   1.893  13.191  2.2437 -1.6974 -2.8671
 4985TIP3    H236447   2.249   2.015  13.172 -0.4260  0.8123 -0.1666
 4986TIP3   OH236448   3.434   4.481  14.088 -0.2745  0.3052 -0.3051
 4986TIP3    H136449   3.370   4.410  14.089  0.2731 -0.2228 -1.0552
 4986TIP3    H236450   3.512   4.444  14.129 -0.2621  0.7484  0.0713
 4987TIP3   OH236451   0.284   6.741   4.390 -0.3025 -0.3270  0.2763
 4987TIP3    H136452   0.300   6.707   4.478 -1.7666 -2.0229 -0.0676
 4987TIP3    H236453   0.372   6.750   4.352  0.2940 -0.6067  1.5290
 4988TIP3   OH236454   6.699   6.365   0.018  0.2720 -0.2012  0.4696
 4988TIP3    H136455   6.687   6.420   0.095  1.6373  1.3511 -0.3439
 4988TIP3    H236456   6.616   6.370  -0.029  0.3795  1.2464  0.3932
 4989TIP3   OH236457   2.684   5.275   4.361 -0.1826  0.0386  0.6390
 4989TIP3    H136458   2.751   5.273   4.429 -0.5216  0.1457  0.9784
 4989TIP3    H236459   2.638   5.357   4.375 -0.1958  0.1018  0.2237
 4990TIP3   OH236460   4.694   5.052  17.212 -0.2265  0.0153  0.1811
 4990TIP3    H136461   4.626   5.046  17.145  0.3563 -0.0753 -0.4254
 4990TIP3    H236462   4.709   5.146  17.223  0.6993  0.0319 -0.9224
 4991TIP3   OH236463   2.014   0.907  15.279  0.0695  0.0426  0.6348
 4991TIP3    H136464   1.945   0.956  15.324 -0.8894  0.0193 -0.7522
 4991TIP3    H236465   2.083   0.972  15.263 -0.9944  0.8973 -0.7764
 4992TIP3   OH236466   5.045   6.649  11.182 -0.2130 -0.0085  0.4579
 4992TIP3    H136467   5.119   6.633  11.241  0.7313  1.3096 -0.3051
 4992TIP3    H236468   5.084   6.694  11.107 -1.3733 -1.6913 -1.2314
 4993TIP3   OH236469   3.844   2.786  16.605  0.0278  0.1575 -0.2419
 4993TIP3    H136470   3.864   2.694  16.623 -0.4453 -0.2995 -1.8733
 4993TIP3    H236471   3.871   2.832  16.684  2.2977 -1.0941 -0.2086
 4994TIP3   OH236472   3.961   2.897   0.793 -0.3925 -0.5151  1.0145
 4994TIP3    H136473   3.877   2.911   0.749  0.1560  0.5896  0.2949
 4994TIP3    H236474   3.993   2.814   0.759 -1.3950 -1.1846  1.6434
 4995TIP3   OH236475   4.505   2.172   4.469  0.0710 -0.5436  0.5641
 4995TIP3    H136476   4.436   2.214   4.520  0.0485 -0.8159  0.7583
 4995TIP3    H236477   4.586   2.211   4.501 -0.0314  0.3072 -0.1631
 4996TIP3   OH236478   5.646   3.687  16.028 -0.4541 -0.5472  0.1797
 4996TIP3    H136479   5.665   3.593  16.027 -0.4352 -0.5443 -0.4968
 4996TIP3    H236480   5.570   3.696  15.970 -0.8595 -0.2244  0.7504
 4997TIP3   OH236481   5.672   4.194  16.586  0.2833 -0.1175  0.4438
 4997TIP3    H136482   5.638   4.132  16.522 -0.7955 -2.7196  3.3054
 4997TIP3    H236483   5.749   4.152  16.623  0.1936  0.7172  1.6690
 4998TIP3   OH236484   4.418   5.088   3.116 -0.5169  0.5774 -0.3796
 4998TIP3    H136485   4.378   5.001   3.115 -1.8970  1.1793  0.3611
 4998TIP3    H236486   4.432   5.109   3.024 -0.2378 -0.3932 -0.5665
 4999TIP3   OH236487   3.495   3.457  11.413  0.0693 -0.2016  0.4631
 4999TIP3    H136488   3.533   3.527  11.466 -3.4868  1.5150  1.0712
 4999TIP3    H236489   3.544   3.460  11.331  0.7296  2.3884  0.8601
 5000TIP3   OH236490   5.825   5.869   5.539  0.0648  0.2888  0.4262
 5000TIP3    H136491   5.788   5.951   5.507 -0.9503  0.1028  1.0631
 5000TIP3    H236492   5.804   5.805   5.471  3.2287  0.9801 -1.4309
 5001TIP3   OH236493   1.125   2.030   0.761 -0.0626  0.2525  0.3442
 5001TIP3    H136494   1.189   2.016   0.831 -0.6460 -0.3025  0.7766
 5001TIP3    H236495   1.089   1.944   0.744 -1.0977  0.6426  0.4936
 5002TIP3   OH236496   4.536   0.406   3.590  0.4102 -0.1641  0.5452
 5002TIP3    H136497   4.481   0.336   3.624 -3.2931  2.1524 -0.1418
 5002TIP3    H236498   4.579   0.368   3.513 -0.8732 -1.8536  0.6137
 5003TIP3   OH236499   4.484   4.472   2.924  0.1036  0.1910 -0.1180
 5003TIP3    H136500   4.389   4.477   2.931  0.2004 -0.2433  3.8285
 5003TIP3    H236501   4.510   4.555   2.884 -1.8907  0.7425 -0.3307
 5004TIP3   OH236502   2.484   4.416  15.019  0.1372 -0.8016  0.1093
 5004TIP3    H136503   2.579   4.413  15.028  0.0804 -0.4957  0.9013
 5004TIP3    H236504   2.468   4.388  14.929  1.1157  1.1145 -0.7463
 5005TIP3   OH236505   5.445   4.568   6.555  0.0400  0.1398 -0.1437
 5005TIP3    H136506   5.491   4.645   6.587  1.2089 -1.3563  1.9989
 5005TIP3    H236507   5.372   4.555   6.617 -0.0066 -0.6019 -0.3423
 5006TIP3   OH236508   0.894   5.982   4.187  0.2849 -0.1297 -0.2843
 5006TIP3    H136509   0.966   5.993   4.124  0.6194  0.2083  0.1536
 5006TIP3    H236510   0.911   5.898   4.228  0.0847 -0.3355 -0.6168
 5007TIP3   OH236511   3.808   0.632   3.236 -0.3324 -0.0331  0.0956
 5007TIP3    H136512   3.796   0.552   3.184 -0.3254  1.4496 -2.3959
 5007TIP3    H236513   3.719   0.665   3.249 -0.2323  0.7824 -1.0828
 5008TIP3   OH236514   3.555   0.867  12.338  0.1174  0.2340 -0.0898
 5008TIP3    H136515   3.506   0.925  12.281 -0.8451  0.8454  1.2916
 5008TIP3    H236516   3.614   0.924  12.386 -1.9156  0.4412  2.4109
 5009TIP3   OH236517   3.900   1.792   1.837 -0.0019  0.0670  0.0500
 5009TIP3    H136518   3.929   1.866   1.784  0.6824  0.1219  0.4983
 5009TIP3    H236519   3.966   1.724   1.822 -0.1241 -0.1258  0.3767
 5010TIP3   OH236520   3.720   6.070  12.210 -0.2649 -0.0770  0.6324
 5010TIP3    H136521   3.740   6.058  12.303  0.1534  0.9614  0.6962
 5010TIP3    H236522   3.804   6.091  12.170 -0.2614 -1.5043 -0.1829
 5011TIP3   OH236523   2.887   2.932  16.389 -0.1595  0.1397  0.1185
 5011TIP3    H136524   2.907   2.910  16.298  1.0980  1.2269  0.0920
 5011TIP3    H236525   2.826   3.006  16.383  0.0121  0.2851  0.1479
 5012TIP3   OH236526   1.287   2.731   7.048 -0.1074 -0.6570 -0.5653
 5012TIP3    H136527   1.234   2.652   7.052  1.3886 -1.6994 -0.5896
 5012TIP3    H236528   1.255   2.778   6.971 -0.5726 -1.5677 -0.9323
 5013TIP3   OH236529   3.641   1.604   0.298 -0.3174 -0.4700  0.1680
 5013TIP3    H136530   3.637   1.645   0.385 -1.8370 -0.8493  0.2940
 5013TIP3    H236531   3.735   1.592   0.282  0.0556  0.8806  1.1461
 5014TIP3   OH236532   3.334   2.934   5.624  0.4220 -0.2583  0.1336
 5014TIP3    H136533   3.390   2.959   5.551  0.9435 -0.3023  0.5099
 5014TIP3    H236534   3.329   3.012   5.679  0.3330 -0.3376  0.2384
 5015TIP3   OH236535   6.498   0.741  11.844  0.1200  0.0272 -0.3125
 5015TIP3    H136536   6.508   0.710  11.934 -0.7335 -2.3177 -0.9613
 5015TIP3    H236537   6.421   0.799  11.847  1.0696  1.3055  0.7197
 5016TIP3   OH236538   2.187   4.809  16.433  0.2071 -0.0065 -0.0875
 5016TIP3    H136539   2.114   4.842  16.381 -0.9317 -2.2210 -0.0430
 5016TIP3    H236540   2.153   4.728  16.472  2.7128 -1.1737 -0.1341
 5017TIP3   OH236541   5.397   6.617   1.413  0.3685 -0.6453 -0.2273
 5017TIP3    H136542   5.345   6.683   1.367  0.0229 -0.7182  0.0522
 5017TIP3    H236543   5.458   6.668   1.467  0.9827 -0.5593 -0.9861
 5018TIP3   OH236544   4.044   0.408   0.309 -0.0804  0.1829 -0.3953
 5018TIP3    H136545   4.027   0.314   0.318 -2.0432  0.0544 -3.6617
 5018TIP3    H236546   4.100   0.414   0.231  0.1114  1.7262 -0.1658
 5019TIP3   OH236547   3.057   6.149  12.419  0.3793  0.3866 -0.2946
 5019TIP3    H136548   3.071   6.110  12.332  2.0880 -0.4663  0.3147
 5019TIP3    H236549   3.019   6.079  12.471  1.8776  0.0072  0.3444
 5020TIP3   OH236550   4.518   1.402   4.059  0.4396  0.0394  0.5476
 5020TIP3    H136551   4.473   1.389   4.143  1.1940  1.5308  1.2155
 5020TIP3    H236552   4.530   1.314   4.024  0.7272 -0.6734  2.3483
 5021TIP3   OH236553   0.676   0.752  14.347 -0.0595  0.0572 -0.3211
 5021TIP3    H136554   0.696   0.700  14.269 -0.9856  1.2034 -1.3762
 5021TIP3    H236555   0.655   0.688  14.414  0.5813 -0.9596 -1.0619
 5022TIP3   OH236556   4.081   5.835  13.327 -0.2778 -0.1606 -0.3964
 5022TIP3    H136557   4.146   5.850  13.258 -2.0977  1.2472 -1.9195
 5022TIP3    H236558   4.108   5.893  13.398  0.6796 -0.3634 -0.5741
 5023TIP3   OH236559   6.204   4.136  12.066  0.6483 -0.5132 -0.3886
 5023TIP3    H136560   6.179   4.107  12.154  0.6906 -2.9963 -1.1069
 5023TIP3    H236561   6.122   4.135  12.016  0.8215 -0.3176 -0.6835
 5024TIP3   OH236562   5.282   6.257   1.977 -0.6526 -0.6608 -0.1966
 5024TIP3    H136563   5.288   6.162   1.988  1.9259 -0.7257 -1.2673
 5024TIP3    H236564   5.272   6.269   1.882 -0.7807  0.1354 -0.0865
 5025TIP3   OH236565   0.273   2.821   4.706 -1.0227 -0.1442 -0.2927
 5025TIP3    H136566   0.316   2.861   4.630  0.0823  3.3820  1.9370
 5025TIP3    H236567   0.187   2.861   4.709  0.2087  2.7423  2.1547
 5026TIP3   OH236568   4.361   0.788   1.513  0.3035  0.2031 -0.5367
 5026TIP3    H136569   4.439   0.733   1.501 -0.3617 -1.6083  2.3519
 5026TIP3    H236570   4.377   0.833   1.596 -1.7910 -0.4661  0.2949
 5027TIP3   OH236571   3.766   2.747   2.752  0.0883  0.3451 -0.7326
 5027TIP3    H136572   3.788   2.676   2.692 -0.8962 -1.3967  0.8619
 5027TIP3    H236573   3.835   2.812   2.739  2.4804 -1.9998 -0.5161
 5028TIP3   OH236574   5.937   4.736  14.164 -0.1216  0.4281  0.1225
 5028TIP3    H136575   5.889   4.817  14.183 -0.4191  0.8586 -2.1320
 5028TIP3    H236576   5.883   4.666  14.201 -0.2334  1.1944  1.4546
 5029TIP3   OH236577   0.076   4.506  13.821  0.1223  0.2899 -0.4046
 5029TIP3    H136578   0.129   4.548  13.754  0.5896  0.7637  0.2457
 5029TIP3    H236579  -0.014   4.531  13.799 -0.0455 -1.8597 -2.4570
 5030TIP3   OH236580   0.176   3.463  15.585 -0.2373 -0.6390  0.0890
 5030TIP3    H136581   0.096   3.416  15.560 -0.3791 -0.0006 -0.6885
 5030TIP3    H236582   0.145   3.533  15.643 -0.2252 -0.5198 -0.0467
 5031TIP3   OH236583   4.465   3.022   4.451  0.6925 -0.0839  0.0031
 5031TIP3    H136584   4.539   2.991   4.503  1.4427 -1.5135 -1.7954
 5031TIP3    H236585   4.402   2.950   4.454  1.2087 -0.6830 -1.8418
 5032TIP3   OH236586   2.236   5.411   2.686  0.4040  0.3154 -0.3314
 5032TIP3    H136587   2.161   5.402   2.743 -0.7657 -2.1780 -2.0733
 5032TIP3    H236588   2.312   5.405   2.744 -0.7301 -0.4290  1.1219
 5033TIP3   OH236589   0.855   0.706   4.784 -0.0818 -0.0225 -0.5110
 5033TIP3    H136590   0.836   0.792   4.822 -0.5928 -0.1831 -0.4061
 5033TIP3    H236591   0.947   0.712   4.757  0.8765 -0.4965  2.3385
 5034TIP3   OH236592   5.509   4.568   0.233  0.2625  0.1065 -0.2593
 5034TIP3    H136593   5.538   4.565   0.142  1.5425  0.6811  0.1056
 5034TIP3    H236594   5.589   4.552   0.284 -0.1479  1.2149  0.7794
 5035TIP3   OH236595   1.434   4.884  11.955 -0.2168  0.0533 -0.1496
 5035TIP3    H136596   1.502   4.939  11.993 -0.1809  0.5766 -0.9569
 5035TIP3    H236597   1.481   4.808  11.920  0.0565  0.7172 -1.2837
 5036TIP3   OH236598   0.763   2.065  11.286  0.2136  0.0848  0.1394
 5036TIP3    H136599   0.735   2.038  11.374 -0.2706  0.0696 -0.0188
 5036TIP3    H236600   0.682   2.089  11.241  0.3553 -0.7280 -0.5877
 5037TIP3   OH236601   3.249   0.339   4.614  0.0636 -0.3014  0.0084
 5037TIP3    H136602   3.215   0.313   4.700 -0.6395 -1.2806 -0.5533
 5037TIP3    H236603   3.179   0.394   4.577  0.3670  0.1193  0.0538
 5038TIP3   OH236604   4.257   0.289   1.348 -0.1173  0.4091 -0.5004
 5038TIP3    H136605   4.196   0.223   1.379 -1.1406  1.4203 -0.3067
 5038TIP3    H236606   4.259   0.277   1.253  1.1918 -1.1313 -0.3129
 5039TIP3   OH236607   0.595   1.434   1.121  0.4597  0.2501 -0.6375
 5039TIP3    H136608   0.546   1.404   1.044  0.9809  0.7109 -1.1520
 5039TIP3    H236609   0.605   1.355   1.174 -0.3400  0.0270 -0.7931
 5040TIP3   OH236610   2.751   1.741   5.583  0.3177 -0.3607  0.1995
 5040TIP3    H136611   2.821   1.807   5.580  0.3815 -0.4000  0.6921
 5040TIP3    H236612   2.702   1.754   5.502  0.0993  0.5525  0.4657
 5041TIP3   OH236613   0.524   2.963   1.991  0.0168  0.0984  0.3310
 5041TIP3    H136614   0.437   2.928   1.971 -0.1270 -0.1177  1.2880
 5041TIP3    H236615   0.562   2.984   1.906 -1.3340  1.0786 -0.0570
 5042TIP3   OH236616   6.187   5.507  13.699  0.1664 -0.4671 -0.0688
 5042TIP3    H136617   6.098   5.509  13.665 -1.0415  0.7032  2.8235
 5042TIP3    H236618   6.188   5.434  13.761  0.4219  0.8902  1.6241
 5043TIP3   OH236619   6.666   6.000  15.008 -0.5212 -1.0831 -0.7601
 5043TIP3    H136620   6.748   5.952  15.022  0.1623  0.6543  2.0671
 5043TIP3    H236621   6.693   6.092  14.999 -2.0775 -0.6194 -1.0606
 5044TIP3   OH236622   5.614   2.248   3.794 -0.3033 -0.8080 -0.3424
 5044TIP3    H136623   5.683   2.182   3.799  0.2263 -0.2001  0.7892
 5044TIP3    H236624   5.576   2.251   3.882 -0.0914  0.6057 -0.2714
 5045TIP3   OH236625   4.918   1.941  16.277  0.1420 -0.0325 -0.2308
 5045TIP3    H136626   4.880   2.000  16.341  0.3174 -2.3216  2.1617
 5045TIP3    H236627   5.005   1.977  16.259 -0.8265  1.9687 -1.1383
 5046TIP3   OH236628   5.256   3.106   2.852 -0.3821 -0.3477 -0.0133
 5046TIP3    H136629   5.301   3.022   2.848  0.1151 -0.0799 -0.0392
 5046TIP3    H236630   5.247   3.124   2.946  0.0750 -0.1326 -0.0072
 5047TIP3   OH236631   1.945   6.223  12.601 -0.1777  0.2003  0.6229
 5047TIP3    H136632   1.955   6.259  12.513 -1.4265  0.6967  0.6635
 5047TIP3    H236633   1.984   6.136  12.596 -2.1874 -0.7036 -1.0647
 5048TIP3   OH236634   1.291   4.536  16.953 -0.6009  0.2309 -0.0330
 5048TIP3    H136635   1.196   4.547  16.962 -0.5241  1.9312 -0.9505
 5048TIP3    H236636   1.302   4.487  16.872 -0.7052 -1.0834  0.7143
 5049TIP3   OH236637   0.887   1.388  13.680  0.1347  0.1180  0.2056
 5049TIP3    H136638   0.811   1.431  13.719 -0.7675 -0.9259 -0.3664
 5049TIP3    H236639   0.863   1.296  13.675  1.6310 -0.3229  0.4526
 5050TIP3   OH236640   5.828   5.767  12.900  0.1933  0.2179 -0.1688
 5050TIP3    H136641   5.783   5.682  12.899  0.0659  0.2682  0.6900
 5050TIP3    H236642   5.858   5.777  12.990  0.6763  0.8471 -0.3939
 5051TIP3   OH236643   6.398   2.396  12.175  0.2558 -0.3336  0.2253
 5051TIP3    H136644   6.409   2.310  12.134  1.8310 -0.1320  0.1734
 5051TIP3    H236645   6.377   2.455  12.102 -1.4298 -0.7375  0.3344
 5052TIP3   OH236646   1.867   1.334   4.203  0.4619 -0.0314 -0.2579
 5052TIP3    H136647   1.918   1.327   4.122 -1.9460  0.3407 -1.9299
 5052TIP3    H236648   1.920   1.289   4.269  2.3749 -0.6440 -2.0868
 5053TIP3   OH236649   4.372   1.292   3.141 -0.0495 -0.3985 -0.8987
 5053TIP3    H136650   4.388   1.375   3.186  1.5277 -1.6401  1.0086
 5053TIP3    H236651   4.319   1.241   3.202  0.0520 -1.2513 -1.5017
 5054TIP3   OH236652   2.397   3.033  15.522  0.1156 -0.9023 -0.4290
 5054TIP3    H136653   2.338   3.075  15.459 -0.0321 -1.4982 -0.6974
 5054TIP3    H236654   2.345   3.026  15.602  0.3565 -0.0004 -0.1899
 5055TIP3   OH236655   2.046   2.530   3.352 -0.0283 -0.3666 -0.4616
 5055TIP3    H136656   2.000   2.577   3.282  1.2317  0.7307 -0.5905
 5055TIP3    H236657   2.022   2.578   3.431  0.4104 -0.1480 -0.4570
 5056TIP3   OH236658   4.331   3.622   1.817 -0.6928 -0.5020  0.0622
 5056TIP3    H136659   4.371   3.668   1.891  0.7582  0.7827 -1.4409
 5056TIP3    H236660   4.243   3.601   1.847 -0.5481  1.0500  1.7395
 5057TIP3   OH236661   5.595   4.190   6.624  0.6628 -0.1186 -0.2330
 5057TIP3    H136662   5.579   4.096   6.619  1.8299 -0.2869 -1.1231
 5057TIP3    H236663   5.689   4.199   6.615  0.5778  1.1377 -0.0243
 5058TIP3   OH236664   5.023   6.519   5.824  0.2595  0.2310  0.0459
 5058TIP3    H136665   5.056   6.591   5.879 -0.1150 -0.0093  0.5921
 5058TIP3    H236666   5.038   6.440   5.876 -0.8968  0.0862  0.1915
 5059TIP3   OH236667   4.537   0.642   3.822  0.6700 -0.1166  0.6858
 5059TIP3    H136668   4.494   0.713   3.773  0.6169  1.1240  2.4304
 5059TIP3    H236669   4.532   0.566   3.764 -3.2311  0.1241  0.4027
 5060TIP3   OH236670   1.748   3.602   2.182 -0.5496  0.3555 -0.1289
 5060TIP3    H136671   1.804   3.525   2.171 -1.5586 -0.5592  0.8521
 5060TIP3    H236672   1.805   3.676   2.163  0.6309 -0.5980 -0.4426
 5061TIP3   OH236673   4.514   6.768   1.534 -0.5012  0.0373  0.2350
 5061TIP3    H136674   4.475   6.777   1.621 -2.4080 -1.1194 -0.4405
 5061TIP3    H236675   4.551   6.679   1.534 -0.3209  0.1112 -0.0639
 5062TIP3   OH236676   5.718   1.764  16.379 -0.1111 -0.1893 -0.0119
 5062TIP3    H136677   5.752   1.731  16.296 -1.6652 -1.1860 -0.2931
 5062TIP3    H236678   5.645   1.822  16.354 -0.2111 -0.0287  0.6383
 5063TIP3   OH236679   6.709   1.633  16.274 -0.6133  0.1513 -0.4076
 5063TIP3    H136680   6.777   1.581  16.317  1.5481  2.0851 -1.2540
 5063TIP3    H236681   6.654   1.569  16.228 -0.7033 -1.6485  2.0062
 5064TIP3   OH236682   5.896   2.797   2.320  0.1898  0.0054  0.3274
 5064TIP3    H136683   5.845   2.839   2.250 -1.6181 -0.1353  1.4754
 5064TIP3    H236684   5.841   2.808   2.398  1.2675 -1.4894  1.3364
 5065TIP3   OH236685   1.486   0.450  12.651 -0.0649  0.2834  0.2205
 5065TIP3    H136686   1.485   0.475  12.743 -0.6663 -0.9848  0.5814
 5065TIP3    H236687   1.396   0.463  12.622 -0.2436 -0.8261  0.2526
 5066TIP3   OH236688   0.233   1.625   4.224 -0.4446 -0.1916  0.2058
 5066TIP3    H136689   0.202   1.676   4.299 -1.5776  0.0731 -0.4203
 5066TIP3    H236690   0.169   1.555   4.214 -1.2244  0.7019 -1.4723
 5067TIP3   OH236691   2.291   1.344   4.612 -0.2919 -0.0249 -0.0639
 5067TIP3    H136692   2.372   1.378   4.651 -0.8147  1.9885 -0.5749
 5067TIP3    H236693   2.221   1.385   4.664 -0.9756 -0.4109 -0.6628
 5068TIP3   OH236694   3.617   5.275   1.232  0.1108 -0.6738 -0.0443
 5068TIP3    H136695   3.695   5.255   1.284  0.3472  1.7669  0.6790
 5068TIP3    H236696   3.642   5.351   1.179 -1.9992  0.7618  0.8824
 5069TIP3   OH236697   4.264   4.617  16.507  0.1623  0.5022 -0.0910
 5069TIP3    H136698   4.333   4.605  16.571 -1.4478  0.1363  1.6511
 5069TIP3    H236699   4.186   4.639  16.558 -1.2832 -0.1660 -1.8770
 5070TIP3   OH236700   3.384   3.423  15.463  0.0977  0.5122  0.2602
 5070TIP3    H136701   3.333   3.496  15.497  0.2808  0.7973 -0.0797
 5070TIP3    H236702   3.352   3.347  15.512  1.6768  1.1814  2.4595
 5071TIP3   OH236703   4.243   0.003   1.869 -0.1518 -0.0812  0.4063
 5071TIP3    H136704   4.192   0.065   1.815 -0.4443 -0.5253  0.1668
 5071TIP3    H236705   4.213   0.020   1.958  1.0662  1.3649  0.5832
 5072TIP3   OH236706   5.553   4.518   2.642 -0.5627  0.6460 -0.1434
 5072TIP3    H136707   5.562   4.531   2.548  0.4442  0.2231 -0.1173
 5072TIP3    H236708   5.460   4.500   2.655 -1.0899  2.6946 -0.7866
 5073TIP3   OH236709   4.717   6.013  14.738  0.5683  0.0192 -0.3653
 5073TIP3    H136710   4.722   6.055  14.653 -0.9573  1.8146  0.3740
 5073TIP3    H236711   4.768   6.069  14.796  2.0195 -1.4558 -0.1390
 5074TIP3   OH236712   6.069   3.124   0.802 -0.6015 -0.3386 -0.5305
 5074TIP3    H136713   6.094   3.184   0.872 -0.4794  0.4257 -1.2043
 5074TIP3    H236714   5.979   3.149   0.780 -0.4792 -0.2558 -0.9528
 5075TIP3   OH236715   5.309   1.610   2.173 -0.3607 -0.2253 -0.0207
 5075TIP3    H136716   5.392   1.608   2.125  0.2460  1.8021  0.8524
 5075TIP3    H236717   5.324   1.551   2.248 -0.1292 -0.7520 -0.4679
 5076TIP3   OH236718   1.149   1.292  14.422  0.1072  0.9527  0.2782
 5076TIP3    H136719   1.077   1.249  14.375 -0.6102  1.5451  0.8050
 5076TIP3    H236720   1.217   1.226  14.427 -1.1820 -0.3808  1.5693
 5077TIP3   OH236721   0.748   2.920  11.927 -0.0984 -0.3003  0.1918
 5077TIP3    H136722   0.771   2.831  11.898  0.5189  0.0049 -0.2669
 5077TIP3    H236723   0.809   2.977  11.880  0.7112  0.2404  1.8214
 5078TIP3   OH236724   3.883   1.096  10.837  0.2207  0.3627 -0.3218
 5078TIP3    H136725   3.976   1.115  10.842  1.1055 -3.5180  0.8977
 5078TIP3    H236726   3.865   1.085  10.743  1.2493 -0.0199 -0.4762
 5079TIP3   OH236727   1.397   5.718  15.249 -0.3276 -0.4309  0.2175
 5079TIP3    H136728   1.344   5.647  15.283 -2.2238  0.6161 -0.4076
 5079TIP3    H236729   1.484   5.704  15.288 -1.0544 -2.1574  1.3373
 5080TIP3   OH236730   0.510   4.959  17.113 -0.8219 -0.1125  0.2472
 5080TIP3    H136731   0.490   4.923  17.199  0.2755 -2.1767 -0.2915
 5080TIP3    H236732   0.599   4.993  17.122 -0.8994  0.1450  0.0520
 5081TIP3   OH236733   4.392   1.229   5.733  0.2766 -0.5993 -0.5372
 5081TIP3    H136734   4.444   1.306   5.711  1.0572 -0.8322  0.4035
 5081TIP3    H236735   4.404   1.170   5.659  2.6696 -1.2882  0.3115
 5082TIP3   OH236736   0.576   1.002   2.323 -0.7065 -0.2234 -0.5796
 5082TIP3    H136737   0.611   1.037   2.242 -0.0439  0.7341  0.0938
 5082TIP3    H236738   0.612   0.913   2.329  0.5548  0.2795 -0.5410
 5083TIP3   OH236739   5.644   1.973   1.518  0.1477  0.3677  0.1839
 5083TIP3    H136740   5.678   1.900   1.466 -0.4617 -0.2192  0.5987
 5083TIP3    H236741   5.691   2.050   1.484  1.1694 -0.2769  0.0854
 5084TIP3   OH236742   1.544   5.353   5.883 -0.0535 -0.4258 -0.4020
 5084TIP3    H136743   1.506   5.434   5.849 -3.6017 -2.1717 -0.9530
 5084TIP3    H236744   1.562   5.372   5.975 -1.6155  0.7527 -0.3110
 5085TIP3   OH236745   1.283   6.696  14.139  0.2619  0.9603 -0.1085
 5085TIP3    H136746   1.292   6.790  14.123 -1.6559  0.7785 -3.0157
 5085TIP3    H236747   1.373   6.663  14.138  0.8953  2.5967 -0.2767
 5086TIP3   OH236748   6.473   5.463  12.522  0.3545  0.2347  0.4272
 5086TIP3    H136749   6.558   5.423  12.502  0.4701 -0.3222  1.9086
 5086TIP3    H236750   6.437   5.409  12.592 -1.4944  0.1416 -0.5523
 5087TIP3   OH236751   4.992   6.529   2.739 -0.3440  0.1721  0.1229
 5087TIP3    H136752   5.063   6.580   2.700 -0.1559  0.0032  0.2416
 5087TIP3    H236753   4.987   6.561   2.830 -0.0544 -0.1967  0.2727
 5088TIP3   OH236754   0.009   4.445  16.995 -0.2535 -0.1117 -0.3074
 5088TIP3    H136755   0.038   4.359  17.025 -0.0989  0.2782  0.6969
 5088TIP3    H236756   0.063   4.507  17.044 -0.4688  0.5602 -0.9095
 5089TIP3   OH236757   4.500   5.644   3.216  0.3183  0.1578  0.3950
 5089TIP3    H136758   4.495   5.716   3.153 -0.2540  0.2114  0.4958
 5089TIP3    H236759   4.552   5.679   3.289  0.0853  0.4506  0.4205
 5090TIP3   OH236760   1.216   5.136   4.157 -0.1327  0.4370 -0.0360
 5090TIP3    H136761   1.141   5.093   4.116 -0.6391 -0.0400  1.3573
 5090TIP3    H236762   1.283   5.137   4.088 -0.3947 -1.7901 -0.4060
 5091TIP3   OH236763   2.837   5.620  16.652 -0.1373  0.2515  0.5005
 5091TIP3    H136764   2.903   5.553  16.638  0.0015  0.0889  1.8135
 5091TIP3    H236765   2.887   5.698  16.676 -0.2235  1.1915 -2.1499
 5092TIP3   OH236766   3.722   6.645  17.253 -0.5938  0.1481 -0.2763
 5092TIP3    H136767   3.678   6.561  17.245 -1.3094  0.6926 -3.1475
 5092TIP3    H236768   3.757   6.663  17.166  0.1403  2.5062  0.4177
 5093TIP3   OH236769   2.978   1.077   1.023  0.3264  0.1669 -0.2091
 5093TIP3    H136770   2.961   1.159   0.977  1.8812  1.1318  0.8321
 5093TIP3    H236771   3.020   1.104   1.105 -1.1447 -1.5488  1.2062
 5094TIP3   OH236772   0.879   1.747   6.430  0.6343 -0.5848  0.1095
 5094TIP3    H136773   0.903   1.839   6.423 -0.3367 -0.2403  1.0684
 5094TIP3    H236774   0.867   1.732   6.524 -0.3997 -1.3772 -0.1308
 5095TIP3   OH236775   3.019   1.896   3.185 -0.0412 -0.0253 -0.0317
 5095TIP3    H136776   2.943   1.899   3.126 -1.0928 -1.7341  1.1655
 5095TIP3    H236777   3.068   1.819   3.157  0.1165 -0.1286  0.5210
 5096TIP3   OH236778   0.698   1.620  11.076  0.4094 -0.2299 -0.3516
 5096TIP3    H136779   0.650   1.587  11.153 -0.5696 -0.5323 -1.0712
 5096TIP3    H236780   0.755   1.688  11.112 -0.2515 -0.1501  0.6085
 5097TIP3   OH236781   4.017   1.034   5.527  0.0247 -0.0818  0.1393
 5097TIP3    H136782   3.979   0.989   5.451 -0.6218 -0.0406  0.4263
 5097TIP3    H236783   4.000   0.974   5.600  0.0542  0.1764  0.3565
 5098TIP3   OH236784   2.422   2.163   5.101  0.5816 -0.2904 -0.0485
 5098TIP3    H136785   2.383   2.217   5.170  1.1851 -0.2276  0.2535
 5098TIP3    H236786   2.516   2.178   5.110  0.6429  0.0876 -1.1973
 5099TIP3   OH236787   3.924   4.609   2.576 -0.5330  0.5916 -0.5277
 5099TIP3    H136788   3.843   4.659   2.591 -0.2689  0.9223 -0.2002
 5099TIP3    H236789   3.970   4.657   2.508 -0.6527  0.3525 -0.7786
 5100TIP3   OH236790   4.813   1.244   3.718  0.0378 -0.1141  0.4750
 5100TIP3    H136791   4.900   1.237   3.678  0.0687 -1.0932  0.6829
 5100TIP3    H236792   4.828   1.295   3.797 -0.1533  2.5032 -1.0601
 5101TIP3   OH236793   5.001   2.970   1.546  0.5330  0.1413 -0.5912
 5101TIP3    H136794   5.059   2.895   1.530  0.1716 -0.1368 -0.6173
 5101TIP3    H236795   5.034   3.009   1.627  0.0001 -0.7717  0.0984
 5102TIP3   OH236796   1.183   5.255  12.187  0.6908 -0.1712 -0.7680
 5102TIP3    H136797   1.136   5.280  12.267 -0.5191 -0.5300 -1.3510
 5102TIP3    H236798   1.120   5.268  12.117  1.5662 -0.3892 -1.6196
 5103TIP3   OH236799   0.865   3.254  15.680 -0.1631 -0.0508  0.3333
 5103TIP3    H136800   0.780   3.295  15.696 -0.3662 -0.2420 -0.2094
 5103TIP3    H236801   0.889   3.283  15.592 -0.1172 -0.7595  0.1086
 5104TIP3   OH236802   2.342   5.090   0.538 -0.3498  0.1956  0.9921
 5104TIP3    H136803   2.333   5.125   0.449  0.2263 -1.5198  0.2127
 5104TIP3    H236804   2.418   5.135   0.573 -0.3795  0.6489  0.5012
 5105TIP3   OH236805   3.094   3.104  14.426  0.2658 -0.3733  0.0698
 5105TIP3    H136806   3.025   3.160  14.463  0.6875 -0.9823  1.8637
 5105TIP3    H236807   3.084   3.021  14.472  0.8006 -1.1925 -1.2587
 5106TIP3   OH236808   4.430   3.655  14.180  0.0079 -0.1144 -0.6986
 5106TIP3    H136809   4.448   3.582  14.239 -0.3005  0.4662  0.1254
 5106TIP3    H236810   4.402   3.727  14.237 -1.2279  0.1802 -1.6167
 5107TIP3   OH236811   0.572   5.306   3.839 -0.1049  0.1310  0.4918
 5107TIP3    H136812   0.651   5.263   3.807 -1.7451 -1.9211 -1.1806
 5107TIP3    H236813   0.561   5.274   3.928  0.5768 -0.1276  0.4869
 5108TIP3   OH236814   4.414   2.952   6.217 -0.2089 -0.1897 -0.0126
 5108TIP3    H136815   4.357   3.025   6.193  0.4998 -0.0011 -1.1659
 5108TIP3    H236816   4.445   2.975   6.305  0.6919  1.3541 -0.6898
 5109TIP3   OH236817   4.815   3.093  15.107  0.6442  0.1038 -0.3167
 5109TIP3    H136818   4.789   3.164  15.048 -1.0704 -0.6237 -0.4969
 5109TIP3    H236819   4.771   3.015  15.071  2.8873 -1.1866 -0.4385
 5110TIP3   OH236820   6.531   4.980  11.026  0.1732  0.0261  0.0445
 5110TIP3    H136821   6.616   4.940  11.006 -0.1069 -0.6846  0.2487
 5110TIP3    H236822   6.519   5.045  10.957  0.0013 -1.2199 -1.1380
 5111TIP3   OH236823   3.235   6.585  15.422 -0.7044  0.1056  0.0978
 5111TIP3    H136824   3.322   6.623  15.408 -1.0414  0.4247 -1.1951
 5111TIP3    H236825   3.176   6.641  15.373 -1.5273 -0.6825  0.1709
 5112TIP3   OH236826   2.225   2.739  16.568 -0.2636 -0.1619 -0.2343
 5112TIP3    H136827   2.168   2.704  16.636 -0.7781  0.1122 -0.5258
 5112TIP3    H236828   2.205   2.832  16.565  0.7547  0.0957  0.1956
 5113TIP3   OH236829   1.727   4.728   3.668  0.5093  0.4066 -0.1213
 5113TIP3    H136830   1.736   4.747   3.575  1.3266 -2.2980 -0.6722
 5113TIP3    H236831   1.665   4.656   3.672 -0.4152  1.2286  1.5683
 5114TIP3   OH236832   1.734   4.636   2.224 -0.4282  0.3177 -0.4255
 5114TIP3    H136833   1.672   4.708   2.232 -2.4449 -1.4559  0.8979
 5114TIP3    H236834   1.704   4.586   2.148 -1.1086 -0.9400  0.6330
 5115TIP3   OH236835   5.018   3.033  12.594  0.0168  0.0286 -0.2797
 5115TIP3    H136836   5.064   3.012  12.675 -1.0626  1.4369  0.7550
 5115TIP3    H236837   5.088   3.050  12.531  0.8900 -0.5402  0.5067
 5116TIP3   OH236838   3.609   4.086  13.798  0.7341 -0.0207  0.3255
 5116TIP3    H136839   3.665   4.071  13.874  1.5204  1.6907  0.1301
 5116TIP3    H236840   3.548   4.154  13.826  0.5425  0.0839 -0.3352
 5117TIP3   OH236841   1.919   4.349  13.453  0.6283 -0.3745  0.2705
 5117TIP3    H136842   1.830   4.316  13.440  0.5447 -0.0913  0.1236
 5117TIP3    H236843   1.970   4.303  13.386  0.7913 -1.3181  1.0243
 5118TIP3   OH236844   6.025   4.092   2.618 -0.1260 -0.3564 -0.2539
 5118TIP3    H136845   5.931   4.086   2.602  0.0682 -1.6365 -1.0413
 5118TIP3    H236846   6.058   4.145   2.546 -0.5406  2.3223  1.4061
 5119TIP3   OH236847   1.887   5.971   5.727  0.6720 -0.1708  0.0486
 5119TIP3    H136848   1.910   5.888   5.685 -0.4450 -0.1032 -0.7128
 5119TIP3    H236849   1.902   5.955   5.820  0.5674 -1.1981 -0.0999
 5120TIP3   OH236850   6.345   2.130   5.584 -0.3417 -0.1170 -0.0693
 5120TIP3    H136851   6.420   2.109   5.528  0.4863 -0.9192  1.2518
 5120TIP3    H236852   6.331   2.224   5.573  1.9846  0.4171  0.8856
 5121TIP3   OH236853   6.728   4.625  15.882 -0.0994  0.1417 -0.5788
 5121TIP3    H136854   6.818   4.616  15.915 -0.2991 -0.3652 -0.1520
 5121TIP3    H236855   6.691   4.537  15.892 -0.8016  0.4679 -0.2791
 5122TIP3   OH236856   4.365   6.097  11.624  0.6946  0.5576 -0.4771
 5122TIP3    H136857   4.401   6.048  11.549 -1.6704 -1.0776 -0.6788
 5122TIP3    H236858   4.369   6.035  11.696 -0.5430  0.7437 -0.2285
 5123TIP3   OH236859   2.899   5.330   1.001  0.4812  0.3015 -0.1172
 5123TIP3    H136860   2.895   5.409   0.946 -0.2901 -1.0269 -2.0919
 5123TIP3    H236861   2.829   5.342   1.065  0.0334  0.9949 -0.7179
 5124TIP3   OH236862   2.026   3.776   3.130 -0.0109 -0.3727  0.3081
 5124TIP3    H136863   1.992   3.865   3.123  0.0339 -0.4833 -3.2135
 5124TIP3    H236864   1.983   3.728   3.059  0.4634 -3.0241  1.6755
 5125TIP3   OH236865   4.583   0.506  11.102  0.0316 -0.4790 -0.3652
 5125TIP3    H136866   4.502   0.462  11.075 -0.3585  0.6812 -1.1923
 5125TIP3    H236867   4.599   0.476  11.191 -1.7448 -0.1631  0.0970
 5126TIP3   OH236868   3.211   2.280  11.443  0.6587  0.2452 -0.1616
 5126TIP3    H136869   3.241   2.371  11.437 -0.3887  0.7284  1.1480
 5126TIP3    H236870   3.229   2.243  11.357  0.9982  1.7418 -0.7776
 5127TIP3   OH236871   4.382   3.360   1.920 -0.0306  0.4470  0.2987
 5127TIP3    H136872   4.459   3.367   1.864 -0.9025 -1.5486 -1.2645
 5127TIP3    H236873   4.323   3.429   1.890  0.5879  1.1171  0.6041
 5128TIP3   OH236874   0.529   5.552   4.546 -0.4368 -0.0125 -0.5799
 5128TIP3    H136875   0.435   5.553   4.564 -0.6731  2.0336 -1.6288
 5128TIP3    H236876   0.553   5.645   4.538  1.7326 -0.4801 -0.0684
 5129TIP3   OH236877   5.556   2.597  16.176 -0.0737  0.2083 -0.0843
 5129TIP3    H136878   5.573   2.511  16.137  0.2572 -0.5305  1.6103
 5129TIP3    H236879   5.597   2.592  16.262 -0.6402  1.8470  0.3024
 5130TIP3   OH236880   2.628   0.918  15.296 -0.0954 -0.2936 -0.2781
 5130TIP3    H136881   2.625   0.880  15.383  0.6761  1.8570  0.7513
 5130TIP3    H236882   2.720   0.935  15.279 -0.4049  1.3471 -0.5327
 5131TIP3   OH236883   4.214   0.490   0.080  0.2148 -0.8617  0.2693
 5131TIP3    H136884   4.282   0.513   0.142 -0.3224 -0.8196  0.8526
 5131TIP3    H236885   4.255   0.427   0.021  0.9498 -0.3366  0.2055
 5132TIP3   OH236886   6.076   5.816  12.577  1.0745 -0.4885  0.3271
 5132TIP3    H136887   6.013   5.745  12.584  0.7546 -0.7070 -3.0558
 5132TIP3    H236888   6.156   5.775  12.544  0.9729  0.6119 -1.4217
 5133TIP3   OH236889   3.441   2.301   0.397  0.2745 -0.1007  0.3181
 5133TIP3    H136890   3.445   2.225   0.456 -1.0591 -0.5054 -0.0780
 5133TIP3    H236891   3.426   2.263   0.311  0.8451  0.5641 -0.0804
 5134TIP3   OH236892   6.580   1.331   2.474  0.0809  0.1790  0.1532
 5134TIP3    H136893   6.652   1.304   2.416  0.5057  0.5269  0.5182
 5134TIP3    H236894   6.519   1.377   2.416 -0.0659 -0.4907 -0.2435
 5135TIP3   OH236895   0.055   4.260  11.464  0.2743 -0.5264  0.1443
 5135TIP3    H136896   0.006   4.199  11.408  0.3869 -0.6373  0.1669
 5135TIP3    H236897   0.127   4.207  11.499  1.3175  0.0077 -1.0913
 5136TIP3   OH236898   1.006   4.627  12.833 -0.0667  0.3602 -0.0370
 5136TIP3    H136899   1.042   4.539  12.830  0.2769  0.4633  0.7791
 5136TIP3    H236900   1.027   4.665  12.747  0.6321 -0.0275 -0.0462
 5137TIP3   OH236901   5.503   6.415  11.378 -0.3599  0.0578 -0.0613
 5137TIP3    H136902   5.450   6.495  11.365 -0.2645  0.2635  0.7319
 5137TIP3    H236903   5.592   6.441  11.355 -0.2358  0.3449  0.7032
 5138TIP3   OH236904   0.649   3.697  13.636  0.7813 -0.2887  0.1045
 5138TIP3    H136905   0.602   3.749  13.570  1.0052 -1.8071 -1.3314
 5138TIP3    H236906   0.586   3.630  13.662  0.9020 -0.0558  1.0353
 5139TIP3   OH236907   3.325   3.144   2.360 -0.4687 -0.5457 -0.3990
 5139TIP3    H136908   3.280   3.216   2.316 -2.9855 -1.4185  0.5677
 5139TIP3    H236909   3.386   3.187   2.420 -1.7693  0.8038  0.0107
 5140TIP3   OH236910   3.868   5.643   1.776 -0.2396  0.3653  0.0010
 5140TIP3    H136911   3.881   5.690   1.858 -0.4393 -0.9032  0.7888
 5140TIP3    H236912   3.832   5.558   1.803 -2.2708  0.6577 -1.5058
 5141TIP3   OH236913   6.756   4.098  16.961  0.2235  0.3506  0.3845
 5141TIP3    H136914   6.716   4.051  17.033  0.5380 -3.4156 -1.6658
 5141TIP3    H236915   6.851   4.092  16.977  0.2596  0.3858  0.1955
 5142TIP3   OH236916   3.181   5.359   1.836 -0.8015  0.1104  0.0933
 5142TIP3    H136917   3.159   5.273   1.874 -1.5811  1.0524  1.8931
 5142TIP3    H236918   3.205   5.339   1.745 -0.6838 -2.0435  0.5295
 5143TIP3   OH236919   3.562   0.892  14.132  0.0535 -0.4266  0.0650
 5143TIP3    H136920   3.538   0.810  14.089  0.3381 -1.1283  1.2083
 5143TIP3    H236921   3.526   0.885  14.220 -2.0772  1.7416 -0.5407
 5144TIP3   OH236922   1.590   4.033  13.209  0.3740 -0.0462 -0.4830
 5144TIP3    H136923   1.642   3.957  13.183  0.7942 -0.4113  1.2517
 5144TIP3    H236924   1.519   3.996  13.262 -0.7215  0.5931 -1.4648
 5145TIP3   OH236925   5.584   6.295   0.919  0.1432 -0.9818  0.4520
 5145TIP3    H136926   5.629   6.227   0.968  1.5708  0.2528  0.9446
 5145TIP3    H236927   5.492   6.271   0.923  0.4335 -1.9741  2.0347
 5146TIP3   OH236928   0.478   3.861  12.368 -0.2588  0.0041 -0.8196
 5146TIP3    H136929   0.465   3.950  12.400  3.8042 -0.1731  1.9973
 5146TIP3    H236930   0.552   3.868  12.307  0.1098 -1.4303 -0.5609
 5147TIP3   OH236931   0.981   5.967  12.784 -0.4195 -0.4997  0.3592
 5147TIP3    H136932   0.914   6.035  12.791  1.8055  1.8579  0.4998
 5147TIP3    H236933   1.032   5.975  12.865 -0.3272 -2.6609  0.5544
 5148TIP3   OH236934   1.132   2.209   5.429 -0.1834 -0.0980 -0.7036
 5148TIP3    H136935   1.218   2.177   5.457 -0.9035 -0.1150  1.6240
 5148TIP3    H236936   1.088   2.131   5.396  0.9832  0.0789 -2.9038
 5149TIP3   OH236937   1.219   3.854  11.770 -0.6685 -0.0754  0.2465
 5149TIP3    H136938   1.248   3.926  11.714 -0.2096 -1.2410 -1.0483
 5149TIP3    H236939   1.272   3.862  11.849 -0.3749  0.7940 -0.0316
 5150TIP3   OH236940   6.164   2.182  16.243 -0.0076  0.1123 -0.3552
 5150TIP3    H136941   6.193   2.138  16.163  1.0477 -1.2093  0.6975
 5150TIP3    H236942   6.137   2.269  16.214  0.4611 -0.2861 -2.1203
 5151TIP3   OH236943   3.480   5.422   3.825 -0.1867  0.1233 -0.0018
 5151TIP3    H136944   3.485   5.426   3.730 -0.7940  1.3251 -0.0033
 5151TIP3    H236945   3.526   5.501   3.855 -0.0035 -0.2386  0.7014
 5152TIP3   OH236946   2.868   4.903  16.246  0.8484 -0.5078 -0.0981
 5152TIP3    H136947   2.878   4.927  16.338  0.8318 -0.5211 -0.0925
 5152TIP3    H236948   2.837   4.812  16.249  1.1179 -0.6020 -0.1228
 5153TIP3   OH236949   0.077   3.896   5.693 -0.6052  0.3094 -0.0479
 5153TIP3    H136950   0.114   3.932   5.774  1.3560 -1.2651 -0.1730
 5153TIP3    H236951   0.009   3.836   5.722  0.0418 -0.1977  0.4497
 5154TIP3   OH236952   4.409   6.020   4.820 -0.2237  0.1320  0.2725
 5154TIP3    H136953   4.497   6.058   4.817 -0.0101 -0.3183  0.7231
 5154TIP3    H236954   4.421   5.930   4.788 -0.6077  0.2207 -0.1374
 5155TIP3   OH236955   5.292   1.049  15.715  0.2396 -0.4683 -0.1022
 5155TIP3    H136956   5.298   1.121  15.778  1.2106 -0.2102 -0.4719
 5155TIP3    H236957   5.381   1.017  15.706 -0.3163 -2.5164  0.9408
 5156TIP3   OH236958   4.297   2.739   5.486  0.1018  0.0617 -0.2655
 5156TIP3    H136959   4.382   2.709   5.456  0.4293 -0.8998  1.4805
 5156TIP3    H236960   4.273   2.678   5.555 -1.1473  1.4045  0.5493
 5157TIP3   OH236961   3.576   1.125   0.471 -0.1967  0.4925  0.0416
 5157TIP3    H136962   3.516   1.135   0.397  1.9357 -0.8337 -2.0180
 5157TIP3    H236963   3.635   1.200   0.464  1.0681 -0.5400 -0.7045
 5158TIP3   OH236964   4.809   3.794   5.673  0.4909 -0.0999  0.1248
 5158TIP3    H136965   4.721   3.780   5.707  0.0632 -2.3232 -1.5706
 5158TIP3    H236966   4.866   3.785   5.749 -0.6637 -0.2964  0.9963
 5159TIP3   OH236967   3.826   5.799  15.036 -0.4846  0.0795  0.4061
 5159TIP3    H136968   3.833   5.821  15.128  1.1660 -0.0387  0.3466
 5159TIP3    H236969   3.886   5.725  15.025 -1.8835 -0.9699 -0.4481
 5160TIP3   OH236970   5.229   1.047   4.293  0.1125 -0.2206  0.0251
 5160TIP3    H136971   5.287   1.049   4.217 -1.9219 -1.0975 -1.6500
 5160TIP3    H236972   5.158   1.107   4.270 -1.1857 -1.4634  0.6571
 5161TIP3   OH236973   5.944   6.151  15.969  0.2515  0.1705 -0.2377
 5161TIP3    H136974   5.952   6.122  16.060  1.1648 -0.5603 -0.5267
 5161TIP3    H236975   5.963   6.245  15.972  1.9418 -0.1472  0.1323
 5162TIP3   OH236976   0.196   5.395   3.160  0.5577  0.1394 -0.2109
 5162TIP3    H136977   0.161   5.348   3.236  0.3724  2.0425  0.9378
 5162TIP3    H236978   0.134   5.377   3.090 -0.1500 -0.3469  0.5271
 5163TIP3   OH236979   1.009   6.340   3.264 -0.2371  0.2671  0.5701
 5163TIP3    H136980   0.945   6.294   3.210 -0.5331  0.0227  1.1237
 5163TIP3    H236981   1.059   6.271   3.307 -0.4242  0.4487  1.0954
 5164TIP3   OH236982   4.524   3.974   0.175  0.0146 -0.6535  0.2480
 5164TIP3    H136983   4.589   4.040   0.152  1.0868 -1.4407  0.8827
 5164TIP3    H236984   4.468   3.967   0.098 -2.6753  3.7595  1.4757
 5165TIP3   OH236985   0.455   5.975   2.881  0.0135 -0.1168 -0.1087
 5165TIP3    H136986   0.518   5.910   2.851 -1.3887 -1.1547 -0.9797
 5165TIP3    H236987   0.430   6.022   2.801  0.0838  0.6453  0.3142
 5166TIP3   OH236988   2.497   3.785  14.885 -0.2597  0.2604  0.2113
 5166TIP3    H136989   2.424   3.771  14.824 -0.4565  0.3287  0.4260
 5166TIP3    H236990   2.465   3.853  14.945 -0.4102 -0.4165  0.9189
 5167TIP3   OH236991   2.698   6.083  15.753  0.4236 -0.0531 -0.6413
 5167TIP3    H136992   2.603   6.069  15.761  0.5751 -0.8536 -0.0243
 5167TIP3    H236993   2.727   6.013  15.695  0.5164  0.7603 -1.5930
 5168TIP3   OH236994   1.995   5.530  13.906 -0.2833 -0.1459  0.4263
 5168TIP3    H136995   2.086   5.521  13.934  0.2514 -1.3725 -1.5230
 5168TIP3    H236996   1.983   5.460  13.842 -2.1628  0.9059 -0.4372
 5169TIP3   OH236997   3.744   1.100   5.886  0.2628 -0.1782  0.5929
 5169TIP3    H136998   3.810   1.115   5.819 -0.6402  0.9007 -0.0944
 5169TIP3    H236999   3.784   1.131   5.967  0.7472  0.0957  0.2510
 5170TIP3   OH237000   6.058   6.757  14.907 -0.1821 -0.0767  0.3963
 5170TIP3    H137001   6.148   6.727  14.902  0.2051  1.1519 -0.2987
 5170TIP3    H237002   6.005   6.681  14.882  0.7423 -0.2920 -0.9422
 5171TIP3   OH237003   0.972   4.401  14.495  0.0464  0.7091  0.3147
 5171TIP3    H137004   1.038   4.469  14.512  1.6003 -0.5349 -0.4657
 5171TIP3    H237005   1.019   4.318  14.508 -1.6673 -0.2466  0.7718
 5172TIP3   OH237006   6.295   4.081  13.428  0.1452 -0.3382 -0.0841
 5172TIP3    H137007   6.239   4.004  13.438 -1.2818  0.5293 -1.0357
 5172TIP3    H237008   6.346   4.084  13.509 -2.5707 -0.1058  1.7549
 5173TIP3   OH237009   0.582   4.506  17.268  0.7417  0.1954 -0.1371
 5173TIP3    H137010   0.653   4.564  17.243  1.7056 -1.7880 -2.4428
 5173TIP3    H237011   0.505   4.541  17.221  1.2560 -0.1869 -1.3080
 5174TIP3   OH237012   4.053   5.143  12.438  0.2788 -0.1914 -0.2353
 5174TIP3    H137013   3.963   5.133  12.469  0.2045  0.7148 -0.1245
 5174TIP3    H237014   4.095   5.199  12.504  0.4971  0.6202 -1.0325
 5175TIP3   OH237015   2.130   5.085   3.761 -0.7437  0.1056  0.2155
 5175TIP3    H137016   2.046   5.040   3.757 -1.0351  0.6330  0.3729
 5175TIP3    H237017   2.108   5.177   3.769 -0.2370  0.6787 -3.2202
 5176TIP3   OH237018   2.497   4.208  12.416 -0.4776  0.0048  0.1230
 5176TIP3    H137019   2.510   4.218  12.511 -0.3163  0.9038  0.0179
 5176TIP3    H237020   2.585   4.189  12.382 -0.5265 -0.2641  0.1458
 5177TIP3   OH237021   0.422   5.803  11.141 -0.1259  0.1284 -0.4318
 5177TIP3    H137022   0.493   5.857  11.107  0.1343  0.1808  0.1950
 5177TIP3    H237023   0.463   5.748  11.207  0.1157 -2.4826 -2.5859
 5178TIP3   OH237024   4.524   4.274   5.820 -0.1663  0.2773 -0.6234
 5178TIP3    H137025   4.573   4.194   5.801  2.7558  1.8295 -0.0942
 5178TIP3    H237026   4.512   4.316   5.735 -1.9676 -0.7923 -0.9409
 5179TIP3   OH237027   4.223   6.780   3.136  0.5968  0.2477 -0.4539
 5179TIP3    H137028   4.249   6.764   3.226  1.1954  0.7511 -0.5382
 5179TIP3    H237029   4.193   6.871   3.135  0.9860  0.3755 -0.8490
 5180TIP3   OH237030   0.881   5.809  11.014 -0.0343 -0.0103  0.4799
 5180TIP3    H137031   0.964   5.770  11.042  0.6199  0.3963 -0.8014
 5180TIP3    H237032   0.825   5.734  10.992  0.6037 -0.2697 -0.2978
 5181TIP3   OH237033   4.432   5.934   4.032 -0.3731 -0.0232 -0.4043
 5181TIP3    H137034   4.388   5.960   3.951 -1.0601 -0.0925 -0.0636
 5181TIP3    H237035   4.519   5.907   4.004 -0.9721 -1.1477 -1.2768
 5182TIP3   OH237036   4.276   2.379  15.449  0.0820  0.0291 -0.4629
 5182TIP3    H137037   4.214   2.432  15.498 -0.9847 -1.0507 -0.6113
 5182TIP3    H237038   4.316   2.322  15.514 -0.2615 -0.3820 -0.6046
 5183TIP3   OH237039   2.365   2.165  16.673 -0.0684  0.0595  0.4441
 5183TIP3    H137040   2.325   2.112  16.603  0.0318 -1.2643  1.3440
 5183TIP3    H237041   2.387   2.247  16.631 -0.3360 -0.5709 -1.0019
 5184TIP3   OH237042   4.346   0.025  16.671  0.0487 -0.2764 -0.3117
 5184TIP3    H137043   4.303  -0.040  16.616 -1.4709 -0.9274  1.5318
 5184TIP3    H237044   4.280   0.092  16.688  0.6265  0.1626  0.3220
 5185TIP3   OH237045   4.632   1.535  16.000  0.4797  0.0117 -0.7665
 5185TIP3    H137046   4.673   1.589  16.068  0.4922 -0.3762 -0.4617
 5185TIP3    H237047   4.543   1.570  15.992  0.3040 -0.2696 -0.1709
 5186TIP3   OH237048   5.052   2.502   0.513  0.6128  0.0704 -0.1507
 5186TIP3    H137049   4.967   2.501   0.556  0.7327 -0.2786  0.0792
 5186TIP3    H237050   5.096   2.580   0.547 -0.3003  1.2807 -1.6197
 5187TIP3   OH237051   5.109   5.287   0.400 -0.0086  0.3830 -0.8374
 5187TIP3    H137052   5.170   5.272   0.473 -1.1038 -1.6374 -0.2801
 5187TIP3    H237053   5.025   5.303   0.442 -0.5074 -0.1074 -1.6278
 5188TIP3   OH237054   2.071   5.714  11.308 -0.4529 -0.1857 -0.6761
 5188TIP3    H137055   1.985   5.736  11.341 -0.0042  1.5696 -0.5880
 5188TIP3    H237056   2.055   5.683  11.218 -1.1345  0.5047 -0.7980
 5189TIP3   OH237057   1.834   1.721  16.940  0.1377 -0.3156  0.1809
 5189TIP3    H137058   1.803   1.647  16.889 -0.2047  0.6738 -1.1091
 5189TIP3    H237059   1.764   1.786  16.934  1.0774  0.7205 -0.0795
 5190TIP3   OH237060   5.060   0.266   1.241  0.0431  0.1764 -0.7141
 5190TIP3    H137061   5.004   0.203   1.195 -1.6801  0.3837  0.9387
 5190TIP3    H237062   5.028   0.352   1.212 -1.4664  0.3243  1.1618
 5191TIP3   OH237063   2.595   1.896  14.946  0.2017  0.0083 -0.2576
 5191TIP3    H137064   2.675   1.849  14.969 -0.9197 -2.5718 -1.2900
 5191TIP3    H237065   2.608   1.924  14.856  0.4285  0.7588 -0.0000
 5192TIP3   OH237066   1.316   2.748  11.913  0.5120  0.5401  0.5404
 5192TIP3    H137067   1.287   2.659  11.936  0.7211  0.3275 -0.0066
 5192TIP3    H237068   1.402   2.757  11.954  0.6637  0.3451  0.2660
 5193TIP3   OH237069   6.032   2.125  16.481 -0.2743  0.2308 -0.9261
 5193TIP3    H137070   6.079   2.133  16.398  0.1997  1.8429 -0.5449
 5193TIP3    H237071   6.099   2.107  16.546 -0.3543  1.0769 -0.5943
 5194TIP3   OH237072   1.024   2.630   4.211  0.6304 -0.7049  0.1284
 5194TIP3    H137073   1.117   2.633   4.191  0.6926 -0.3154  0.4774
 5194TIP3    H237074   0.987   2.572   4.144  0.5646  1.8667 -2.2528
 5195TIP3   OH237075   3.638   0.564  12.695 -0.2319 -0.3385 -0.2921
 5195TIP3    H137076   3.725   0.600  12.714 -0.3583 -0.1091 -0.1396
 5195TIP3    H237077   3.653   0.471  12.684  0.0827 -0.2578 -0.5678
 5196TIP3   OH237078   5.823   5.884  14.991 -0.2330  0.4527  1.0128
 5196TIP3    H137079   5.819   5.789  14.991  0.8010  0.3957  0.2138
 5196TIP3    H237080   5.823   5.908  15.084 -0.2473 -0.3344  1.2217
 5197TIP3   OH237081   1.131   2.016  11.930 -0.2149  0.4712 -0.4327
 5197TIP3    H137082   1.207   2.012  11.988  0.6629  1.0886 -1.4888
 5197TIP3    H237083   1.064   1.963  11.974  0.2352  1.3067  1.3612
 5198TIP3   OH237084   0.176   0.738  14.183 -0.0213 -0.3662  0.4154
 5198TIP3    H137085   0.098   0.739  14.239  0.6848 -0.6144  1.4394
 5198TIP3    H237086   0.217   0.653  14.201  0.6835 -0.0882  0.1707
 5199TIP3   OH237087   1.878   6.474   3.815 -0.3823  0.8648 -0.4311
 5199TIP3    H137088   1.971   6.484   3.835 -0.0763 -0.5967 -0.9549
 5199TIP3    H237089   1.848   6.407   3.876 -1.0967  1.3258 -0.2676
 5200TIP3   OH237090   0.307   2.102  14.113  0.4393 -0.1313 -0.1529
 5200TIP3    H137091   0.230   2.057  14.146  2.5503 -1.4725  3.5948
 5200TIP3    H237092   0.329   2.057  14.031 -1.2423 -1.5102  0.1078
 5201TIP3   OH237093   4.572   3.974   2.052 -0.0207 -0.2379 -0.4056
 5201TIP3    H137094   4.563   4.056   2.005  0.2923  0.0290 -0.0020
 5201TIP3    H237095   4.568   3.998   2.144 -1.6991 -0.8702 -0.2651
 5202TIP3   OH237096   4.870   3.142   3.708 -0.3384  0.1659 -0.2442
 5202TIP3    H137097   4.839   3.086   3.636 -0.4830 -0.4629  0.3012
 5202TIP3    H237098   4.801   3.136   3.774  1.1196 -1.6775  1.2286
 5203TIP3   OH237099   5.519   2.347   4.526 -0.6614 -0.0834  0.1513
 5203TIP3    H137100   5.436   2.349   4.477 -1.1205 -0.4976  0.8964
 5203TIP3    H237101   5.503   2.285   4.597  0.1021  0.2744  0.6404
 5204TIP3   OH237102   1.269   4.527  14.140 -0.2863 -0.5154 -0.7822
 5204TIP3    H137103   1.184   4.546  14.101 -0.6972 -1.1038 -0.1984
 5204TIP3    H237104   1.277   4.432  14.135  0.8879 -0.3837 -1.9343
 5205TIP3   OH237105   4.643   4.671  11.511 -0.7082 -0.2611 -0.0683
 5205TIP3    H137106   4.658   4.577  11.507  2.2124  0.0676  0.6350
 5205TIP3    H237107   4.658   4.694  11.603 -1.7196  0.8575 -0.1547
 5206TIP3   OH237108   1.296   6.592  17.293 -0.2430  0.0545  0.5822
 5206TIP3    H137109   1.331   6.617  17.208 -1.2513  0.5802  0.3026
 5206TIP3    H237110   1.202   6.581  17.278 -0.2087 -1.4575  1.2641
 5207TIP3   OH237111   2.758   0.604  15.014 -0.3886 -0.0258 -0.2439
 5207TIP3    H137112   2.688   0.621  15.078  0.5512 -4.0715  2.2155
 5207TIP3    H237113   2.715   0.555  14.944 -0.8612  1.8783 -1.3453
 5208TIP3   OH237114   2.148   1.422   4.328  0.2497  0.3966  0.3748
 5208TIP3    H137115   2.124   1.511   4.351 -0.1959  0.4606 -0.3055
 5208TIP3    H237116   2.092   1.367   4.383 -2.5755  0.5276 -2.1220
 5209TIP3   OH237117   1.797   5.352  14.730  0.4411 -0.2041  0.4711
 5209TIP3    H137118   1.773   5.334  14.821  1.1899  2.5384  1.3228
 5209TIP3    H237119   1.771   5.444  14.716  1.3167 -0.2254 -1.7356
 5210TIP3   OH237120   2.044   6.241   3.141 -0.7407 -0.3389 -0.3415
 5210TIP3    H137121   2.045   6.224   3.047 -0.2121  0.9419 -0.5946
 5210TIP3    H237122   2.126   6.288   3.157 -2.2210  2.2835  0.1518
 5211TIP3   OH237123   1.226   0.701  10.670 -0.4223  0.3434 -0.0241
 5211TIP3    H137124   1.152   0.738  10.623 -0.7176  0.5656  0.6070
 5211TIP3    H237125   1.188   0.631  10.723 -0.3981  1.2740  1.2574
 5212TIP3   OH237126   1.879   2.598  14.824 -0.1683 -0.4808  0.0207
 5212TIP3    H137127   1.813   2.667  14.830  0.3302 -0.0951  4.1271
 5212TIP3    H237128   1.961   2.641  14.849  0.1367 -2.3979  2.8505
 5213TIP3   OH237129   3.514   1.063   1.071  0.3701 -0.1755 -0.0079
 5213TIP3    H137130   3.566   0.982   1.066 -0.8341 -0.9121 -1.4515
 5213TIP3    H237131   3.512   1.084   1.164  0.3658 -2.0628  0.4676
 5214TIP3   OH237132   6.572   3.847   5.687 -0.2293 -0.2342 -0.4171
 5214TIP3    H137133   6.518   3.902   5.743 -0.7870 -0.9626 -0.2268
 5214TIP3    H237134   6.526   3.844   5.603 -0.3528 -0.6261 -0.3408
 5215TIP3   OH237135   3.155   0.444   5.764  0.3814 -0.1705  0.2222
 5215TIP3    H137136   3.146   0.478   5.675  1.3124 -0.8309 -0.1411
 5215TIP3    H237137   3.192   0.516   5.814 -2.0916  0.9312  0.6118
 5216TIP3   OH237138   6.641   5.837  17.196 -0.0834 -0.5075 -0.3589
 5216TIP3    H137139   6.619   5.876  17.111  1.7160 -1.3866 -1.2789
 5216TIP3    H237140   6.655   5.744  17.176 -0.5833 -0.9148  1.0945
 5217TIP3   OH237141   1.708   6.075  12.690 -0.5755 -0.8591 -0.1177
 5217TIP3    H137142   1.766   6.090  12.615  1.0367 -1.5534  0.9416
 5217TIP3    H237143   1.620   6.078  12.653  0.1717 -1.0036 -2.0140
 5218TIP3   OH237144   0.422   4.057  15.479  0.2338 -0.1557 -0.1185
 5218TIP3    H137145   0.460   4.093  15.559 -0.4124 -3.4403  1.8694
 5218TIP3    H237146   0.362   4.125  15.448 -0.6914  0.6674  3.1203
 5219TIP3   OH237147   5.755   3.270  17.251 -0.1568  0.3174 -0.1883
 5219TIP3    H137148   5.750   3.174  17.249 -2.8015  0.3868 -0.6708
 5219TIP3    H237149   5.825   3.289  17.313 -0.1930 -1.9310  0.6511
 5220TIP3   OH237150   2.730   1.641  13.726  0.0498 -0.0502  0.0092
 5220TIP3    H137151   2.733   1.717  13.667 -0.5736  0.6075  0.8066
 5220TIP3    H237152   2.650   1.654  13.777 -0.0593 -1.2565  0.1521
 5221TIP3   OH237153   1.279   3.871  13.482 -0.2508 -0.0967  0.0171
 5221TIP3    H137154   1.279   3.966  13.476 -0.4769 -0.1449 -0.8894
 5221TIP3    H237155   1.304   3.841  13.394  1.1697 -0.8575  0.6511
 5222TIP3   OH237156   2.085   0.299  16.831  0.0635  0.2446 -0.3925
 5222TIP3    H137157   2.174   0.320  16.806  0.6424 -0.4076  0.9743
 5222TIP3    H237158   2.063   0.221  16.780  0.3270  0.3192 -0.6212
 5223TIP3   OH237159   2.884   2.489   1.347 -0.4770  0.2895 -0.2459
 5223TIP3    H137160   2.860   2.401   1.378  1.1780  0.1238  0.6828
 5223TIP3    H237161   2.978   2.483   1.328  0.6539  2.7724  3.4661
 5224TIP3   OH237162   3.586   2.103   4.279 -0.2217  0.4230  0.2455
 5224TIP3    H137163   3.634   2.185   4.288 -1.0956  0.9529  0.1390
 5224TIP3    H237164   3.589   2.083   4.185  1.6748 -0.7171  0.4971
 5225TIP3   OH237165   4.199   2.332  14.225 -0.2705 -0.5593 -0.1653
 5225TIP3    H137166   4.253   2.271  14.176 -0.4667 -0.0290 -1.0648
 5225TIP3    H237167   4.110   2.314  14.194 -0.3109  0.2695 -0.5434
 5226TIP3   OH237168   2.892   1.638  16.887  0.3665  0.3777 -0.5071
 5226TIP3    H137169   2.887   1.609  16.978  0.3193  0.9366 -0.3282
 5226TIP3    H237170   2.951   1.576  16.845  0.9547  0.5360  0.0750
 5227TIP3   OH237171   2.460   1.882   0.567 -0.0345  0.5490 -0.1118
 5227TIP3    H137172   2.400   1.807   0.564  0.6329 -0.1691  2.2196
 5227TIP3    H237173   2.407   1.957   0.541 -1.1902 -0.4701 -0.7857
 5228TIP3   OH237174   0.329   6.775   5.935  0.2256 -0.2089 -0.1590
 5228TIP3    H137175   0.275   6.773   6.014 -1.3149  1.0012 -1.1148
 5228TIP3    H237176   0.339   6.683   5.911 -0.7089 -0.5153  0.5249
 5229TIP3   OH237177   6.433   4.363  11.365 -0.4132 -0.4565 -0.1497
 5229TIP3    H137178   6.432   4.363  11.461  0.5890 -1.3712 -0.1265
 5229TIP3    H237179   6.384   4.442  11.341 -0.0285  0.1966  1.1254
 5230TIP3   OH237180   5.956   4.533  10.800  0.3855  0.1222 -0.6307
 5230TIP3    H137181   5.917   4.522  10.713 -1.4965  0.4026  0.1207
 5230TIP3    H237182   5.908   4.606  10.839 -1.3223 -2.1333  1.9158
 5231TIP3   OH237183   0.523   5.816   1.145 -0.1183 -0.1816  0.2522
 5231TIP3    H137184   0.530   5.886   1.211  1.0232  1.2144 -1.2400
 5231TIP3    H237185   0.548   5.736   1.192 -3.1452  0.0094  2.4802
 5232TIP3   OH237186   6.513   1.458   5.469  0.1506 -0.4041 -0.1190
 5232TIP3    H137187   6.467   1.394   5.522  0.5905 -1.3222 -0.8234
 5232TIP3    H237188   6.580   1.408   5.422  1.5158  0.7935  0.4605
 5233TIP3   OH237189   4.222   4.706  15.754 -0.3023 -0.5697  0.8607
 5233TIP3    H137190   4.314   4.728  15.738 -0.6123 -0.0546 -0.3704
 5233TIP3    H237191   4.218   4.685  15.847  0.7592  0.9309  1.2854
 5234TIP3   OH237192   2.328   5.455  12.123  0.1956 -0.4854 -0.5195
 5234TIP3    H137193   2.339   5.391  12.194 -0.3362  0.1639  0.1733
 5234TIP3    H237194   2.413   5.498  12.116 -0.0259  0.1338  0.4254
 5235TIP3   OH237195   2.925   6.433   5.247 -0.2711  0.2047 -0.1404
 5235TIP3    H137196   2.964   6.412   5.332 -0.3867  0.3767 -0.0427
 5235TIP3    H237197   2.839   6.391   5.248  0.8316 -2.3045 -1.3364
 5236TIP3   OH237198   1.161   6.007   5.618 -0.3423  0.7143  0.1690
 5236TIP3    H137199   1.113   6.076   5.663 -0.6079 -1.4619  3.6328
 5236TIP3    H237200   1.253   6.031   5.626 -0.5239  1.6782 -0.5655
 5237TIP3   OH237201   6.268   4.083   0.217 -0.0045 -0.0599  0.2465
 5237TIP3    H137202   6.242   4.060   0.306  0.8287  0.8502  0.7478
 5237TIP3    H237203   6.320   4.009   0.187 -2.0573 -1.3531 -0.3217
 5238TIP3   OH237204   1.186   1.079   2.609  0.4009  0.1548  0.3155
 5238TIP3    H137205   1.166   1.111   2.521 -0.8873 -2.0135 -0.2592
 5238TIP3    H237206   1.176   1.156   2.666 -0.8663  1.1418 -1.1573
 5239TIP3   OH237207   2.224   5.772  16.435  0.2511  0.4148 -0.0668
 5239TIP3    H137208   2.175   5.780  16.354  0.0405  0.4143  0.0611
 5239TIP3    H237209   2.227   5.862  16.470  0.5852  0.4651 -0.2170
 5240TIP3   OH237210   2.881   0.273   4.358 -0.1007 -0.1564 -0.1132
 5240TIP3    H137211   2.837   0.286   4.441  0.6920 -1.3540  0.5156
 5240TIP3    H237212   2.836   0.199   4.317 -0.4044  0.3428 -0.7068
 5241TIP3   OH237213   5.875   6.530  14.839  0.3699 -0.4262  0.4625
 5241TIP3    H137214   5.822   6.582  14.780 -1.0339 -1.8086  0.4316
 5241TIP3    H237215   5.844   6.553  14.927  3.0850  2.3284  0.8739
 5242TIP3   OH237216   3.807   5.080   2.040  0.2513 -0.5676  0.4914
 5242TIP3    H137217   3.873   5.044   1.982  0.0746 -0.8763  0.4763
 5242TIP3    H237218   3.786   5.166   2.003 -3.4524 -2.5776 -2.9400
 5243TIP3   OH237219   0.481   3.727  16.984 -0.0880  0.2375  0.0809
 5243TIP3    H137220   0.517   3.643  17.011 -0.2212 -0.2341 -1.1532
 5243TIP3    H237221   0.438   3.761  17.062  1.8458  0.1971  1.2285
 5244TIP3   OH237222   5.771   3.454   1.199  0.1269 -0.6235 -0.2861
 5244TIP3    H137223   5.829   3.506   1.144  0.6791  1.6002  2.2152
 5244TIP3    H237224   5.685   3.493   1.187  0.5636  1.1203  1.6903
 5245TIP3   OH237225   6.690   5.897  15.650 -0.3375 -0.3514 -0.2112
 5245TIP3    H137226   6.759   5.843  15.688  0.1516  0.3997 -0.0280
 5245TIP3    H237227   6.617   5.890  15.712  0.7883  1.6585  1.4358
 5246TIP3   OH237228   4.481   4.088   2.273 -0.4395  0.0221 -0.1397
 5246TIP3    H137229   4.409   4.044   2.317 -1.0844  1.0198 -0.1779
 5246TIP3    H237230   4.440   4.139   2.203  0.2911  0.6395 -0.1365
 5247TIP3   OH237231   6.115   5.775  12.239 -0.4882  0.3715  0.1732
 5247TIP3    H137232   6.186   5.751  12.299  1.0196  1.0283 -1.2544
 5247TIP3    H237233   6.091   5.864  12.264  0.2132  0.6842 -0.2238
 5248TIP3   OH237234   2.124   3.471  12.295  0.3877  0.6948  0.2483
 5248TIP3    H137235   2.172   3.553  12.281 -0.6068  0.9098 -2.4541
 5248TIP3    H237236   2.038   3.498  12.325  0.3503  0.5818  0.2427
 5249TIP3   OH237237   3.843   1.685  11.232 -0.2684  0.2976  0.1658
 5249TIP3    H137238   3.790   1.657  11.157  0.8287  0.2559 -0.6354
 5249TIP3    H237239   3.890   1.762  11.199  0.9152 -0.2633  0.4950
 5250TIP3   OH237240   1.730   5.555  11.680 -0.1207 -0.1640 -0.2674
 5250TIP3    H137241   1.824   5.566  11.687 -0.1938  0.8230 -0.5570
 5250TIP3    H237242   1.704   5.510  11.760  0.7491 -1.6243 -0.7843
 5251TIP3   OH237243   0.886   1.387  16.277 -0.3869 -0.2898 -0.2567
 5251TIP3    H137244   0.934   1.374  16.195 -0.1930 -0.0852 -0.1778
 5251TIP3    H237245   0.873   1.299  16.312 -0.8830 -0.4111 -0.7411
 5252TIP3   OH237246   3.328   5.421  16.001  0.4986 -0.3172  0.1736
 5252TIP3    H137247   3.349   5.403  15.910 -0.0445  0.1732 -0.0560
 5252TIP3    H237248   3.393   5.372  16.051  0.5202 -0.9476 -0.4662
 5253TIP3   OH237249   2.719   1.946   4.702  0.1617  0.0846  0.3036
 5253TIP3    H137250   2.755   2.033   4.716 -0.2234  0.2070  0.5277
 5253TIP3    H237251   2.759   1.916   4.620 -0.8480  1.0600 -0.5623
 5254TIP3   OH237252   5.889   5.940  13.703  0.0980  0.5858  0.2084
 5254TIP3    H137253   5.885   6.034  13.686 -0.3429  0.4159 -0.6882
 5254TIP3    H237254   5.970   5.928  13.753  1.9084  1.0616 -2.4257
 5255TIP3   OH237255   3.420   3.879   5.640  0.3051 -0.4318 -0.1666
 5255TIP3    H137256   3.343   3.833   5.606  0.4598  0.2610 -1.5502
 5255TIP3    H237257   3.388   3.926   5.716  0.0417 -2.4191  1.0267
 5256TIP3   OH237258   5.515   3.634  12.670 -0.5605 -0.2362 -0.4798
 5256TIP3    H137259   5.562   3.636  12.753 -0.4313 -0.1345 -0.5549
 5256TIP3    H237260   5.466   3.716  12.667 -0.3737 -0.1310 -0.6155
 5257TIP3   OH237261   4.130   2.730   4.788 -0.1196  0.1678  0.1103
 5257TIP3    H137262   4.082   2.756   4.866  0.2387  1.4339 -0.0623
 5257TIP3    H237263   4.195   2.667   4.819 -0.8077 -0.2998  0.6113
 5258TIP3   OH237264   5.145   2.441  13.175 -0.0515  0.0151 -0.4109
 5258TIP3    H137265   5.224   2.495  13.177 -0.7992  1.1663 -0.7853
 5258TIP3    H237266   5.165   2.367  13.233  1.3286  0.2185 -0.5951
 5259TIP3   OH237267   0.191   4.148  14.849 -0.1900  0.3547  0.5898
 5259TIP3    H137268   0.120   4.087  14.869 -0.2867  0.1715 -0.2990
 5259TIP3    H237269   0.161   4.196  14.772  0.9646 -0.2439 -0.2542
 5260TIP3   OH237270   0.874   4.259   3.546  0.0895  0.3298 -0.1007
 5260TIP3    H137271   0.916   4.176   3.521 -0.3472  0.2660 -0.6350
 5260TIP3    H237272   0.882   4.262   3.641  0.8392  0.0687 -0.1554
 5261TIP3   OH237273   0.675   2.317   6.786  0.9155  0.8390 -0.0291
 5261TIP3    H137274   0.641   2.237   6.746  1.9217  0.7520 -0.7326
 5261TIP3    H237275   0.698   2.291   6.875  1.6347  0.2197 -0.3820
 5262TIP3   OH237276   1.212   1.087   1.422 -0.0977 -0.4123 -0.1032
 5262TIP3    H137277   1.202   1.053   1.333  0.6204 -1.0824  0.0622
 5262TIP3    H237278   1.171   1.019   1.477  0.3314 -0.4708  0.1460
 5263TIP3   OH237279   5.614   0.113   1.745  0.0089 -0.0516 -0.2817
 5263TIP3    H137280   5.609   0.207   1.759 -1.1379  0.0420 -1.2228
 5263TIP3    H237281   5.530   0.089   1.707 -0.3504 -1.7245  1.3814
 5264TIP3   OH237282   6.491   1.341  12.378  0.6084  0.0010 -0.1828
 5264TIP3    H137283   6.454   1.279  12.441 -1.3000 -0.0045 -1.2381
 5264TIP3    H237284   6.467   1.427  12.412 -2.9008 -0.0044 -2.1119
 5265TIP3   OH237285   0.800   1.553   3.090 -0.5362 -0.3191 -0.2318
 5265TIP3    H137286   0.814   1.648   3.089 -1.3986 -0.1904 -0.5103
 5265TIP3    H237287   0.713   1.542   3.127 -0.0653 -1.0626  0.6902
 5266TIP3   OH237288   4.799   4.825  16.839  0.4065 -0.0507 -0.1442
 5266TIP3    H137289   4.731   4.837  16.906 -0.4521 -0.9834 -0.8225
 5266TIP3    H237290   4.863   4.893  16.859 -1.2817  1.6587 -0.1973
 5267TIP3   OH237291   0.584   0.583  11.366  0.3515 -0.8088  0.1031
 5267TIP3    H137292   0.655   0.646  11.375  0.3046 -0.6544 -0.6079
 5267TIP3    H237293   0.614   0.521  11.300  0.1015 -1.1198  0.2778
 5268TIP3   OH237294   2.193   3.219  17.071 -0.3334 -0.2281  0.0107
 5268TIP3    H137295   2.221   3.259  17.153 -0.3376 -0.6064  0.2000
 5268TIP3    H237296   2.241   3.266  17.004  0.1170 -0.3025  0.2748
 5269TIP3   OH237297   1.633   3.816  16.703  0.1228 -0.0892 -0.0544
 5269TIP3    H137298   1.548   3.780  16.680 -0.1023  1.0793 -1.1599
 5269TIP3    H237299   1.613   3.896  16.752  0.6069 -0.6078  1.0395
 5270TIP3   OH237300   2.299   0.971   6.328  0.1844 -0.6377  0.0742
 5270TIP3    H137301   2.270   1.007   6.412 -2.2079 -0.5737 -0.6969
 5270TIP3    H237302   2.278   0.878   6.333 -0.5714 -0.5256 -0.6401
 5271TIP3   OH237303   6.071   4.731   5.961 -0.3323  0.1166  0.2925
 5271TIP3    H137304   6.043   4.822   5.967 -0.0197  0.1296  2.0990
 5271TIP3    H237305   6.159   4.730   6.000 -0.8158 -1.1296  1.4519
 5272TIP3   OH237306   0.300   0.684   0.107  0.0009  0.0808 -0.0066
 5272TIP3    H137307   0.392   0.709   0.096  0.2078 -0.6304  0.0932
 5272TIP3    H237308   0.285   0.688   0.201  0.7092 -2.4549  0.2739
 5273TIP3   OH237309   0.123   4.818   4.509 -0.4063  0.1932  0.2305
 5273TIP3    H137310   0.121   4.881   4.581 -0.0250 -0.1163  0.5158
 5273TIP3    H237311   0.202   4.767   4.524 -0.1428  0.3413 -0.5934
 5274TIP3   OH237312   0.338   0.143   1.011  0.1531  0.1942  0.0606
 5274TIP3    H137313   0.376   0.065   0.971 -1.6350  0.6541 -2.8965
 5274TIP3    H237314   0.397   0.166   1.083  1.7263 -2.7716 -0.1516
 5275TIP3   OH237315   1.907   4.342  11.985 -0.1098 -0.0686  0.3639
 5275TIP3    H137316   1.906   4.253  12.019  1.7169 -0.6119 -0.8420
 5275TIP3    H237317   1.874   4.334  11.895  1.5653  0.1443 -0.3156
 5276TIP3   OH237318   6.366   4.685   5.724 -0.5955  0.4239 -0.4809
 5276TIP3    H137319   6.417   4.696   5.804 -0.8719  0.8977 -0.3627
 5276TIP3    H237320   6.311   4.763   5.720 -2.2497 -0.6469  0.0907
 5277TIP3   OH237321   0.971   1.989   6.381  0.1844 -0.8128 -0.1244
 5277TIP3    H137322   0.979   2.043   6.302  2.3312  0.4132  0.8691
 5277TIP3    H237323   0.893   2.023   6.425  0.3809  0.1694 -0.4985
 5278TIP3   OH237324   1.071   3.048  11.942 -0.2784 -0.4696  0.2337
 5278TIP3    H137325   1.014   3.044  11.866 -0.7673  1.8798  0.3977
 5278TIP3    H237326   1.031   2.989  12.006 -0.6034 -1.4329 -0.8282
 5279TIP3   OH237327   3.803   2.373   0.162  0.2951  0.3448  0.2262
 5279TIP3    H137328   3.713   2.369   0.195  0.1951  1.2197  0.0975
 5279TIP3    H237329   3.830   2.463   0.178  1.1435  0.0987  0.2325
 5280TIP3   OH237330   2.419   3.564  10.742  1.0406  0.4168 -0.1992
 5280TIP3    H137331   2.440   3.648  10.783 -1.7267  1.1815 -0.1692
 5280TIP3    H237332   2.334   3.577  10.701  2.0547 -1.3988 -3.2166
 5281TIP3   OH237333   0.905   0.214   2.473  0.7115 -0.1222  0.0509
 5281TIP3    H137334   0.819   0.239   2.504  0.5031  0.1424 -0.7121
 5281TIP3    H237335   0.957   0.295   2.477  0.5246  0.0499 -0.7930
 5282TIP3   OH237336   6.544   1.148  12.988  0.4230 -0.3936  0.1996
 5282TIP3    H137337   6.540   1.224  13.046 -0.2653 -0.6949  0.5502
 5282TIP3    H237338   6.459   1.106  12.997  0.8663 -1.3158  0.1472
 5283TIP3   OH237339   3.490   4.121   4.902  0.1210 -0.1222  0.1594
 5283TIP3    H137340   3.451   4.149   4.819  0.1297  0.3647  0.3158
 5283TIP3    H237341   3.429   4.153   4.969 -0.5934 -1.6793  0.2959
 5284TIP3   OH237342   3.519   4.043   5.253  0.2433 -0.2562  0.0917
 5284TIP3    H137343   3.508   4.117   5.313 -0.4681 -0.8463  0.6967
 5284TIP3    H237344   3.465   4.065   5.178 -0.3633 -0.3896  0.4861
 5285TIP3   OH237345   6.363   6.204  12.092 -0.4360 -0.1054  0.3662
 5285TIP3    H137346   6.383   6.150  12.015  0.2811 -0.0774  0.5286
 5285TIP3    H237347   6.360   6.294  12.057 -2.2413 -0.2799 -0.0222
 5286TIP3   OH237348   1.896   2.389   0.074  0.0284 -0.8777 -0.5480
 5286TIP3    H137349   1.892   2.331   0.150 -1.4294 -0.1548 -0.0375
 5286TIP3    H237350   1.824   2.360   0.018 -0.2964 -0.0059 -0.5983
 5287TIP3   OH237351   4.383   1.208   5.131  0.4215  0.7421  0.2280
 5287TIP3    H137352   4.466   1.206   5.179 -0.2884  0.5442  1.5055
 5287TIP3    H237353   4.340   1.126   5.155  0.7232 -0.1741 -2.0840
 5288TIP3   OH237354   5.289   2.159   3.311  0.1100 -0.4890  0.1995
 5288TIP3    H137355   5.335   2.178   3.393 -0.4234  1.5861  0.0725
 5288TIP3    H237356   5.282   2.244   3.267 -1.7449 -1.1442 -0.8801
 5289TIP3   OH237357   3.880   3.355  13.301 -0.4503  0.2368 -0.1072
 5289TIP3    H137358   3.913   3.443  13.321 -0.7480  0.2473  0.3491
 5289TIP3    H237359   3.785   3.367  13.291 -0.8922 -0.4216  2.4646
 5290TIP3   OH237360   4.464   6.253  17.009 -0.2720 -0.2407 -0.7193
 5290TIP3    H137361   4.445   6.217  16.923 -1.8002  0.2295 -0.6105
 5290TIP3    H237362   4.473   6.347  16.994 -0.2318 -0.1949 -0.4135
 5291TIP3   OH237363   0.265   1.354   0.385 -0.5017 -0.2940 -0.2557
 5291TIP3    H137364   0.172   1.331   0.381 -0.9748  1.4583 -0.1077
 5291TIP3    H237365   0.297   1.341   0.296 -1.7931  2.4397 -1.2267
 5292TIP3   OH237366   3.075   6.667   1.059  0.3151 -0.8575 -0.7601
 5292TIP3    H137367   2.997   6.700   1.015 -0.3988 -1.3705  0.0725
 5292TIP3    H237368   3.118   6.612   0.995  0.1071 -0.4054 -1.2949
 5293TIP3   OH237369   1.009   1.731   2.059  0.7486  0.9070 -0.6834
 5293TIP3    H137370   0.977   1.791   2.126 -0.0382  0.6146 -0.7808
 5293TIP3    H237371   1.010   1.645   2.101 -0.3151  0.6211 -1.1910
 5294TIP3   OH237372   1.783   1.999  15.997  0.0610  0.0690 -0.4179
 5294TIP3    H137373   1.694   2.002  16.033  0.3804 -0.7117  0.4774
 5294TIP3    H237374   1.828   2.073  16.037 -0.0792  0.2359 -0.5711
 5295TIP3   OH237375   6.714   5.200   5.986 -0.1610  0.0272  0.5476
 5295TIP3    H137376   6.731   5.135   6.055  0.5022 -0.4055 -0.0007
 5295TIP3    H237377   6.630   5.175   5.950  1.1146 -2.0147 -1.2248
 5296TIP3   OH237378   1.933   3.468   5.490  0.0554 -0.3610  0.1482
 5296TIP3    H137379   1.906   3.514   5.411 -0.5167 -0.3214  0.3606
 5296TIP3    H237380   2.004   3.411   5.462  0.2194  0.0506 -0.2806
 5297TIP3   OH237381   3.559   6.410   4.740 -0.4380  0.0654 -0.2685
 5297TIP3    H137382   3.482   6.354   4.733 -1.7771  1.8969 -0.9008
 5297TIP3    H237383   3.553   6.470   4.665  2.7012 -0.9906 -1.5226
 5298TIP3   OH237384   6.738   2.991  17.126 -0.0269  0.0000 -0.1660
 5298TIP3    H137385   6.811   3.012  17.068 -0.1828 -0.9187 -0.7209
 5298TIP3    H237386   6.660   3.021  17.078 -0.1815 -1.0400 -0.5904
 5299TIP3   OH237387   5.882   3.869  13.968  0.0245 -0.0615 -0.2547
 5299TIP3    H137388   5.864   3.951  14.014  2.3527  0.6226 -0.4380
 5299TIP3    H237389   5.891   3.804  14.039 -0.4250  0.1366 -0.0140
 5300TIP3   OH237390   2.776   4.147  15.822  0.1133  0.0358 -0.2176
 5300TIP3    H137391   2.797   4.054  15.837  0.7534  0.1482 -0.3871
 5300TIP3    H237392   2.862   4.189  15.812 -0.1443  0.8230  0.8611
 5301TIP3   OH237393   0.168   0.588   3.424  0.1093 -0.6341 -0.1466
 5301TIP3    H137394   0.099   0.551   3.369 -0.3977  2.7048 -2.0222
 5301TIP3    H237395   0.243   0.597   3.366  0.2602  0.9549  0.2538
 5302TIP3   OH237396   3.954   5.028   0.634  0.5411 -0.0505  0.7352
 5302TIP3    H137397   4.048   5.024   0.648  0.5619 -0.0941  0.5834
 5302TIP3    H237398   3.918   4.967   0.698  0.4864  1.2003  1.9334
 5303TIP3   OH237399   4.083   3.166   2.095 -0.5207 -0.8017 -0.0203
 5303TIP3    H137400   4.153   3.217   2.136 -1.5756  1.0831 -0.4452
 5303TIP3    H237401   4.089   3.188   2.002 -2.0952 -0.0410  0.0308
 5304TIP3   OH237402   4.726   6.674  13.789  0.4862  0.5134 -0.0198
 5304TIP3    H137403   4.817   6.692  13.813 -0.4798  3.0359  2.2484
 5304TIP3    H237404   4.693   6.757  13.756 -1.3667  0.0193  0.4751
 5305TIP3   OH237405   2.236   0.998   6.626  0.0091 -0.3506 -0.1351
 5305TIP3    H137406   2.166   0.970   6.684 -0.5920 -0.5446 -0.9405
 5305TIP3    H237407   2.283   0.918   6.605 -0.1382 -0.3724 -0.3864
 5306TIP3   OH237408   1.543   1.549  12.795 -0.0407 -0.2412 -0.4558
 5306TIP3    H137409   1.568   1.633  12.833 -2.6132  0.6384 -0.5198
 5306TIP3    H237410   1.625   1.513  12.761  2.1246 -0.2064  4.0413
 5307TIP3   OH237411   2.749   6.387  11.236  0.7013  0.7674 -0.1347
 5307TIP3    H137412   2.732   6.294  11.253  1.5918  0.3426 -1.3833
 5307TIP3    H237413   2.672   6.418  11.189 -0.9999  1.5132  2.8723
 5308TIP3   OH237414   3.793   0.148   0.563  0.2257  0.1952 -0.1646
 5308TIP3    H137415   3.841   0.067   0.544 -1.3294 -0.8841  0.3504
 5308TIP3    H237416   3.734   0.159   0.488  0.2700  0.7490 -0.1241
 5309TIP3   OH237417   5.134   4.692   5.454  0.0357 -0.0125  0.3599
 5309TIP3    H137418   5.121   4.785   5.468  2.0450  0.2086  1.1007
 5309TIP3    H237419   5.074   4.669   5.383 -0.8043  1.7248  0.4672
 5310TIP3   OH237420   0.234   2.179  11.571  0.2665  0.7277 -0.6979
 5310TIP3    H137421   0.282   2.263  11.571 -0.5650  1.2139 -0.2000
 5310TIP3    H237422   0.272   2.131  11.498  1.3827  1.1778 -0.4399
 5311TIP3   OH237423   2.351   1.378   1.915  0.1302 -0.3730 -0.4060
 5311TIP3    H137424   2.414   1.307   1.925 -1.0188 -1.3294  0.3114
 5311TIP3    H237425   2.398   1.445   1.866  1.6476 -1.1109 -0.0135
 5312TIP3   OH237426   1.229   6.377   5.499  0.1208  0.6583 -0.3379
 5312TIP3    H137427   1.144   6.346   5.530  0.0035  1.8885  0.6429
 5312TIP3    H237428   1.272   6.412   5.577  2.8245 -2.6123 -0.1241
 5313TIP3   OH237429   1.975   0.050  11.062 -0.4976  0.4385 -0.0009
 5313TIP3    H137430   1.898   0.072  11.010  1.6296  2.5549 -2.5639
 5313TIP3    H237431   2.044   0.035  10.997  1.4061 -0.8952  2.1827
 5314TIP3   OH237432   6.258   3.056  11.509  0.7369  0.4855 -0.3518
 5314TIP3    H137433   6.170   3.080  11.480  0.2829  1.2160  1.4704
 5314TIP3    H237434   6.276   2.973  11.466 -1.9990 -1.1011  1.3444
 5315TIP3   OH237435   2.914   3.050   2.818 -0.4112  0.1244  0.2400
 5315TIP3    H137436   3.001   3.049   2.778 -0.0044 -4.5390  0.6525
 5315TIP3    H237437   2.929   3.026   2.909 -2.0956 -0.9658  0.2746
 5316TIP3   OH237438   4.849   2.023  13.161 -0.0841 -0.7247  0.1437
 5316TIP3    H137439   4.837   1.928  13.157  1.0931 -0.9545  1.3926
 5316TIP3    H237440   4.805   2.049  13.242 -1.1982 -0.0535 -0.6595
 5317TIP3   OH237441   5.278   2.758   3.447 -0.3552  0.3413  0.0823
 5317TIP3    H137442   5.356   2.717   3.411  1.1577  1.4631  1.8942
 5317TIP3    H237443   5.253   2.701   3.520 -1.9896 -0.6412 -1.1729
 5318TIP3   OH237444   3.258   3.468   1.208  0.4811 -0.1657 -0.3759
 5318TIP3    H137445   3.273   3.404   1.278 -2.9943  0.8017  1.4803
 5318TIP3    H237446   3.300   3.548   1.239  0.4072 -0.1873 -0.2198
 5319TIP3   OH237447   3.408   3.730  11.652 -0.2526  0.2975 -0.6101
 5319TIP3    H137448   3.333   3.739  11.594 -2.6575 -1.0065  2.0427
 5319TIP3    H237449   3.410   3.812  11.701  0.1304  0.3668 -0.7402
 5320TIP3   OH237450   5.361   1.457  14.376  0.1192  0.3651  0.3088
 5320TIP3    H137451   5.432   1.505  14.333  1.8358 -1.9181  0.3912
 5320TIP3    H237452   5.294   1.447  14.308  0.4915  1.3217 -0.2173
 5321TIP3   OH237453   5.866   0.027   4.845  0.4227 -0.0537  0.2307
 5321TIP3    H137454   5.813  -0.051   4.826 -0.1211  0.7874 -2.0704
 5321TIP3    H237455   5.908   0.008   4.929 -0.0874 -2.5999 -0.0128
 5322TIP3   OH237456   6.689   3.113  14.084  0.3048 -0.1667  0.5682
 5322TIP3    H137457   6.746   3.073  14.018  1.0480  1.5045  0.1285
 5322TIP3    H237458   6.608   3.132  14.038  0.5338  0.2671  0.3331
 5323TIP3   OH237459   4.055   6.682   4.831  0.9613  0.6407 -0.3836
 5323TIP3    H137460   4.063   6.776   4.814 -0.9672  1.1189  1.0169
 5323TIP3    H237461   4.019   6.646   4.750 -1.5194  1.7185  0.1483
 5324TIP3   OH237462   4.703   1.591  13.359  0.4729 -0.0449  0.4282
 5324TIP3    H137463   4.683   1.630  13.444 -1.4890 -0.8072  0.3643
 5324TIP3    H237464   4.797   1.571  13.363  0.4936  0.2686  2.2684
 5325TIP3   OH237465   5.955   3.155  17.048  0.1303  0.1163  0.3856
 5325TIP3    H137466   5.923   3.205  17.123  1.0484  0.0634  0.8325
 5325TIP3    H237467   5.888   3.089  17.032 -0.7928  1.0626  0.1954
 5326TIP3   OH237468   0.288   4.641   6.790  0.7521  0.3175  0.3969
 5326TIP3    H137469   0.340   4.648   6.710  0.1935  0.1963  0.0119
 5326TIP3    H237470   0.303   4.552   6.821  2.0313  0.7806  1.1874
 5327TIP3   OH237471   2.961   1.327   6.068 -0.1235  0.3061 -0.2184
 5327TIP3    H137472   2.934   1.295   6.154 -3.9426  0.9878 -0.9836
 5327TIP3    H237473   3.004   1.411   6.085  1.5642 -0.7690  1.1214
 5328TIP3   OH237474   3.896   4.883  14.045 -0.5069 -0.1541  0.2120
 5328TIP3    H137475   3.840   4.959  14.031 -1.8369 -1.2683 -0.7852
 5328TIP3    H237476   3.891   4.867  14.139 -1.8606 -0.2024  0.1523
 5329TIP3   OH237477   3.778   4.720   5.243  0.7316 -0.1630  0.1585
 5329TIP3    H137478   3.706   4.687   5.298  1.1303  0.8201  1.3202
 5329TIP3    H237479   3.853   4.724   5.302  1.0072  1.5835 -0.2438
 5330TIP3   OH237480   6.335   3.773   4.087 -0.3290  0.0464  0.2329
 5330TIP3    H137481   6.329   3.862   4.050 -0.0782  0.2683  0.7260
 5330TIP3    H237482   6.371   3.720   4.015  1.0835  0.6658  0.4441
 5331TIP3   OH237483   0.875   6.730   2.745  0.4091 -0.4017  0.2139
 5331TIP3    H137484   0.780   6.744   2.750  0.7004  1.9614 -0.0212
 5331TIP3    H237485   0.884   6.634   2.745 -1.9732 -0.7026 -0.1014
 5332TIP3   OH237486   2.998   6.436  17.202  0.6570  0.0579  0.3757
 5332TIP3    H137487   2.959   6.521  17.182  1.2225  0.2506  0.0665
 5332TIP3    H237488   2.925   6.375  17.199  0.7505 -0.1456 -3.4611
 5333TIP3   OH237489   2.882   2.055  12.837  0.1901 -0.1491  0.2064
 5333TIP3    H137490   2.934   2.135  12.842 -0.3945  0.3118 -0.7528
 5333TIP3    H237491   2.821   2.061  12.911 -1.0223  1.1715 -0.8309
 5334TIP3   OH237492   6.467   1.797   7.105 -0.1560  0.5667 -0.1122
 5334TIP3    H137493   6.454   1.747   7.024 -2.2592 -2.2523  1.7816
 5334TIP3    H237494   6.453   1.888   7.079 -0.6191 -0.2194 -2.9377
 5335TIP3   OH237495   3.933   0.484   4.265 -0.6845  0.6897 -0.3753
 5335TIP3    H137496   3.953   0.434   4.344 -0.4377  1.8098  0.2863
 5335TIP3    H237497   3.904   0.418   4.202 -1.9824 -0.1011  0.9891
 5336TIP3   OH237498   5.811   5.829   0.322 -0.1169  0.5234  0.7645
 5336TIP3    H137499   5.724   5.817   0.361 -0.2416  0.1305  0.3782
 5336TIP3    H237500   5.812   5.768   0.247  0.7959 -0.0897  1.2589
 5337TIP3   OH237501   5.056   5.847  16.045 -0.3785  0.0867  0.1858
 5337TIP3    H137502   5.018   5.930  16.074  0.3889  1.1095 -1.5467
 5337TIP3    H237503   5.064   5.795  16.125 -0.4584  1.8594  1.4195
 5338TIP3   OH237504   6.312   0.762   2.602  0.5876  0.0023 -0.1967
 5338TIP3    H137505   6.395   0.803   2.626  0.5857 -0.8903  1.4715
 5338TIP3    H237506   6.325   0.669   2.621 -0.4943 -0.2904 -0.8110
 5339TIP3   OH237507   5.146   1.996   5.941 -0.1030  0.3556  0.3096
 5339TIP3    H137508   5.087   2.069   5.964 -0.6870  1.0801 -2.9282
 5339TIP3    H237509   5.229   2.039   5.920  0.1319 -0.1392  0.2332
 5340TIP3   OH237510   1.964   0.839  13.535  0.1180  0.7279  0.1317
 5340TIP3    H137511   1.909   0.903  13.581 -0.2012  0.6189 -0.0936
 5340TIP3    H237512   1.930   0.838  13.445 -0.2104 -0.1247  0.2526
 5341TIP3   OH237513   6.165   2.056   0.716  0.6470 -0.3309 -0.2211
 5341TIP3    H137514   6.118   1.976   0.741  0.9479 -0.7268 -0.8876
 5341TIP3    H237515   6.205   2.086   0.798 -0.2055 -0.3552  0.2201
 5342TIP3   OH237516   1.131   3.611  13.151  0.4170  0.3926  0.3838
 5342TIP3    H137517   1.088   3.590  13.068  0.8396 -1.1299  0.5208
 5342TIP3    H237518   1.061   3.646  13.206  0.1622  1.5757 -0.6313
 5343TIP3   OH237519   2.584   1.189  17.229  0.1783 -0.1275 -0.5302
 5343TIP3    H137520   2.508   1.243  17.208 -2.1595 -2.9078  0.1205
 5343TIP3    H237521   2.568   1.107  17.184  2.1264 -1.3040  0.7765
 5344TIP3   OH237522   2.480   3.631  13.030 -0.0834  0.6697  0.0268
 5344TIP3    H137523   2.542   3.566  12.996 -0.4418  0.0061  0.6222
 5344TIP3    H237524   2.420   3.647  12.957  0.7716  1.3260 -0.5629
 5345TIP3   OH237525   2.235   0.656  12.578 -0.0661  0.2237  0.2222
 5345TIP3    H137526   2.284   0.576  12.562  1.0618  0.7348  1.0038
 5345TIP3    H237527   2.299   0.717  12.615 -1.3077  0.8748  1.4058
 5346TIP3   OH237528   4.105   3.752  11.060 -0.3221 -0.2137 -0.1715
 5346TIP3    H137529   4.173   3.684  11.063  2.0340  2.0116  2.3316
 5346TIP3    H237530   4.135   3.813  10.993  0.0727  0.6174  0.7278
 5347TIP3   OH237531   2.579   6.181  14.513 -0.1750  0.2915 -0.2077
 5347TIP3    H137532   2.536   6.124  14.449 -0.5992  0.8073 -0.3939
 5347TIP3    H237533   2.567   6.135  14.597  0.7203 -0.5748 -0.5344
 5348TIP3   OH237534   0.932   3.891  11.777 -0.1514  0.1570  0.7379
 5348TIP3    H137535   0.910   3.890  11.684 -1.8715 -1.6370  1.0991
 5348TIP3    H237536   1.028   3.899  11.779 -0.2496  2.9756 -1.0702
 5349TIP3   OH237537   1.101   1.517   0.801  0.1811  0.2066 -0.2642
 5349TIP3    H137538   1.037   1.497   0.870 -0.3628  0.2383 -0.7481
 5349TIP3    H237539   1.138   1.602   0.826 -1.1788  1.0023 -0.8196
 5350TIP3   OH237540   6.757   0.020   5.369 -0.2146  0.6179  0.2075
 5350TIP3    H137541   6.785   0.051   5.284  0.0363 -0.8993 -0.2832
 5350TIP3    H237542   6.836   0.018   5.422 -0.2370  0.8129  0.2510
 5351TIP3   OH237543   2.286   1.638  14.431 -0.1478 -0.0497  0.1669
 5351TIP3    H137544   2.213   1.610  14.376 -0.2867  1.8988 -0.6914
 5351TIP3    H237545   2.364   1.626  14.377 -0.2015  1.0978 -0.1853
 5352TIP3   OH237546   0.814   5.253   2.105 -0.4676 -0.0956 -0.3393
 5352TIP3    H137547   0.724   5.231   2.125 -1.3113  2.9483 -0.2744
 5352TIP3    H237548   0.816   5.263   2.010 -1.2306  3.2631 -0.1231
 5353TIP3   OH237549   1.645   2.815   5.499  0.5917  0.0069  0.3956
 5353TIP3    H137550   1.632   2.824   5.405  1.1044  1.0039  0.4054
 5353TIP3    H237551   1.578   2.752   5.527 -2.1511  2.5085 -0.0221
 5354TIP3   OH237552   0.858   6.116  14.962  0.4341 -0.1704  0.0453
 5354TIP3    H137553   0.773   6.078  14.937 -0.0063 -0.5405  1.9287
 5354TIP3    H237554   0.860   6.108  15.058  1.9954  1.1284  0.1524
 5355TIP3   OH237555   1.689   2.912  13.443  0.0447  0.6447 -0.0315
 5355TIP3    H137556   1.605   2.942  13.409 -0.2525 -0.8057 -0.6477
 5355TIP3    H237557   1.671   2.889  13.534 -0.1805  0.4977 -0.1134
 5356TIP3   OH237558   0.057   0.292   3.755 -0.2954  0.5530  0.2922
 5356TIP3    H137559   0.048   0.284   3.850 -0.2449  2.2916  0.4736
 5356TIP3    H237560   0.152   0.295   3.741 -0.3048  0.3972  0.1990
 5357TIP3   OH237561   1.063   4.965  10.936 -0.5063  0.2733  0.1433
 5357TIP3    H137562   0.969   4.946  10.938 -0.6731  0.5578 -2.2501
 5357TIP3    H237563   1.081   4.986  10.844  2.3155 -1.8021  0.1138
 5358TIP3   OH237564   5.482   1.060  15.324  0.0867 -0.3174  0.3379
 5358TIP3    H137565   5.545   1.030  15.259  1.4987 -0.5285  1.7540
 5358TIP3    H237566   5.506   1.015  15.405 -2.2704 -0.8891  0.8080
 5359TIP3   OH237567   5.882   2.069   5.045  0.4076 -0.0524 -0.3498
 5359TIP3    H137568   5.866   2.021   4.964 -0.7413  1.0678 -0.8207
 5359TIP3    H237569   5.975   2.091   5.043  0.5409 -0.6464 -1.0050
 5360TIP3   OH237570   1.275   1.917  12.965 -0.4749  0.1409  0.1506
 5360TIP3    H137571   1.232   2.002  12.959 -0.3825  0.3428  1.8636
 5360TIP3    H237572   1.355   1.927  12.914 -1.3966  0.4216 -1.3144
 5361TIP3   OH237573   6.065   5.072   6.403 -0.5769 -0.1715 -0.3956
 5361TIP3    H137574   5.974   5.102   6.404 -0.6511 -0.4075 -0.0211
 5361TIP3    H237575   6.073   5.017   6.481 -0.0141  0.1401 -0.2296
 5362TIP3   OH237576   4.454   0.967   1.897 -0.6143 -0.3178  0.2535
 5362TIP3    H137577   4.388   0.905   1.866  2.1935 -3.0178 -0.8029
 5362TIP3    H237578   4.484   0.930   1.980  0.0184  0.5302  0.4155
 5363TIP3   OH237579   2.657   4.020   3.086  0.0626 -0.4416 -0.1008
 5363TIP3    H137580   2.656   4.029   2.991 -0.6930 -2.0764 -0.2957
 5363TIP3    H237581   2.749   4.024   3.110  0.1414  2.6646 -0.5348
 5364TIP3   OH237582   2.095   5.193  13.661  0.3187 -0.3585  0.1895
 5364TIP3    H137583   2.088   5.286  13.637  0.6892 -0.4669 -0.3555
 5364TIP3    H237584   2.031   5.182  13.732  0.0837  0.2526  0.0834
 5365TIP3   OH237585   6.305   3.043   3.147  0.0310  0.2413  0.0452
 5365TIP3    H137586   6.293   3.080   3.235  2.0381  0.7489  0.1611
 5365TIP3    H237587   6.218   3.014   3.121 -0.9594  1.7545  1.4531
 5366TIP3   OH237588   1.930   6.335   2.705  0.1491 -0.3794 -0.0147
 5366TIP3    H137589   1.882   6.268   2.753  1.9503 -0.8157  1.2346
 5366TIP3    H237590   1.884   6.417   2.726 -0.0438 -0.7760  1.1672
 5367TIP3   OH237591   1.320   2.748  13.573  0.0247 -0.0152  0.0052
 5367TIP3    H137592   1.323   2.837  13.537 -0.7423 -0.7573 -2.0410
 5367TIP3    H237593   1.385   2.700  13.522 -0.6457 -0.9704  0.0272
 5368TIP3   OH237594   1.684   4.842  12.959  0.2148  0.0252 -0.6430
 5368TIP3    H137595   1.610   4.781  12.963 -1.3465  1.8535 -0.5000
 5368TIP3    H237596   1.692   4.864  12.867 -2.6349  3.4434 -0.2730
 5369TIP3   OH237597   0.214   3.577   2.726 -0.1680 -0.1584 -0.3395
 5369TIP3    H137598   0.150   3.605   2.662  0.3104  0.8196 -0.4022
 5369TIP3    H237599   0.290   3.633   2.711 -0.0811  0.1553  1.1296
 5370TIP3   OH237600   0.340   4.447   4.275 -0.1275  0.1299 -0.2443
 5370TIP3    H137601   0.285   4.390   4.329  0.1008 -1.1289 -1.2988
 5370TIP3    H237602   0.421   4.399   4.263  0.3711  1.0195 -0.5250
 5371TIP3   OH237603   1.377   0.260  15.671  0.5251  0.8736  0.4856
 5371TIP3    H137604   1.433   0.192  15.632 -0.6942 -0.0448  0.2646
 5371TIP3    H237605   1.317   0.285  15.601 -0.4926  0.5475  1.2164
 5372TIP3   OH237606   1.575   1.879  13.478  0.8971  0.2986 -0.1783
 5372TIP3    H137607   1.563   1.946  13.411 -0.1457  0.2637 -0.0364
 5372TIP3    H237608   1.555   1.924  13.561 -1.2812 -0.5397 -0.2063
 5373TIP3   OH237609   0.309   0.690  10.609  0.5816 -0.5322 -0.2302
 5373TIP3    H137610   0.311   0.658  10.519  0.4519 -0.8560 -0.1209
 5373TIP3    H237611   0.342   0.617  10.661 -1.4975 -1.2202  0.2243
 5374TIP3   OH237612   4.104   3.378  14.240  0.1740 -0.1046 -0.1400
 5374TIP3    H137613   4.047   3.400  14.166 -1.1863 -1.2166  0.5088
 5374TIP3    H237614   4.157   3.305  14.209 -0.7714 -0.9212  0.1182
 5375TIP3   OH237615   3.769   1.830   2.419 -0.2423  0.0371 -0.4933
 5375TIP3    H137616   3.780   1.800   2.329 -1.7401 -0.7315 -0.4401
 5375TIP3    H237617   3.766   1.750   2.471 -0.2734  0.4445  0.1420
 5376TIP3   OH237618   6.175   0.461  15.140  0.8068 -0.0426 -0.2856
 5376TIP3    H137619   6.108   0.526  15.119  0.3804 -0.3688  0.0393
 5376TIP3    H237620   6.151   0.384  15.088  1.0940 -0.0619 -0.3885
 5377TIP3   OH237621   5.949   3.831  16.873  0.0710 -0.1740  0.3824
 5377TIP3    H137622   5.988   3.753  16.913  0.7816 -1.3974 -2.4592
 5377TIP3    H237623   5.855   3.819  16.884  0.0423 -2.4514 -1.5275
 5378TIP3   OH237624   3.712   3.298   0.295 -0.5816  0.5513  0.4276
 5378TIP3    H137625   3.745   3.384   0.320 -0.9703  0.4668  1.2633
 5378TIP3    H237626   3.788   3.240   0.301 -0.6708  0.5232  1.5031
 5379TIP3   OH237627   3.068   4.726  16.984 -0.8565 -0.3530  0.2350
 5379TIP3    H137628   3.005   4.744  16.914 -2.5304 -1.9536  1.2024
 5379TIP3    H237629   3.112   4.646  16.956  0.6076  0.6089 -0.3045
 5380TIP3   OH237630   6.738   5.468   6.028 -0.2397 -0.2045 -0.3236
 5380TIP3    H137631   6.721   5.388   5.977 -2.0436 -0.5768  0.7633
 5380TIP3    H237632   6.761   5.436   6.115 -0.8844  0.4384  0.0954
 5381TIP3   OH237633   6.081   1.261  14.213 -0.4028  0.3318  0.4094
 5381TIP3    H137634   6.175   1.242  14.203 -0.1260  0.4476  2.3919
 5381TIP3    H237635   6.078   1.339  14.268 -1.6640 -0.6470  1.8150
 5382TIP3   OH237636   4.137   0.828  16.700 -0.0706 -0.2032 -0.1529
 5382TIP3    H137637   4.222   0.832  16.743  0.3061 -2.0492 -0.6134
 5382TIP3    H237638   4.155   0.789  16.614 -1.3703 -0.7342 -0.2095
 5383TIP3   OH237639   6.256   4.073  11.046  0.4752  0.2711 -0.4579
 5383TIP3    H137640   6.219   4.161  11.047 -0.2900  0.0010  1.8807
 5383TIP3    H237641   6.304   4.068  10.963  0.6736  2.9235 -0.5947
 5384TIP3   OH237642   1.810   0.858   0.823 -0.3195  0.1006  0.2030
 5384TIP3    H137643   1.785   0.793   0.758 -0.9309 -0.1193  0.6527
 5384TIP3    H237644   1.754   0.934   0.804 -1.0705 -0.2470  0.9546
 5385TIP3   OH237645   3.589   5.733   2.254 -0.8080 -0.0477 -0.1752
 5385TIP3    H137646   3.505   5.777   2.240 -0.7960  0.3792  0.9922
 5385TIP3    H237647   3.605   5.685   2.173 -2.6044 -0.8603 -0.0901
 5386TIP3   OH237648   4.022   2.318  16.602  0.2740  0.6109  0.2418
 5386TIP3    H137649   3.928   2.302  16.612 -0.1943  3.2072  0.8053
 5386TIP3    H237650   4.045   2.275  16.520 -0.6977 -2.5643  1.4756
 5387TIP3   OH237651   5.354   6.589   6.602 -0.2194 -0.1012  0.1971
 5387TIP3    H137652   5.444   6.588   6.634  0.2115  0.5921 -0.9211
 5387TIP3    H237653   5.329   6.682   6.604 -0.5535 -0.1715 -0.4328
 5388TIP3   OH237654   0.424   0.401  16.170  0.0499  0.0758  0.1656
 5388TIP3    H137655   0.460   0.316  16.197 -2.2973 -0.8364  0.6133
 5388TIP3    H237656   0.401   0.388  16.078 -1.1354 -0.0941  0.4725
 5389TIP3   OH237657   4.513   4.262  11.471  0.5206 -0.2573 -0.5366
 5389TIP3    H137658   4.596   4.310  11.474  1.9672 -2.6602  0.2524
 5389TIP3    H237659   4.515   4.205  11.548 -1.6103 -0.8265 -0.8433
 5390TIP3   OH237660   4.065   3.498   0.676  0.7264 -0.0476  0.9455
 5390TIP3    H137661   4.044   3.410   0.644 -0.5793  0.9661 -1.2108
 5390TIP3    H237662   4.129   3.531   0.612 -1.8614  1.9991 -0.8225
 5391TIP3   OH237663   5.681   4.269   2.729 -0.1680  0.6047 -0.2592
 5391TIP3    H137664   5.662   4.355   2.692  0.5268  0.9733  0.2179
 5391TIP3    H237665   5.635   4.268   2.813 -0.9135  0.1540 -0.6560
 5392TIP3   OH237666   3.761   3.471   5.492  0.7279  0.1922 -0.0721
 5392TIP3    H137667   3.845   3.426   5.499  0.1817 -0.8670 -0.1033
 5392TIP3    H237668   3.706   3.431   5.559  0.3009  0.9996  0.0702
 5393TIP3   OH237669   4.982   4.135  11.587 -0.2491  0.0444  0.3090
 5393TIP3    H137670   4.929   4.166  11.661 -0.5829 -1.4349  0.7278
 5393TIP3    H237671   5.059   4.192  11.588 -0.5233  0.4361  1.4384
 5394TIP3   OH237672   6.661   6.337   6.231  0.1355 -0.5014  0.1460
 5394TIP3    H137673   6.648   6.244   6.213  0.3604 -1.0561  2.5422
 5394TIP3    H237674   6.608   6.354   6.309  2.4718  0.5682  1.6222
 5395TIP3   OH237675   1.601   6.773  17.228 -0.6117 -0.3985 -0.0729
 5395TIP3    H137676   1.535   6.743  17.166  0.6227 -1.8773 -0.7462
 5395TIP3    H237677   1.640   6.692  17.262  0.7041  0.4276  0.4422
 5396TIP3   OH237678   0.526   2.085   3.081  0.2015  0.1316 -0.7961
 5396TIP3    H137679   0.593   2.023   3.052 -0.2356 -0.1391 -1.2628
 5396TIP3    H237680   0.517   2.146   3.007  1.3685  1.4015  0.0625
 5397TIP3   OH237681   5.647   2.897  11.685  0.0817  0.6349  0.3147
 5397TIP3    H137682   5.741   2.879  11.693  0.1441  1.0505  0.5646
 5397TIP3    H237683   5.635   2.919  11.592 -0.2673 -2.1171 -0.3892
 5398TIP3   OH237684   3.779   3.181  11.224  0.2887  0.0597  0.1444
 5398TIP3    H137685   3.834   3.185  11.146 -1.2959  0.5165 -0.9989
 5398TIP3    H237686   3.690   3.194  11.191 -0.6246 -1.5668  1.8130
 5399TIP3   OH237687   0.357   2.742   2.913  0.0549  0.3492  0.9300
 5399TIP3    H137688   0.431   2.718   2.858  0.0400  0.8457  0.6940
 5399TIP3    H237689   0.341   2.664   2.967  0.5877  0.1557  0.8090
 5400TIP3   OH237690   2.134   5.037  16.049 -0.3218 -0.1157 -0.1585
 5400TIP3    H137691   2.121   4.948  16.083  1.0317  0.0292  0.8386
 5400TIP3    H237692   2.149   5.025  15.956 -3.6951 -0.5693 -0.7910
 5401TIP3   OH237693   2.139   1.581  17.122 -0.4409  0.1941 -0.4755
 5401TIP3    H137694   2.110   1.511  17.064 -1.6319  0.1244  0.1743
 5401TIP3    H237695   2.211   1.623  17.075 -1.8947  0.6727 -2.4345
 5402TIP3   OH237696   3.534   1.315   5.831  0.0741  0.1766  0.1697
 5402TIP3    H137697   3.510   1.400   5.868  0.9073 -0.3973  2.1564
 5402TIP3    H237698   3.615   1.291   5.876 -1.0795 -2.4824  1.0412
 5403TIP3   OH237699   2.890   6.408   0.541  0.5865  0.8727  0.4512
 5403TIP3    H137700   2.813   6.376   0.588 -0.3356  1.0694 -0.8742
 5403TIP3    H237701   2.855   6.461   0.470  1.8339 -0.5696 -1.3483
 5404TIP3   OH237702   2.163   0.576   0.688 -0.4357  0.1549 -0.5153
 5404TIP3    H137703   2.086   0.533   0.651 -1.0481  0.5742  0.2380
 5404TIP3    H237704   2.139   0.668   0.694  0.3042  0.3691 -0.7099
 5405TIP3   OH237705   1.616   0.855  15.142  0.2709  0.5852  0.0651
 5405TIP3    H137706   1.622   0.871  15.236 -1.1530  0.5054  0.1948
 5405TIP3    H237707   1.610   0.760  15.134 -1.2172  0.6604  0.0324
 5406TIP3   OH237708   2.421   4.874   0.187 -0.4439 -0.4235 -0.2255
 5406TIP3    H137709   2.471   4.864   0.106  2.4758  4.5602  0.5813
 5406TIP3    H237710   2.340   4.917   0.160 -0.9275 -1.5881 -0.7180
 5407TIP3   OH237711   1.823   2.696  11.701 -0.7213 -0.8312  0.3635
 5407TIP3    H137712   1.766   2.676  11.626  1.6232 -1.5037 -1.3681
 5407TIP3    H237713   1.858   2.783  11.681  0.0286 -1.0769  0.5824
 5408TIP3   OH237714   6.309   6.178  16.742  0.4640 -0.8084  0.2183
 5408TIP3    H137715   6.215   6.192  16.747  0.5854  0.2825 -0.3953
 5408TIP3    H237716   6.346   6.231  16.813  0.6555 -0.9529  0.2315
 5409TIP3   OH237717   2.161   1.251   0.664 -0.3917 -0.2692 -0.0260
 5409TIP3    H137718   2.145   1.238   0.570 -0.1987  2.1058 -0.4651
 5409TIP3    H237719   2.239   1.308   0.666 -0.4374 -0.2392  1.5765
 5410TIP3   OH237720   3.668   3.455   3.290 -0.0270  0.2247 -0.7845
 5410TIP3    H137721   3.597   3.392   3.277  1.5963 -1.4765 -1.8721
 5410TIP3    H237722   3.634   3.516   3.356 -2.6210 -0.2669 -1.5582
 5411TIP3   OH237723   4.496   1.348   4.802  0.1240  0.0853 -0.2710
 5411TIP3    H137724   4.567   1.319   4.745  1.6051  0.1037  1.4773
 5411TIP3    H237725   4.446   1.268   4.821 -0.2876  0.0558 -1.4233
 5412TIP3   OH237726   4.974   0.401  15.932 -0.3485  0.1511  0.1369
 5412TIP3    H137727   5.038   0.467  15.908 -0.1576 -1.1537 -3.6180
 5412TIP3    H237728   5.022   0.339  15.988  0.3485  1.4194  0.9932
 5413TIP3   OH237729   2.487   1.536  11.329  0.4859 -0.6941 -0.2005
 5413TIP3    H137730   2.563   1.478  11.321  0.0449 -1.4671  0.8866
 5413TIP3    H237731   2.412   1.476  11.325 -0.0445  0.0022 -0.7600
 5414TIP3   OH237732   3.813   1.490   5.329  0.4190 -0.1619  0.4294
 5414TIP3    H137733   3.822   1.569   5.275 -2.5081  1.0350  1.5189
 5414TIP3    H237734   3.851   1.515   5.413 -0.8728  0.2994  0.9037
 5415TIP3   OH237735   3.604   6.274  16.069 -0.1803 -0.5525  0.0954
 5415TIP3    H137736   3.538   6.226  16.119 -0.7984 -0.3439 -0.5021
 5415TIP3    H237737   3.651   6.327  16.134 -0.7201 -0.5692  0.4997
 5416TIP3   OH237738   5.097   2.893   1.204  0.1627  0.0046 -0.0167
 5416TIP3    H137739   5.134   2.838   1.273  1.0058 -0.2806 -0.6875
 5416TIP3    H237740   5.160   2.964   1.193 -0.5859  0.7601  0.3659
 5417TIP3   OH237741   5.550   3.705   1.437  0.4080 -0.2866 -0.1553
 5417TIP3    H137742   5.571   3.772   1.503  0.9128  0.4921 -1.0852
 5417TIP3    H237743   5.554   3.623   1.486 -0.1717  0.3381  0.9990
 5418TIP3   OH237744   1.650   1.561   4.046 -0.3571  0.0014  0.2836
 5418TIP3    H137745   1.641   1.468   4.067 -1.1210  0.1725  0.7368
 5418TIP3    H237746   1.691   1.562   3.959 -0.2099 -0.7519  0.3376
 5419TIP3   OH237747   6.785   1.751  12.066  0.1354  0.4134 -0.1709
 5419TIP3    H137748   6.728   1.674  12.070 -1.0687  1.3232  2.7751
 5419TIP3    H237749   6.740   1.812  12.008  1.1902 -1.0580 -2.6776
 5420TIP3   OH237750   5.019   4.807  14.480 -0.0313 -0.5835  0.7165
 5420TIP3    H137751   4.983   4.830  14.394  1.0277 -1.5578 -0.0307
 5420TIP3    H237752   4.984   4.720  14.498  2.3810 -1.8977 -0.3869
 5421TIP3   OH237753   5.480   4.322  12.493  0.0195 -0.3340  0.3699
 5421TIP3    H137754   5.402   4.289  12.450  1.1595 -1.5721 -0.8197
 5421TIP3    H237755   5.550   4.315  12.427  1.0439  1.2589  1.1981
 5422TIP3   OH237756   0.517   0.754   0.622  0.5381  0.5404 -0.4393
 5422TIP3    H137757   0.604   0.790   0.606  1.2009 -1.3305 -1.3087
 5422TIP3    H237758   0.533   0.670   0.665 -1.0000  1.9462  3.3686
 5423TIP3   OH237759   0.279   2.699   0.011  0.2167  0.0167 -0.5782
 5423TIP3    H137760   0.203   2.720  -0.044  0.9228 -0.4428 -1.7647
 5423TIP3    H237761   0.322   2.626  -0.035  1.5637  0.4958 -0.1124
 5424TIP3   OH237762   6.764   2.974   1.613  0.8267 -0.3696  0.0861
 5424TIP3    H137763   6.853   2.966   1.648  1.0795 -1.8370 -0.7918
 5424TIP3    H237764   6.768   2.929   1.529 -0.6507 -0.0672 -0.1645
 5425TIP3   OH237765   0.206   5.759  15.995  0.7074 -0.1784 -0.4120
 5425TIP3    H137766   0.111   5.746  16.004  0.7662  0.1022  0.6830
 5425TIP3    H237767   0.239   5.674  15.966  0.1568 -0.3459 -0.5754
 5426TIP3   OH237768   5.475   0.575   0.283  0.1082 -0.1769 -0.5521
 5426TIP3    H137769   5.543   0.579   0.350  0.4335  1.2923 -0.9467
 5426TIP3    H237770   5.393   0.571   0.331  0.4219 -1.6795 -0.0726
 5427TIP3   OH237771   3.839   4.293  14.520 -0.4145 -0.1255  0.4879
 5427TIP3    H137772   3.777   4.244  14.574  1.1091 -1.6867  0.9267
 5427TIP3    H237773   3.821   4.385  14.540 -3.0984 -0.4630 -0.0483
 5428TIP3   OH237774   0.998   6.225   5.271  0.2159  0.1782  0.5132
 5428TIP3    H137775   0.964   6.252   5.356 -0.4496 -0.1583  0.3539
 5428TIP3    H237776   0.921   6.210   5.217  0.6198 -0.1976  0.0266
 5429TIP3   OH237777   6.058   0.068  11.867  0.6618 -0.2096 -0.7507
 5429TIP3    H137778   6.092  -0.008  11.915 -0.1671 -0.1832 -0.0892
 5429TIP3    H237779   6.073   0.047  11.775  1.9617 -0.4206 -0.5090
 5430TIP3   OH237780   6.754   5.165   0.795 -0.1454  0.2852 -0.0315
 5430TIP3    H137781   6.684   5.189   0.735 -0.1091  1.2693  0.3023
 5430TIP3    H237782   6.804   5.099   0.748 -2.5132 -2.0938  0.5433
 5431TIP3   OH237783   3.556   0.636   4.557  0.5748 -0.3561  0.4663
 5431TIP3    H137784   3.607   0.686   4.494 -0.3252 -1.0932 -0.9072
 5431TIP3    H237785   3.537   0.553   4.513 -1.0842 -0.4382  1.2331
 5432TIP3   OH237786   1.419   4.722   4.014 -0.3530  0.1835  0.2781
 5432TIP3    H137787   1.504   4.682   3.997 -0.5586  0.4390 -1.5291
 5432TIP3    H237788   1.386   4.747   3.927 -1.9498  0.7431  1.0049
 5433TIP3   OH237789   1.337   2.007  12.130 -0.2860  0.1099  0.3346
 5433TIP3    H137790   1.424   1.984  12.164  0.0837  1.2428  0.1884
 5433TIP3    H237791   1.285   2.024  12.209  0.2872  1.7149  0.4064
 5434TIP3   OH237792   4.543   0.881  11.980  0.0323  0.2183 -0.2813
 5434TIP3    H137793   4.602   0.923  12.043 -0.8392 -1.5586  1.8607
 5434TIP3    H237794   4.546   0.788  12.004 -3.1554 -0.0217 -0.4670
 5435TIP3   OH237795   4.244   6.263  13.572  0.3079 -0.0631 -0.1956
 5435TIP3    H137796   4.194   6.337  13.537  1.2587 -0.3429 -2.3289
 5435TIP3    H237797   4.309   6.303  13.630 -1.3189  0.4320  1.3427
 5436TIP3   OH237798   3.486   4.659   4.233  0.0274 -0.4452  0.1168
 5436TIP3    H137799   3.505   4.753   4.227 -1.1369 -0.2194 -0.4125
 5436TIP3    H237800   3.532   4.630   4.311  0.3986  0.5704  0.2944
 5437TIP3   OH237801   6.251   6.613   3.682 -0.6034  0.1243 -0.5099
 5437TIP3    H137802   6.255   6.592   3.589  2.2561 -1.3894 -0.1717
 5437TIP3    H237803   6.251   6.708   3.685 -1.0341  0.1974 -2.0456
 5438TIP3   OH237804   2.111   5.071   5.282 -0.3929  0.1742  0.0304
 5438TIP3    H137805   2.135   4.988   5.325  0.4452  0.3427 -0.0912
 5438TIP3    H237806   2.022   5.057   5.250 -1.0452  0.0364  1.8064
 5439TIP3   OH237807   6.653   4.744  14.313 -0.4125  0.6037 -0.0440
 5439TIP3    H137808   6.677   4.827  14.272 -0.4342  0.7351  0.2084
 5439TIP3    H237809   6.735   4.695  14.316 -0.3036  0.7973  0.2243
 5440TIP3   OH237810   1.771   3.801   3.420  0.5086 -0.3380  0.4919
 5440TIP3    H137811   1.730   3.767   3.500  0.9211  0.2104  0.9454
 5440TIP3    H237812   1.822   3.727   3.387  0.0787 -0.6681  0.5599
 5441TIP3   OH237813   3.839   5.836   0.896  0.1004 -0.8584 -0.0599
 5441TIP3    H137814   3.895   5.778   0.947  0.7311 -0.6521 -0.5007
 5441TIP3    H237815   3.892   5.915   0.883 -1.4576  0.7021  2.2868
 5442TIP3   OH237816   5.281   4.684   0.299  0.4907 -0.0098  0.2078
 5442TIP3    H137817   5.367   4.643   0.300  0.0377 -1.0417 -0.9090
 5442TIP3    H237818   5.285   4.747   0.227  0.4822  0.3634  0.5261
 5443TIP3   OH237819   3.920   6.365  14.012 -0.4856  0.2662 -0.5884
 5443TIP3    H137820   3.885   6.410  14.089  0.3453 -0.2340  0.0982
 5443TIP3    H237821   3.967   6.434  13.964  1.3493  0.0749  0.7984
 5444TIP3   OH237822   5.739   0.083  13.423 -0.2723 -0.6402  0.0935
 5444TIP3    H137823   5.682   0.049  13.353 -0.6153 -0.7411  0.4179
 5444TIP3    H237824   5.763   0.171  13.394 -1.1129 -0.3509  0.2462
 5445TIP3   OH237825   5.633   0.870   4.175 -0.0861  0.6692  0.4166
 5445TIP3    H137826   5.689   0.800   4.209  0.9372 -0.0251 -2.4345
 5445TIP3    H237827   5.694   0.939   4.150 -0.7243  0.9328 -0.4330
 5446TIP3   OH237828   0.843   1.213   2.370  0.0647 -0.5232  0.2306
 5446TIP3    H137829   0.935   1.212   2.345 -0.4383 -0.5905 -1.7927
 5446TIP3    H237830   0.840   1.163   2.452  1.9732  0.6007  1.0533
 5447TIP3   OH237831   3.986   4.460  15.075 -0.2497  0.6427 -0.3027
 5447TIP3    H137832   4.028   4.531  15.124  0.8765  0.2675 -0.6803
 5447TIP3    H237833   3.984   4.492  14.984  1.0150 -0.1023 -0.6218
 5448TIP3   OH237834   5.434   6.156   3.927  0.0516 -0.0591  0.1350
 5448TIP3    H137835   5.426   6.249   3.905 -1.3993 -0.5556 -1.7235
 5448TIP3    H237836   5.381   6.145   4.005 -0.2665  0.5611  0.0154
 5449TIP3   OH237837   0.623   5.737  11.325 -0.1820  0.7909 -0.0819
 5449TIP3    H137838   0.587   5.705  11.407 -2.1179  0.2464 -1.0734
 5449TIP3    H237839   0.697   5.680  11.306 -0.2603  0.3746  0.8498
 5450TIP3   OH237840   2.003   5.433  13.580 -0.8773  0.3577 -0.5445
 5450TIP3    H137841   1.933   5.393  13.528  0.3009  0.4694 -2.3254
 5450TIP3    H237842   1.987   5.527  13.573 -0.5892  0.3834 -0.9541
 5451TIP3   OH237843   5.407   3.121  14.406  0.3267  0.6324  0.4755
 5451TIP3    H137844   5.360   3.072  14.338  1.9342 -1.5408  0.8304
 5451TIP3    H237845   5.377   3.082  14.489 -0.5046  2.2463  0.9702
 5452TIP3   OH237846   2.712   2.741  13.285 -0.7002 -0.6989 -0.0496
 5452TIP3    H137847   2.665   2.824  13.279  0.7272  0.1130 -0.4199
 5452TIP3    H237848   2.649   2.681  13.326 -1.5288  0.7228  0.8399
 5453TIP3   OH237849   2.109   4.035   6.343 -0.2424  0.2652 -0.3643
 5453TIP3    H137850   2.185   3.976   6.344 -0.2949  0.0665  2.7608
 5453TIP3    H237851   2.035   3.977   6.328 -0.1468 -0.2876  1.1334
 5454TIP3   OH237852   0.374   4.155  14.541  0.3909 -0.0710  0.0820
 5454TIP3    H137853   0.435   4.117  14.478  1.4199  0.6583  0.6073
 5454TIP3    H237854   0.350   4.082  14.598  0.1603 -0.5290 -0.5800
 5455TIP3   OH237855   5.743   2.942  14.519 -0.1027 -0.0863 -0.2138
 5455TIP3    H137856   5.702   2.962  14.603 -0.6729 -1.9805  0.0306
 5455TIP3    H237857   5.828   2.904  14.542  0.1803  0.3398 -0.5457
 5456TIP3   OH237858   2.627   3.526  17.333  0.4021  0.2299 -0.3549
 5456TIP3    H137859   2.548   3.551  17.285 -0.5006 -0.2762  0.8582
 5456TIP3    H237860   2.642   3.435  17.310  1.4817  0.7022 -1.6999
 5457TIP3   OH237861   4.136   6.784   2.857 -0.0376  0.2184 -0.9750
 5457TIP3    H137862   4.152   6.813   2.947  0.4049 -0.4191 -0.8376
 5457TIP3    H237863   4.193   6.840   2.804  1.6193 -1.0508 -0.6151
 5458TIP3   OH237864   5.050   5.036  15.486 -0.2462 -0.5094 -0.2823
 5458TIP3    H137865   5.030   4.991  15.404  0.0720  0.7674 -1.0875
 5458TIP3    H237866   5.138   5.071  15.473  0.0684 -0.8182  0.8633
 5459TIP3   OH237867   4.506   2.719  11.974  0.0009 -0.3464 -0.6663
 5459TIP3    H137868   4.486   2.626  11.986 -1.6517 -0.1395 -1.5306
 5459TIP3    H237869   4.428   2.764  12.006  0.8389  0.7716 -0.1232
 5460TIP3   OH237870   1.175   5.989   5.289  0.1861 -0.2571 -0.0636
 5460TIP3    H137871   1.170   6.023   5.378  1.7786 -1.5869  0.6012
 5460TIP3    H237872   1.109   6.038   5.241 -0.3893  0.8445  1.7265
 5461TIP3   OH237873   5.554   2.691   1.442  0.0108  0.1364 -0.1142
 5461TIP3    H137874   5.559   2.784   1.464 -0.4192 -0.0825  0.9851
 5461TIP3    H237875   5.532   2.648   1.525  0.7562 -1.0058 -0.4779
 5462TIP3   OH237876   1.612   0.852  13.727 -0.0741 -0.0904 -0.0994
 5462TIP3    H137877   1.653   0.923  13.677  0.1758  1.8172  2.5899
 5462TIP3    H237878   1.592   0.785  13.661  0.8723  1.8900 -2.5901
 5463TIP3   OH237879   3.312   6.521   5.794  0.3939  0.0508 -0.1298
 5463TIP3    H137880   3.357   6.598   5.760  1.7522  0.0246  1.5356
 5463TIP3    H237881   3.378   6.474   5.844 -1.1133 -0.7641  1.1803
 5464TIP3   OH237882   6.017   5.003   6.665  0.0668  0.3634 -0.7551
 5464TIP3    H137883   6.044   5.095   6.666 -0.5407  0.5506 -1.0170
 5464TIP3    H237884   6.055   4.965   6.744 -2.0903  1.5451  0.9423
 5465TIP3   OH237885   6.256   3.805   1.104  0.0508 -0.4938 -0.7443
 5465TIP3    H137886   6.167   3.823   1.075  0.0257 -0.8258 -0.8761
 5465TIP3    H237887   6.290   3.741   1.041 -0.2219 -1.7241  0.3113
 5466TIP3   OH237888   3.767   6.765   3.372  0.2890 -0.1664  0.7232
 5466TIP3    H137889   3.836   6.831   3.374 -1.5121  1.9282 -1.2389
 5466TIP3    H237890   3.770   6.729   3.283 -0.8555 -0.3354  0.7364
 5467TIP3   OH237891   1.029   4.012  12.758  0.0004 -0.6005  0.7449
 5467TIP3    H137892   0.987   4.059  12.686 -3.2949 -0.4166  2.5714
 5467TIP3    H237893   1.027   3.920  12.732  0.2609 -0.3995 -0.0077
 5468TIP3   OH237894   5.465   4.470  15.580  0.0177 -0.5445 -0.4502
 5468TIP3    H137895   5.560   4.461  15.570  0.2959 -1.7071  2.2138
 5468TIP3    H237896   5.452   4.563  15.600  0.4720 -0.2183 -1.5820
 5469TIP3   OH237897   5.236   3.631  12.084  0.1504  0.5003  0.0107
 5469TIP3    H137898   5.232   3.584  12.168 -3.7088 -1.4840 -1.0498
 5469TIP3    H237899   5.270   3.567  12.022 -1.8001  0.1487 -0.7826
 5470TIP3   OH237900   2.829   3.059  10.508  0.1682 -0.7118 -0.2413
 5470TIP3    H137901   2.921   3.050  10.484  0.1381 -2.4455  0.1675
 5470TIP3    H237902   2.809   2.979  10.557 -0.8222  0.8383  2.0953
 5471TIP3   OH237903   4.036   4.225  11.502 -0.1324  0.0667  0.5508
 5471TIP3    H137904   3.970   4.260  11.443  0.8258  0.9891  0.0082
 5471TIP3    H237905   4.003   4.247  11.590 -0.8718 -0.0884  0.3220
 5472TIP3   OH237906   0.620   5.375  13.094 -0.1096  0.0954  0.5253
 5472TIP3    H137907   0.628   5.300  13.035 -0.5223  1.3158 -1.1451
 5472TIP3    H237908   0.538   5.358  13.142  0.5337 -1.1959  1.2111
 5473TIP3   OH237909   1.489   3.472  17.319  0.1066 -0.1027  0.0196
 5473TIP3    H137910   1.478   3.490  17.412  1.1772  2.7302 -0.3082
 5473TIP3    H237911   1.581   3.447  17.309  0.3004  0.7661 -0.4197
 5474TIP3   OH237912   0.707   5.820  11.645  0.2528 -0.1691 -0.3854
 5474TIP3    H137913   0.666   5.738  11.619 -0.5632  0.1231 -0.0705
 5474TIP3    H237914   0.737   5.805  11.735  1.4611 -0.6022 -0.8528
 5475TIP3   OH237915   3.657   1.086   5.259 -0.1896 -0.0944 -0.0462
 5475TIP3    H137916   3.637   1.041   5.178 -0.7376  2.8572 -1.7188
 5475TIP3    H237917   3.605   1.166   5.255  1.9011  1.4999  1.8610
 5476TIP3   OH237918   5.417   4.016  12.956  0.1413  0.5167  0.0661
 5476TIP3    H137919   5.442   4.052  13.041  1.7021  1.6210 -0.8008
 5476TIP3    H237920   5.422   4.090  12.897 -0.7668 -0.2684 -1.0233
 5477TIP3   OH237921   3.534   0.838   3.031 -0.0047 -0.0686  0.0906
 5477TIP3    H137922   3.615   0.820   2.984  0.2403 -0.1583  0.5440
 5477TIP3    H237923   3.551   0.809   3.121  0.1853  1.8111  0.7059
 5478TIP3   OH237924   2.343   2.454   3.272  0.3612 -0.0203  0.3934
 5478TIP3    H137925   2.318   2.538   3.310 -1.6645 -0.6307  0.5232
 5478TIP3    H237926   2.283   2.442   3.198  0.0158 -1.7032  0.8889
 5479TIP3   OH237927   2.440   0.336  13.963 -0.1425 -0.1615 -0.1009
 5479TIP3    H137928   2.372   0.279  14.000  0.5543 -1.3602 -0.6104
 5479TIP3    H237929   2.396   0.382  13.892 -0.6963 -0.1088  0.2653
 5480TIP3   OH237930   1.116   4.333  12.048 -0.6385  0.0533  0.4892
 5480TIP3    H137931   1.099   4.290  11.964 -1.0290  0.2253  0.4772
 5480TIP3    H237932   1.161   4.414  12.025  2.1065 -1.3236  0.6347
 5481TIP3   OH237933   0.356   2.222  16.532 -0.1512  0.2216  0.5733
 5481TIP3    H137934   0.371   2.164  16.606  1.6864  1.3355  1.1336
 5481TIP3    H237935   0.275   2.268  16.553  0.7206  1.0564  2.2639
 5482TIP3   OH237936   4.917   4.031  15.462 -0.2173 -0.5048  0.4167
 5482TIP3    H137937   5.008   4.002  15.460 -0.0227  0.0821 -1.9807
 5482TIP3    H237938   4.923   4.127  15.470 -0.4309 -0.1235 -2.7847
 5483TIP3   OH237939   0.805   3.950  15.892  0.3226  0.0915  0.0494
 5483TIP3    H137940   0.722   3.902  15.901  1.4410 -2.0143 -0.2139
 5483TIP3    H237941   0.820   3.990  15.978 -2.3638  3.1021 -0.6693
 5484TIP3   OH237942   0.474   4.991  12.830  0.1077  0.2902  0.0529
 5484TIP3    H137943   0.387   4.956  12.849 -0.1734  0.1464 -1.4087
 5484TIP3    H237944   0.489   4.969  12.738  2.0650 -0.4970  0.5130
 5485TIP3   OH237945   0.006   0.270  14.975 -0.9002  0.3242 -0.0886
 5485TIP3    H137946   0.034   0.322  15.051  2.4978  1.4158 -1.8952
 5485TIP3    H237947   0.030   0.180  14.998 -2.3487  0.1918  1.0998
 5486TIP3   OH237948   2.464   5.296  16.375 -0.1642 -0.2628 -0.1853
 5486TIP3    H137949   2.495   5.378  16.338 -1.1671 -0.3402 -1.2446
 5486TIP3    H237950   2.376   5.284  16.338 -1.0715 -0.5536  1.9178
 5487TIP3   OH237951   3.220   3.292   3.697  0.3341  0.3163 -0.2996
 5487TIP3    H137952   3.125   3.299   3.684 -0.0844  0.8665  2.3958
 5487TIP3    H237953   3.231   3.214   3.750  1.3069  0.7035  0.0865
 5488TIP3   OH237954   3.695   2.687   5.226 -0.4331 -1.3115 -0.3485
 5488TIP3    H137955   3.714   2.622   5.159 -0.4417 -0.5377 -1.1153
 5488TIP3    H237956   3.781   2.721   5.252 -0.5349  1.1465 -2.7761
 5489TIP3   OH237957   4.298   0.075   5.674  0.0339  0.2837  0.7260
 5489TIP3    H137958   4.312   0.141   5.742  0.2818  0.2726  0.6876
 5489TIP3    H237959   4.216   0.101   5.633 -0.0735  0.3397  0.9731
 5490TIP3   OH237960   0.982   1.253   2.010 -0.4289  0.3592 -0.0053
 5490TIP3    H137961   0.987   1.291   1.922 -0.1466 -1.6301 -0.9034
 5490TIP3    H237962   0.895   1.213   2.014 -1.5273  2.6382  1.6610
 5491TIP3   OH237963   4.009   2.538  17.230  0.0384  0.0874 -0.0176
 5491TIP3    H137964   4.063   2.584  17.295  1.4495 -0.1623 -0.9940
 5491TIP3    H237965   3.919   2.561  17.255  0.6243  1.7666  0.7245
 5492TIP3   OH237966   4.083   2.541  15.533 -0.1873  0.1629  0.0858
 5492TIP3    H137967   4.078   2.616  15.593 -1.3219  0.0976  0.1013
 5492TIP3    H237968   4.072   2.580  15.446 -2.0291 -0.0835  0.1726
 5493TIP3   OH237969   5.876   3.651   0.158  0.2281  0.6012 -0.3652
 5493TIP3    H137970   5.857   3.740   0.131 -1.1745  0.3783 -0.1989
 5493TIP3    H237971   5.826   3.596   0.098 -2.1978  0.0718  1.9174
 5494TIP3   OH237972   4.063   4.767  17.083  0.4591  1.1905 -0.4283
 5494TIP3    H137973   4.040   4.698  17.021 -1.8639  1.2263  0.3085
 5494TIP3    H237974   3.983   4.781  17.134  2.4270  0.7528  2.9947
 5495TIP3   OH237975   5.629   0.699  11.698  0.5552  0.1719  0.2023
 5495TIP3    H137976   5.650   0.789  11.671  1.2534  0.7933  2.5840
 5495TIP3    H237977   5.708   0.668  11.741  0.6537 -1.9900 -1.3777
 5496TIP3   OH237978   3.880   6.269  10.922  0.0084  0.1522 -0.0019
 5496TIP3    H137979   3.846   6.184  10.894  1.1425  0.3680 -2.3257
 5496TIP3    H237980   3.829   6.332  10.871  1.9425  0.5937 -1.5162
 5497TIP3   OH237981   5.816   5.247   5.851  0.2103  0.3374  0.6643
 5497TIP3    H137982   5.837   5.157   5.827 -1.1280 -0.2248  1.5132
 5497TIP3    H237983   5.817   5.247   5.947  0.2425  1.2481  0.6720
 5498TIP3   OH237984   3.475   6.185   6.312  0.4685  0.2566 -0.2840
 5498TIP3    H137985   3.547   6.155   6.367  0.9485  0.9180 -0.5422
 5498TIP3    H237986   3.509   6.181   6.223 -0.8188 -2.3475 -0.7679
 5499TIP3   OH237987   2.442   5.244   5.706 -0.2669  0.1454 -0.0392
 5499TIP3    H137988   2.350   5.258   5.728  0.2670  0.7775  1.9734
 5499TIP3    H237989   2.474   5.330   5.683  0.4391  0.4583  1.9345
 5500TIP3   OH237990   4.859   1.052   1.891  0.1449 -0.9325  0.0004
 5500TIP3    H137991   4.815   0.974   1.926 -1.9942  0.1098 -0.1656
 5500TIP3    H237992   4.835   1.122   1.952 -2.0280  0.5218 -2.2872
 5501TIP3   OH237993   0.161   3.471   4.948  0.1296  0.5753 -0.6520
 5501TIP3    H137994   0.208   3.536   4.999 -0.3504 -0.3727  1.0578
 5501TIP3    H237995   0.115   3.417   5.012 -1.7475  0.2633 -2.1599
 5502TIP3   OH237996   5.075   3.551   1.188  0.6201 -0.0096 -0.0003
 5502TIP3    H137997   5.109   3.480   1.133  0.7961  0.6534 -0.7665
 5502TIP3    H237998   5.153   3.596   1.220  0.4940  0.3267 -0.1678
 5503TIP3   OH237999   2.082   0.807   1.385  0.3692  0.5488 -0.3026
 5503TIP3    H138000   2.075   0.755   1.305 -2.0697 -1.4052  1.0343
 5503TIP3    H238001   2.009   0.869   1.379 -1.0787 -0.9026  1.1629
 5504TIP3   OH238002   1.728   5.770  14.256 -0.1348  0.2373  0.1926
 5504TIP3    H138003   1.817   5.781  14.290  0.1899  1.9827 -1.0789
 5504TIP3    H238004   1.697   5.689  14.296  1.0131  0.9791  2.8268
 5505TIP3   OH238005   5.216   1.779  12.995 -0.5462  0.2032  0.3937
 5505TIP3    H138006   5.227   1.874  12.987  1.5782 -0.0769 -0.8202
 5505TIP3    H238007   5.278   1.753  13.063 -1.0530 -0.3469  0.6591
 5506TIP3   OH238008   0.334   3.040  16.808  0.7186 -0.1343 -0.2917
 5506TIP3    H138009   0.324   3.007  16.719  0.4985 -0.4745 -0.1421
 5506TIP3    H238010   0.248   3.027  16.848  0.6978  0.3984 -0.1571
 5507TIP3   OH238011   2.153   0.996  16.765  0.2477 -0.2433 -0.5908
 5507TIP3    H138012   2.143   0.909  16.803  1.9233  0.4016  1.5942
 5507TIP3    H238013   2.076   1.008  16.711 -1.1144 -2.2520  0.7471
 5508TIP3   OH238014   1.577   1.434   1.127  0.2902 -0.8840  0.1371
 5508TIP3    H138015   1.623   1.361   1.168  1.1276 -0.8133 -0.6465
 5508TIP3    H238016   1.540   1.484   1.200 -1.4809 -2.8125  0.6612
 5509TIP3   OH238017   3.253   3.705  12.858  0.0891 -0.0179  0.4243
 5509TIP3    H138018   3.340   3.682  12.824  0.0474  1.2314 -0.6104
 5509TIP3    H238019   3.193   3.683  12.787 -0.2620  0.5412  0.5414
 5510TIP3   OH238020   0.817   1.629   6.197 -0.4317  0.4277  0.4661
 5510TIP3    H138021   0.786   1.703   6.145 -1.9474  0.4894  1.3808
 5510TIP3    H238022   0.836   1.667   6.283  3.5963  0.6608 -0.3155
 5511TIP3   OH238023   4.689   6.164   5.398  0.4712  0.6394  0.1407
 5511TIP3    H138024   4.653   6.076   5.392 -2.5608  1.7660 -0.1455
 5511TIP3    H238025   4.784   6.151   5.404  0.0986 -2.6179  0.8680
 5512TIP3   OH238026   0.516   4.913   2.494 -0.0110  0.5595  0.1781
 5512TIP3    H138027   0.450   4.895   2.560  1.0596  1.2892  1.4909
 5512TIP3    H238028   0.598   4.880   2.532  0.4467 -0.1202 -1.3069
 5513TIP3   OH238029   5.440   0.912   2.440  0.2128 -0.1233 -0.2794
 5513TIP3    H138030   5.476   0.913   2.351  0.5782 -0.5547 -0.1355
 5513TIP3    H238031   5.351   0.945   2.429  0.3295  0.0411 -0.7737
 5514TIP3   OH238032   4.538   5.637   0.570  0.3040 -0.5586 -0.1401
 5514TIP3    H138033   4.478   5.592   0.631 -0.2505 -0.3006 -0.4884
 5514TIP3    H238034   4.539   5.581   0.492  0.3747 -0.4671 -0.2052
 5515TIP3   OH238035   4.435   0.834  16.526  0.1867  0.5545  0.5338
 5515TIP3    H138036   4.448   0.787  16.608 -0.8002 -0.5738  0.0815
 5515TIP3    H238037   4.517   0.822  16.478  0.2699  0.0483  0.7947
 5516TIP3   OH238038   2.889   1.863  17.224 -0.3450  0.5710  0.0655
 5516TIP3    H138039   2.868   1.855  17.317 -0.2041  0.2257  0.0680
 5516TIP3    H238040   2.889   1.774  17.191 -0.3261  0.6863 -0.2522
 5517TIP3   OH238041   4.384   1.221  11.044 -0.1658 -0.0805  0.0024
 5517TIP3    H138042   4.379   1.311  11.013 -0.4415 -0.2082 -0.3412
 5517TIP3    H238043   4.407   1.228  11.136  0.0255  0.3325 -0.0749
 5518TIP3   OH238044   4.305   5.288   1.318 -0.2605  0.5013 -0.1515
 5518TIP3    H138045   4.401   5.285   1.314 -0.0943  0.9492  2.2458
 5518TIP3    H238046   4.278   5.198   1.301  0.7364 -0.1020  1.2432
 5519TIP3   OH238047   0.171   2.645  12.139 -0.4552 -0.2048  0.1484
 5519TIP3    H138048   0.128   2.728  12.160 -1.6728 -0.9511  0.7006
 5519TIP3    H238049   0.100   2.581  12.136  0.4038 -1.1478 -0.7696
 5520TIP3   OH238050   0.802   5.579  12.999 -0.5998  0.0837  0.1820
 5520TIP3    H138051   0.747   5.506  13.028 -2.5324  1.3513 -0.0808
 5520TIP3    H238052   0.838   5.616  13.079 -1.7002  0.3821  0.5586
 5521TIP3   OH238053   4.713   1.400   1.486  0.1712  0.2935  0.2410
 5521TIP3    H138054   4.691   1.449   1.566 -0.6623 -0.1570  0.3044
 5521TIP3    H238055   4.701   1.464   1.415  1.0247  0.7267  0.4774
 5522TIP3   OH238056   4.168   0.780   2.527 -0.4297  0.1701 -0.0834
 5522TIP3    H138057   4.208   0.841   2.589  0.8643 -0.7846  0.0710
 5522TIP3    H238058   4.182   0.822   2.442 -0.3857  0.5322  0.0976
 5523TIP3   OH238059   5.145   0.885   2.325 -0.1271 -0.1354  0.0910
 5523TIP3    H138060   5.081   0.847   2.385 -1.4704 -0.4650 -1.4983
 5523TIP3    H238061   5.137   0.980   2.340 -2.2336 -0.0444 -1.2306
 5524TIP3   OH238062   6.776   0.601   4.011  0.0926  0.2066 -0.7055
 5524TIP3    H138063   6.820   0.622   3.929 -0.7155  0.5101 -1.0699
 5524TIP3    H238064   6.705   0.665   4.017 -0.8706 -0.8405 -0.5913
 5525TIP3   OH238065   5.788   1.895   4.595 -0.5734 -0.1802  0.0657
 5525TIP3    H138066   5.850   1.900   4.668  1.4166 -0.5500 -1.4984
 5525TIP3    H238067   5.771   1.801   4.585  0.1061 -0.2462 -0.6353
 5526TIP3   OH238068   2.192   3.146  10.999  0.0608 -0.0871  0.2548
 5526TIP3    H138069   2.158   3.061  10.973  1.3188 -0.4799 -0.1778
 5526TIP3    H238070   2.263   3.164  10.938  0.6652  0.6777  1.1403
 5527TIP3   OH238071   5.053   6.508  12.086  0.1918  0.3752 -0.1857
 5527TIP3    H138072   5.082   6.458  12.163  1.1022  1.0836 -0.0467
 5527TIP3    H238073   4.999   6.447  12.037 -0.6126 -0.0200  1.1409
 5528TIP3   OH238074   3.430   5.248  12.488  0.3369  0.3753 -0.4802
 5528TIP3    H138075   3.450   5.257  12.395 -1.7697 -0.6987 -1.1090
 5528TIP3    H238076   3.366   5.318  12.505  0.9464  0.7660  0.2515
 5529TIP3   OH238077   2.911   3.757   3.211  0.1002  0.1288  0.2758
 5529TIP3    H138078   2.957   3.760   3.295 -1.9888  0.1348  1.4908
 5529TIP3    H238079   2.871   3.670   3.209  1.2397 -0.4089 -1.4043
 5530TIP3   OH238080   2.193   2.774   0.304  0.0421  0.0069  0.2668
 5530TIP3    H138081   2.152   2.850   0.346  2.7210  0.9206  1.4639
 5530TIP3    H238082   2.220   2.806   0.218  0.8360  0.3178  0.6252
 5531TIP3   OH238083   6.296   4.372  16.692  0.1830  0.5011 -0.1018
 5531TIP3    H138084   6.287   4.452  16.640  0.5153 -0.1264 -1.1511
 5531TIP3    H238085   6.212   4.327  16.681  0.1311  0.5277  0.1851
 5532TIP3   OH238086   4.862   1.296   4.965  0.1234  0.2557  0.3592
 5532TIP3    H138087   4.939   1.288   5.021 -0.4642 -0.6048  1.0711
 5532TIP3    H238088   4.838   1.389   4.970  1.1807  0.5628  0.0067
 5533TIP3   OH238089   3.846   6.060  11.501  0.4017  0.3402  0.5610
 5533TIP3    H138090   3.880   6.131  11.447 -0.9034  0.9532  0.5081
 5533TIP3    H238091   3.795   6.006  11.441  2.8853 -1.7868  0.1804
 5534TIP3   OH238092   5.017   0.356   3.729 -0.0400 -0.1181  0.3457
 5534TIP3    H138093   5.102   0.336   3.689  0.6945  1.5990  0.9246
 5534TIP3    H238094   5.038   0.420   3.798 -1.5642 -1.1015  1.8026
 5535TIP3   OH238095   0.160   6.679  15.347 -0.3299  0.2902  0.8987
 5535TIP3    H138096   0.227   6.652  15.410  0.0236 -0.7047  0.1249
 5535TIP3    H238097   0.108   6.600  15.333 -1.0231  0.7782  0.7005
 5536TIP3   OH238098   3.442   4.337   3.809  0.0776 -0.3034  0.1388
 5536TIP3    H138099   3.366   4.386   3.779  0.4642 -0.6359 -1.4856
 5536TIP3    H238100   3.477   4.388   3.882  0.0377  1.4793 -1.0314
 5537TIP3   OH238101   5.737   0.805  14.174  0.0193  0.7953 -0.6141
 5537TIP3    H138102   5.811   0.786  14.116  0.0238  0.3915 -0.4810
 5537TIP3    H238103   5.702   0.719  14.197 -0.4184  0.9784 -0.5790
 5538TIP3   OH238104   5.515   6.225  15.250  0.0099  0.1562  0.3536
 5538TIP3    H138105   5.538   6.246  15.160 -0.2925 -2.2487 -0.3667
 5538TIP3    H238106   5.598   6.206  15.293  0.2421  2.2488  0.8900
 5539TIP3   OH238107   5.024   1.732   5.904  0.5389 -0.3087 -0.4201
 5539TIP3    H138108   5.100   1.787   5.922 -0.9147  1.0235  2.2784
 5539TIP3    H238109   4.975   1.778   5.837 -0.0467  1.1828  0.9627
 5540TIP3   OH238110   5.886   1.667  15.409  0.2460  0.3346  0.6548
 5540TIP3    H138111   5.828   1.592  15.397 -0.6396  1.1229 -0.1819
 5540TIP3    H238112   5.967   1.643  15.364  0.0408 -0.1894  0.5596
 5541TIP3   OH238113   0.835   2.429   4.647  0.2600 -0.3069 -0.5150
 5541TIP3    H138114   0.867   2.498   4.590 -0.2178  0.7313  0.4366
 5541TIP3    H238115   0.830   2.352   4.590  1.5642  0.2167 -1.3993
 5542TIP3   OH238116   4.311   3.307  13.915 -0.5585 -0.1662  0.0015
 5542TIP3    H138117   4.220   3.293  13.889 -1.0616 -0.7447  1.9296
 5542TIP3    H238118   4.315   3.400  13.939 -0.7502 -0.2289  0.2840
 5543TIP3   OH238119   4.387   2.769  12.330 -0.0911  0.3257  0.1953
 5543TIP3    H138120   4.356   2.830  12.263 -1.3591 -2.2759 -1.7870
 5543TIP3    H238121   4.482   2.770  12.320 -0.2631 -0.5864 -2.3357
 5544TIP3   OH238122   4.106   5.937  16.455 -0.0477  0.1270  0.0176
 5544TIP3    H138123   4.096   5.989  16.375 -0.8472  0.3433  0.2458
 5544TIP3    H238124   4.017   5.924  16.487  0.1727 -0.9784  0.2384
 5545TIP3   OH238125   6.649   0.617  17.273  0.5440 -0.4948 -0.1892
 5545TIP3    H138126   6.709   0.660  17.334  0.8747 -1.1590 -0.0411
 5545TIP3    H238127   6.697   0.614  17.190 -0.3056  1.3808 -0.8109
 5546TIP3   OH238128   5.923   3.872  14.342 -0.0516 -0.1265 -0.4077
 5546TIP3    H138129   6.015   3.849  14.331  1.1262  3.1615  0.9404
 5546TIP3    H238130   5.900   3.919  14.262  0.1299  0.7366  0.0229
 5547TIP3   OH238131   4.671   6.053  15.736  0.3973 -0.7020 -0.2446
 5547TIP3    H138132   4.766   6.048  15.725  0.5251 -1.2778  0.9392
 5547TIP3    H238133   4.657   6.134  15.784  0.1129  0.2326 -1.8157
 5548TIP3   OH238134   6.802   1.911  13.494  0.0280  0.0601  0.8694
 5548TIP3    H138135   6.750   1.982  13.532  0.0677 -0.7210  2.4562
 5548TIP3    H238136   6.808   1.845  13.564  1.5552 -0.6936  0.0791
 5549TIP3   OH238137   4.332   2.268  11.263  0.2747 -0.4707  0.1792
 5549TIP3    H138138   4.353   2.180  11.231 -0.0480 -0.6008  0.3105
 5549TIP3    H238139   4.352   2.326  11.190  3.0164 -0.3351  0.9493
 5550TIP3   OH238140   0.964   3.174  16.543  0.1480 -0.5544  0.3719
 5550TIP3    H138141   1.008   3.186  16.459  1.3185  1.3840  1.2034
 5550TIP3    H238142   0.976   3.081  16.563  2.1977 -0.4939 -0.3442
 5551TIP3   OH238143   3.983   3.913  11.255 -0.4112 -0.5344  0.1859
 5551TIP3    H138144   4.048   3.948  11.317 -0.3775  0.2499 -0.2723
 5551TIP3    H238145   4.021   3.831  11.224 -0.3359 -0.8344  1.0439
 5552TIP3   OH238146   6.191   2.988   1.553 -0.3695  0.1795 -0.1905
 5552TIP3    H138147   6.122   2.928   1.524  0.0638  0.0344 -0.9441
 5552TIP3    H238148   6.271   2.952   1.515 -0.0451  0.9985 -0.3043
 5553TIP3   OH238149   4.393   6.525   4.405 -0.3786 -0.0506 -0.2140
 5553TIP3    H138150   4.482   6.492   4.417 -0.5359 -0.4421 -0.1134
 5553TIP3    H238151   4.405   6.616   4.377  0.0865 -0.5241 -1.6431
 5554TIP3   OH238152   5.299   4.333  17.061  0.3489 -0.8458  0.4049
 5554TIP3    H138153   5.214   4.292  17.046  0.3892 -0.6313 -0.4418
 5554TIP3    H238154   5.298   4.412  17.006  1.6655 -1.6216 -0.8079
 5555TIP3   OH238155   2.420   2.277  10.853  0.1491  0.0895  0.6000
 5555TIP3    H138156   2.459   2.364  10.860  0.6809  0.0889 -1.6563
 5555TIP3    H238157   2.335   2.285  10.897  0.4875  1.5241  1.0483
 5556TIP3   OH238158   6.784   3.984   4.594  0.2234 -0.5861 -0.8957
 5556TIP3    H138159   6.704   3.980   4.647 -0.2511 -0.4007 -1.5892
 5556TIP3    H238160   6.754   3.999   4.505  1.0680  0.3948 -1.0448
 5557TIP3   OH238161   6.671   4.402  11.602 -0.2642  0.2181 -0.0826
 5557TIP3    H138162   6.724   4.344  11.547 -0.5057 -2.3779  2.2145
 5557TIP3    H238163   6.734   4.457  11.647  0.0068  1.4158 -1.8152
 5558TIP3   OH238164   2.016   5.529   5.102  0.3795 -0.2787  0.2671
 5558TIP3    H138165   2.025   5.434   5.108 -0.3725 -0.5142 -1.5359
 5558TIP3    H238166   2.099   5.559   5.066 -0.1957 -0.5763 -1.4115
 5559TIP3   OH238167   0.488   5.907   1.671 -0.1267  0.0401  0.2379
 5559TIP3    H138168   0.407   5.901   1.620  0.2475 -0.4977 -0.2993
 5559TIP3    H238169   0.475   5.983   1.727 -1.0418 -0.0849  0.2141
 5560TIP3   OH238170   6.504   6.369  13.241 -0.4811 -0.2065  0.5832
 5560TIP3    H138171   6.443   6.408  13.304 -1.5594  0.5745 -0.8661
 5560TIP3    H238172   6.462   6.288  13.214  0.5538 -1.1510  1.7174
 5561TIP3   OH238173   0.281   6.696  15.835  0.2007  0.3094 -0.1637
 5561TIP3    H138174   0.361   6.676  15.884  0.0120 -1.3949 -0.4995
 5561TIP3    H238175   0.215   6.637  15.872 -0.9544  1.7356  0.1606
 5562TIP3   OH238176   4.565   5.475  10.825  0.1378  0.4158 -0.7074
 5562TIP3    H138177   4.606   5.434  10.749 -0.9618  0.6669 -1.4772
 5562TIP3    H238178   4.542   5.563  10.795 -0.2370  0.5516 -0.0528
 5563TIP3   OH238179   1.639   6.295   3.541 -0.3254 -0.0098  0.4218
 5563TIP3    H138180   1.723   6.340   3.547  0.0723 -0.9329  2.3159
 5563TIP3    H238181   1.596   6.311   3.624 -0.8124 -1.8357  0.5810
 5564TIP3   OH238182   5.213   3.696  17.358 -0.0744 -0.1694  0.1322
 5564TIP3    H138183   5.305   3.683  17.382 -0.4072 -0.1703  1.4603
 5564TIP3    H238184   5.179   3.608  17.342 -0.0622 -0.2466  0.5127
 5565TIP3   OH238185   0.923   5.641  15.069 -0.7704 -0.2027  0.1818
 5565TIP3    H138186   0.957   5.640  15.158  0.2470 -3.2754 -0.1290
 5565TIP3    H238187   0.979   5.703  15.023 -1.3282  1.4482  1.6348
 5566TIP3   OH238188   3.431   0.712  12.952 -0.0584 -0.1566  0.2545
 5566TIP3    H138189   3.384   0.686  13.031  0.1521 -1.1882  0.0637
 5566TIP3    H238190   3.363   0.740  12.891 -0.1310  2.2697  1.3223
 5567TIP3   OH238191   2.525   3.074  14.590  0.0281  0.0919 -0.0082
 5567TIP3    H138192   2.598   3.013  14.598 -1.0853 -1.2605  0.1812
 5567TIP3    H238193   2.475   3.063  14.671 -0.4389  0.9224 -0.1708
 5568TIP3   OH238194   2.464   1.856   2.398 -0.0600  0.3198 -0.1897
 5568TIP3    H138195   2.471   1.775   2.449 -1.8547  0.3932  0.2410
 5568TIP3    H238196   2.427   1.828   2.314 -1.4925  0.7408  0.2588
 5569TIP3   OH238197   4.909   5.101  11.004  0.2159  0.0889  0.4695
 5569TIP3    H138198   4.876   5.187  10.978 -0.3703 -0.3901 -0.4335
 5569TIP3    H238199   4.924   5.108  11.098 -1.2401  0.7201  0.6813
 5570TIP3   OH238200   1.269   5.556  16.693 -0.0310 -0.2900 -0.4213
 5570TIP3    H138201   1.207   5.625  16.713  1.6561  0.8990  1.0396
 5570TIP3    H238202   1.293   5.571  16.601  1.1590  1.8769  0.1642
 5571TIP3   OH238203   4.593   5.269   5.139 -0.8538 -0.2973  0.1967
 5571TIP3    H138204   4.602   5.297   5.048  0.8538 -1.6435 -0.0983
 5571TIP3    H238205   4.574   5.176   5.134 -4.4151  0.2510  1.1993
 5572TIP3   OH238206   5.665   3.469   4.558 -0.7338  0.1385 -0.1374
 5572TIP3    H138207   5.643   3.400   4.495 -0.1129 -0.9239  0.7891
 5572TIP3    H238208   5.754   3.496   4.535 -0.4342 -0.3842  0.3909
 5573TIP3   OH238209   4.669   4.881  13.940  0.7522  0.2517 -0.7236
 5573TIP3    H138210   4.725   4.897  14.016  0.7282 -1.1376 -0.3876
 5573TIP3    H238211   4.715   4.924  13.868  2.2513 -0.7733 -0.4376
 5574TIP3   OH238212   4.277   5.140   5.645 -0.1418 -0.1711  0.0070
 5574TIP3    H138213   4.308   5.142   5.735  0.3843 -0.7406 -0.1556
 5574TIP3    H238214   4.337   5.198   5.597 -1.5707  1.6963  0.3474
 5575TIP3   OH238215   0.030   4.531  11.809  0.1313  0.2581  0.5222
 5575TIP3    H138216  -0.043   4.543  11.870 -0.5130  0.0381 -0.1941
 5575TIP3    H238217   0.053   4.620  11.782  0.4049  0.3566  1.0476
 5576TIP3   OH238218   3.715   5.530  11.359  0.6271  0.3966  0.1782
 5576TIP3    H138219   3.798   5.578  11.352  1.2392 -0.7858 -1.5886
 5576TIP3    H238220   3.698   5.501  11.269 -1.1322 -0.3534  0.7256
 5577TIP3   OH238221   4.727   6.768  14.559  0.5698 -0.1946  0.6138
 5577TIP3    H138222   4.733   6.851  14.605  0.8474 -0.6990  1.5262
 5577TIP3    H238223   4.653   6.723  14.600  0.4119 -0.3902  0.1209
 5578TIP3   OH238224   1.649   4.642  15.242 -0.1521  0.0955  0.0381
 5578TIP3    H138225   1.702   4.711  15.280  1.3776 -1.4440  0.8714
 5578TIP3    H238226   1.570   4.686  15.210  1.7802  2.5913 -1.6824
 5579TIP3   OH238227   0.073   0.984   4.861  0.1999 -0.3780 -0.0921
 5579TIP3    H138228   0.139   0.915   4.858 -0.4160 -1.1172  2.0236
 5579TIP3    H238229   0.013   0.958   4.930 -1.6135  0.9339 -1.0704
 5580TIP3   OH238230   1.267   4.454   1.821 -0.0734 -0.4790 -0.0715
 5580TIP3    H138231   1.216   4.451   1.740  0.3443 -1.0778 -0.3213
 5580TIP3    H238232   1.220   4.516   1.877  0.3399  0.9326 -1.2414
 5581TIP3   OH238233   4.275   2.291   5.105  0.1864 -0.5416 -0.3073
 5581TIP3    H138234   4.241   2.251   5.185 -0.4070  1.1248  0.3131
 5581TIP3    H238235   4.264   2.385   5.118  0.7916 -0.1850 -2.0392
 5582TIP3   OH238236   2.224   6.346   2.670  0.5884  0.1968 -0.3711
 5582TIP3    H138237   2.137   6.320   2.640  1.3017  0.0864 -2.4463
 5582TIP3    H238238   2.282   6.276   2.640  1.4847  0.4931  0.5996
 5583TIP3   OH238239   5.836   0.089  15.445  0.3201  0.1099  0.0991
 5583TIP3    H138240   5.743   0.112  15.450  0.5048  0.7525  0.7361
 5583TIP3    H238241   5.870   0.144  15.374  0.3894  0.5012  0.4341
 5584TIP3   OH238242   3.244   6.223   2.392  0.1095  0.1411 -0.1200
 5584TIP3    H138243   3.325   6.190   2.352  0.7953 -0.2593  1.5193
 5584TIP3    H238244   3.233   6.310   2.354  0.8408 -0.1291 -1.0010
 5585TIP3   OH238245   1.827   3.996   0.519 -0.4367 -0.0649 -0.5439
 5585TIP3    H138246   1.824   4.055   0.595  0.3535  0.8779 -1.2072
 5585TIP3    H238247   1.787   4.047   0.448  0.2945 -0.3122 -1.1434
 5586TIP3   OH238248   5.818   0.002  17.215 -0.6550 -0.5759  0.2132
 5586TIP3    H138249   5.909   0.029  17.222 -0.6355 -0.6410  0.2083
 5586TIP3    H238250   5.783   0.054  17.143 -0.4539 -1.0076 -0.2011
 5587TIP3   OH238251   0.950   5.633  12.491  0.0015  0.0414  0.3351
 5587TIP3    H138252   0.945   5.727  12.471 -0.6526 -0.2759 -1.0700
 5587TIP3    H238253   0.905   5.624  12.575  0.9429  1.1191  0.9780
 5588TIP3   OH238254   1.937   4.625   5.078 -0.1143 -0.0241 -0.1613
 5588TIP3    H138255   1.942   4.542   5.126  0.6520  0.7125  1.0702
 5588TIP3    H238256   2.027   4.641   5.048  0.0855  1.1082  0.9486
 5589TIP3   OH238257   4.606   6.388  14.580 -0.1511  0.9107 -0.2021
 5589TIP3    H138258   4.605   6.455  14.512 -1.0539 -0.1717 -1.3166
 5589TIP3    H238259   4.514   6.364  14.592  0.1710 -0.3971 -0.1399
 5590TIP3   OH238260   4.678   1.557   0.633 -0.1202  0.1186 -0.4951
 5590TIP3    H138261   4.767   1.563   0.600  0.8797 -3.5128  1.1151
 5590TIP3    H238262   4.655   1.464   0.627 -3.5923  0.8027 -0.2320
 5591TIP3   OH238263   2.810   6.617   2.936 -0.0912  0.3806 -0.5348
 5591TIP3    H138264   2.782   6.573   3.017 -0.0749  1.5966  0.1482
 5591TIP3    H238265   2.882   6.563   2.903 -0.1659 -0.1897  0.2054
 5592TIP3   OH238266   6.045   6.639  12.042 -0.8914  0.3133  0.4123
 5592TIP3    H138267   6.035   6.634  12.137 -0.7249  1.3092  0.4978
 5592TIP3    H238268   5.968   6.594  12.008 -0.8460 -0.2331  1.0173
 5593TIP3   OH238269   1.764   4.093   3.741  0.4787  0.2244  0.0545
 5593TIP3    H138270   1.769   4.189   3.739  0.1548  0.2316 -0.8647
 5593TIP3    H238271   1.750   4.072   3.833  2.8164  0.9311  0.6456
 5594TIP3   OH238272   2.593   4.870   3.869 -0.1641  0.0943 -0.2084
 5594TIP3    H138273   2.498   4.875   3.858 -0.4792 -3.2825 -0.1531
 5594TIP3    H238274   2.606   4.875   3.964 -0.1164  1.6822 -0.2695
 5595TIP3   OH238275   1.096   5.621   5.940 -0.2656  0.0037 -0.3469
 5595TIP3    H138276   1.115   5.650   5.851 -0.8149  2.4496  0.2566
 5595TIP3    H238277   1.149   5.678   5.996  1.8180 -2.9499  0.9126
 5596TIP3   OH238278   0.817   2.045  14.565 -0.1686 -0.0834  0.0338
 5596TIP3    H138279   0.744   2.089  14.523 -0.8809 -1.8685 -0.6406
 5596TIP3    H238280   0.779   1.967  14.606  1.6037 -2.2431 -2.1512
 5597TIP3   OH238281   4.425   4.259   4.511  0.4221 -0.1127  0.3640
 5597TIP3    H138282   4.370   4.334   4.488  0.4222  0.3539  1.7972
 5597TIP3    H238283   4.368   4.203   4.564  0.1787 -1.5581 -1.3226
 5598TIP3   OH238284   0.415   3.287   3.073 -0.2261 -0.2306  0.5864
 5598TIP3    H138285   0.343   3.248   3.123 -0.7812 -0.6621 -0.5039
 5598TIP3    H238286   0.439   3.366   3.122 -1.0056 -0.4298  1.3098
 5599TIP3   OH238287   4.998   2.966  11.500  0.0243  0.3828 -0.2481
 5599TIP3    H138288   4.935   2.961  11.428  0.6288  0.8743 -0.8207
 5599TIP3    H238289   5.013   3.060  11.512 -1.0850  0.3960  1.4328
 5600TIP3   OH238290   4.141   3.136   3.915 -0.6651  0.9520 -0.2828
 5600TIP3    H138291   4.099   3.222   3.920 -2.8021 -0.0471 -0.3339
 5600TIP3    H238292   4.181   3.124   4.002 -1.3341  1.5080  0.1085
 5601TIP3   OH238293   5.914   2.898   2.865 -0.1139  0.5893 -0.2271
 5601TIP3    H138294   5.963   2.965   2.818 -1.1645  1.9556  0.5733
 5601TIP3    H238295   5.825   2.932   2.870 -0.1564  0.2552  2.2831
 5602TIP3   OH238296   2.364   5.441  16.775 -0.0584  0.1244 -0.0389
 5602TIP3    H138297   2.346   5.361  16.725  0.0731  0.7104 -1.0575
 5602TIP3    H238298   2.452   5.466  16.748  0.6472 -0.3772  1.6777
 5603TIP3   OH238299   2.654   3.949  13.400  0.5307 -0.2446  0.2320
 5603TIP3    H138300   2.635   3.938  13.493 -0.0080 -0.8273  0.0626
 5603TIP3    H238301   2.681   3.862  13.371  0.2432 -0.1712 -0.2557
 5604TIP3   OH238302   2.818   1.958   6.350 -0.3078 -0.3152  0.1425
 5604TIP3    H138303   2.814   1.998   6.436 -2.1662  1.8556 -0.8494
 5604TIP3    H238304   2.905   1.918   6.346  0.9716  2.0837  1.9336
 5605TIP3   OH238305   3.043   2.021  17.083  0.4171  0.5649 -0.2346
 5605TIP3    H138306   2.984   2.025  17.007 -0.9569  0.5423  0.7951
 5605TIP3    H238307   2.990   1.980  17.151  0.5915  3.2974  1.6750
 5606TIP3   OH238308   2.515   0.019   2.064 -0.4253  0.1123  0.2597
 5606TIP3    H138309   2.546  -0.022   2.144 -0.3367  1.1549  0.7837
 5606TIP3    H238310   2.571  -0.016   1.995 -0.0147 -0.2273  0.7621
 5607TIP3   OH238311   5.972   0.457  12.844 -0.7295 -0.3363 -0.4318
 5607TIP3    H138312   6.013   0.377  12.811 -0.6222  0.2606 -1.8287
 5607TIP3    H238313   6.011   0.527  12.792 -1.2244  0.5743  0.3918
 5608TIP3   OH238314   1.217   5.565  12.877 -0.9708 -0.2007 -0.3194
 5608TIP3    H138315   1.279   5.509  12.924  0.4967  0.3019 -1.5724
 5608TIP3    H238316   1.152   5.590  12.943 -0.4791 -1.6512  0.7663
 5609TIP3   OH238317   2.471   6.196   2.632  0.6580 -0.0979  0.3411
 5609TIP3    H138318   2.485   6.153   2.547  0.7124  0.2239  0.1854
 5609TIP3    H238319   2.544   6.164   2.686  0.5537 -0.4007  0.3063
 5610TIP3   OH238320   0.336   6.597  15.590  0.3992  0.2902 -0.1087
 5610TIP3    H138321   0.370   6.536  15.655  2.1453 -0.1517 -1.3427
 5610TIP3    H238322   0.284   6.660  15.640  1.7203  0.0184  1.7067
 5611TIP3   OH238323   0.158   2.337   4.221 -0.2344 -0.4077  0.2115
 5611TIP3    H138324   0.066   2.352   4.240  0.1400 -0.1289  1.9350
 5611TIP3    H238325   0.197   2.425   4.218  0.0108 -0.5282 -0.3863
 5612TIP3   OH238326   5.396   4.416  14.774  0.1230 -0.2077  0.1752
 5612TIP3    H138327   5.391   4.494  14.718 -0.3064 -0.5723 -0.3046
 5612TIP3    H238328   5.470   4.434  14.833 -0.0374  0.6034  0.1427
 5613TIP3   OH238329   4.376   3.148  16.883  0.3446  0.0135 -0.0614
 5613TIP3    H138330   4.292   3.137  16.838  0.3483 -1.7012  0.2790
 5613TIP3    H238331   4.401   3.059  16.908  1.2001  0.7324  1.7997
 5614TIP3   OH238332   0.350   2.432   0.492 -0.0068  0.3270 -0.4023
 5614TIP3    H138333   0.314   2.493   0.427  1.8037 -1.2983 -3.1506
 5614TIP3    H238334   0.421   2.481   0.534 -0.3797  1.0075 -0.5503
 5615TIP3   OH238335   1.329   0.843  16.698 -0.4472 -0.0357  0.5308
 5615TIP3    H138336   1.387   0.883  16.633 -0.3962  2.8248  2.1981
 5615TIP3    H238337   1.242   0.877  16.677 -0.2860  1.7348  2.4305
 5616TIP3   OH238338   0.476   5.228   4.299 -0.0608 -0.3891  0.2666
 5616TIP3    H138339   0.462   5.234   4.393  0.0529  1.9551  0.1806
 5616TIP3    H238340   0.518   5.310   4.275 -1.3107 -0.3338 -2.0593
 5617TIP3   OH238341   1.716   1.057   0.410  0.7269 -0.1538 -0.3652
 5617TIP3    H138342   1.670   1.137   0.387  1.2237  0.4567  0.6893
 5617TIP3    H238343   1.652   0.987   0.396  0.7564  0.2126 -2.7942
 5618TIP3   OH238344   4.075   4.012  13.935 -0.2754  0.0182 -0.3454
 5618TIP3    H138345   4.166   3.991  13.914 -0.3749 -1.1065  0.2893
 5618TIP3    H238346   4.055   4.087  13.879  1.4653  1.1970  0.5188
 5619TIP3   OH238347   3.676   6.272   5.431 -0.4225 -0.6605  0.6959
 5619TIP3    H138348   3.623   6.265   5.351  0.0693 -1.1132  0.4063
 5619TIP3    H238349   3.766   6.259   5.401  0.1376  2.2555  0.8355
 5620TIP3   OH238350   5.494   1.609   3.781 -0.2893  0.1198 -0.2652
 5620TIP3    H138351   5.432   1.675   3.749  0.1526  0.3301 -0.7049
 5620TIP3    H238352   5.464   1.527   3.743 -1.5885 -0.1772  1.2894
 5621TIP3   OH238353   2.434   0.823   5.484  0.8686 -0.0203 -0.2319
 5621TIP3    H138354   2.517   0.870   5.482  0.9901 -0.2567 -0.8610
 5621TIP3    H238355   2.435   0.777   5.568  1.6419 -0.4826 -0.4773
 5622TIP3   OH238356   1.940   3.082  13.537  0.5831  0.3944 -0.0699
 5622TIP3    H138357   1.913   3.009  13.592  0.7608  0.6864  0.4081
 5622TIP3    H238358   1.872   3.148  13.551  0.2409  0.1985 -0.7620
 5623TIP3   OH238359   3.275   5.568   4.180 -0.5217  0.3268  0.3291
 5623TIP3    H138360   3.221   5.647   4.176 -0.3108  0.4793  0.4676
 5623TIP3    H238361   3.247   5.524   4.260  0.2729  0.9293  0.9526
 5624TIP3   OH238362   4.733   4.015  16.094  0.1507 -0.3079 -0.1023
 5624TIP3    H138363   4.747   4.099  16.052 -2.9853 -0.6219 -2.1616
 5624TIP3    H238364   4.686   3.963  16.029  1.3394 -3.4665  1.3229
 5625TIP3   OH238365   0.388   5.881  14.758 -0.6271 -0.1563  0.2158
 5625TIP3    H138366   0.293   5.892  14.763 -0.6229  0.3607 -0.6330
 5625TIP3    H238367   0.401   5.808  14.698 -0.4810  0.1530 -0.1360
 5626TIP3   OH238368   3.447   4.903   2.689  0.4099 -0.2818  0.5244
 5626TIP3    H138369   3.407   4.829   2.644  1.0348 -0.9265  1.0148
 5626TIP3    H238370   3.373   4.957   2.717 -0.0818 -1.0273  0.6847
 5627TIP3   OH238371   3.209   4.061   3.585 -0.1146  0.3907 -0.1917
 5627TIP3    H138372   3.297   4.086   3.616 -0.1112  1.2020 -0.8140
 5627TIP3    H238373   3.177   4.139   3.539 -0.1278 -0.7284 -2.1842
 5628TIP3   OH238374   4.050   4.473   0.062  0.0644  0.3101  0.0534
 5628TIP3    H138375   4.137   4.512   0.050 -0.9923  2.1230 -2.6401
 5628TIP3    H238376   4.050   4.396   0.004  0.0265 -0.0266  0.4905
 5629TIP3   OH238377   3.001   1.924  16.428 -0.1712  0.2361 -0.5223
 5629TIP3    H138378   2.917   1.961  16.453  0.0771  0.5889 -0.1899
 5629TIP3    H238379   3.048   1.996  16.386 -0.4948 -0.2940 -1.8270
 5630TIP3   OH238380   1.772   0.262   2.381 -0.1179 -0.0068 -0.3031
 5630TIP3    H138381   1.795   0.264   2.289 -1.0519 -0.6634 -0.5736
 5630TIP3    H238382   1.849   0.226   2.425  0.5677  0.9106 -0.7352
 5631TIP3   OH238383   6.337   3.698   6.884 -0.5829  0.0991 -0.0645
 5631TIP3    H138384   6.331   3.629   6.950  1.5053  0.7853  0.9472
 5631TIP3    H238385   6.429   3.696   6.856 -0.5481  2.2086 -0.2663
 5632TIP3   OH238386   6.707   3.251  11.517  0.0332  0.1101  0.4123
 5632TIP3    H138387   6.690   3.206  11.600 -0.1850 -0.1306  0.2400
 5632TIP3    H238388   6.620   3.267  11.481  0.1512 -1.6186 -0.7398
 5633TIP3   OH238389   6.517   0.172  16.423 -0.1307  0.0778 -0.3771
 5633TIP3    H138390   6.551   0.156  16.511  1.1790 -2.1628 -1.1947
 5633TIP3    H238391   6.557   0.255  16.397 -1.7092  1.5510  1.6175
 5634TIP3   OH238392   4.550   4.661  12.790  0.0757  0.2044  0.1445
 5634TIP3    H138393   4.616   4.591  12.798  0.9251  0.8561 -0.8969
 5634TIP3    H238394   4.466   4.615  12.790  0.5284 -0.6838  1.0958
 5635TIP3   OH238395   2.269   3.834  11.729  0.3061  0.0409 -0.0405
 5635TIP3    H138396   2.245   3.882  11.650 -0.5027  0.3808  0.3941
 5635TIP3    H238397   2.296   3.903  11.791  2.2245 -0.3014 -0.4147
 5636TIP3   OH238398   4.123   5.654  17.320  0.4064  0.0033  0.0636
 5636TIP3    H138399   4.155   5.582  17.374 -1.3546 -0.3079  0.7673
 5636TIP3    H238400   4.122   5.729  17.379 -1.7197 -0.3836  0.6140
 5637TIP3   OH238401   3.742   6.513   4.464 -1.0463  0.5596 -1.0666
 5637TIP3    H138402   3.751   6.418   4.453  0.4991  0.4520  0.6799
 5637TIP3    H238403   3.648   6.527   4.475 -1.1645 -0.9747  0.2602
 5638TIP3   OH238404   5.848   1.389  16.955  0.1761  0.1598  0.2724
 5638TIP3    H138405   5.776   1.362  17.011  0.2208 -3.1988 -1.0443
 5638TIP3    H238406   5.808   1.399  16.868  0.6732  2.0785  0.2220
 5639TIP3   OH238407   0.392   5.183  14.725  0.1905  0.1598  0.2088
 5639TIP3    H138408   0.305   5.170  14.688  0.0530 -1.6024  1.0233
 5639TIP3    H238409   0.383   5.160  14.818  1.1208  1.7900  0.7515
 5640TIP3   OH238410   4.604   2.622  10.788 -0.2631 -0.2280 -0.3923
 5640TIP3    H138411   4.664   2.697  10.789 -1.6940  0.9834  1.2608
 5640TIP3    H238412   4.532   2.649  10.731 -0.6810 -0.4340  0.0341
 5641TIP3   OH238413   3.676   3.218   4.787  0.4003 -0.1098  0.2775
 5641TIP3    H138414   3.601   3.273   4.807 -0.1873 -1.3534  1.7150
 5641TIP3    H238415   3.751   3.265   4.823  0.4208  1.3083 -1.4741
 5642TIP3   OH238416   0.145   6.421  15.452  0.1696  0.8036  0.2348
 5642TIP3    H138417   0.062   6.418  15.500 -0.2718  0.4243 -0.5301
 5642TIP3    H238418   0.199   6.355  15.494  0.0381  0.9571  0.6549
 5643TIP3   OH238419   5.980   4.842   2.814  0.2023 -0.1741 -0.6015
 5643TIP3    H138420   5.895   4.876   2.842  0.0285  0.1795 -1.5297
 5643TIP3    H238421   5.961   4.752   2.785  0.5228 -0.8289  1.1054
 5644TIP3   OH238422   1.343   4.015   2.485 -0.1134  0.4268 -0.2527
 5644TIP3    H138423   1.300   4.086   2.439  0.2641  0.2356 -0.9133
 5644TIP3    H238424   1.294   4.005   2.567 -0.3412  1.2499 -0.2864
 5645TIP3   OH238425   3.192   0.741   2.421 -0.3099  0.0504 -0.4315
 5645TIP3    H138426   3.126   0.672   2.414 -0.8729  0.5596 -0.2639
 5645TIP3    H238427   3.273   0.701   2.388 -0.8866 -0.3168 -1.4296
 5646TIP3   OH238428   3.753   2.037   1.526  0.5514 -0.0390 -0.3174
 5646TIP3    H138429   3.803   2.104   1.573  1.2319  1.3012 -2.7584
 5646TIP3    H238430   3.699   2.086   1.464 -0.6117 -1.6708 -0.6717
 5647TIP3   OH238431   1.003   1.201  16.078  0.6444 -0.1523  0.6817
 5647TIP3    H138432   1.001   1.121  16.131 -2.0845  0.4850  1.6666
 5647TIP3    H238433   0.968   1.174  15.993 -1.0135  0.0855  1.2517
 5648TIP3   OH238434   1.937   3.461  13.589  0.7339  0.2230 -0.3404
 5648TIP3    H138435   1.907   3.533  13.644  0.9483  0.7492 -0.9060
 5648TIP3    H238436   1.958   3.391  13.651 -0.6498  0.1989  0.1399
 5649TIP3   OH238437   6.711   1.489   4.580 -0.7665 -0.8321 -0.0256
 5649TIP3    H138438   6.762   1.430   4.635 -0.6415  0.8336  1.7633
 5649TIP3    H238439   6.765   1.501   4.502  1.9794  1.1704  1.9560
 5650TIP3   OH238440   5.991   4.590   0.201 -0.7364  0.3961 -0.2874
 5650TIP3    H138441   6.081   4.601   0.232 -0.5783  0.5471 -0.7909
 5650TIP3    H238442   5.947   4.673   0.224 -1.0758 -0.1210  1.0206
 5651TIP3   OH238443   6.304   6.015  14.169 -0.5680 -0.1095  0.1321
 5651TIP3    H138444   6.362   6.018  14.092  0.2856  3.8560  0.7026
 5651TIP3    H238445   6.221   6.049  14.137  0.2901  3.2918  1.1283
 5652TIP3   OH238446   3.525   1.687  16.333 -0.2695 -0.5446  0.0874
 5652TIP3    H138447   3.458   1.755  16.333 -0.7492 -0.9753 -1.5439
 5652TIP3    H238448   3.608   1.734  16.328 -0.4675 -0.0369  1.2476
 5653TIP3   OH238449   0.395   4.746  14.939 -0.2208  0.1905 -0.1597
 5653TIP3    H138450   0.476   4.703  14.914 -0.1572 -2.8162  4.1840
 5653TIP3    H238451   0.330   4.713  14.877  1.1938 -0.1129 -1.5362
 5654TIP3   OH238452   2.204   0.759   2.017  0.5764 -0.2945  0.3314
 5654TIP3    H138453   2.145   0.754   2.092  1.0389 -0.2194  0.7081
 5654TIP3    H238454   2.161   0.709   1.948 -0.3695  0.5529  0.2908
 5655TIP3   OH238455   5.698   3.898   0.739 -0.0338 -0.4295  0.3843
 5655TIP3    H138456   5.771   3.941   0.695  1.4466 -1.9729  1.2422
 5655TIP3    H238457   5.693   3.941   0.825  1.1114 -1.5419  1.0411
 5656TIP3   OH238458   4.273   6.478   3.521 -0.6236 -0.4756  0.0698
 5656TIP3    H138459   4.266   6.480   3.617 -0.5638 -3.3482  0.2141
 5656TIP3    H238460   4.367   6.472   3.505 -0.5449  1.1432 -0.2818
 5657TIP3   OH238461   0.647   2.632   1.900 -0.3862 -0.2460  0.4837
 5657TIP3    H138462   0.566   2.683   1.906 -1.0554 -1.1684 -0.4926
 5657TIP3    H238463   0.621   2.543   1.924  0.3241 -0.5721  0.0666
 5658TIP3   OH238464   4.020   6.086  15.174 -0.0481 -0.2621 -0.2430
 5658TIP3    H138465   3.991   6.000  15.204  1.5247 -0.2141  1.6908
 5658TIP3    H238466   3.946   6.121  15.125 -1.5384 -1.8527  0.7466
 5659TIP3   OH238467   0.352   5.758  10.856 -0.7380 -0.0756  0.2243
 5659TIP3    H138468   0.427   5.702  10.837 -0.6321  0.1597 -0.0532
 5659TIP3    H238469   0.340   5.751  10.951 -0.1768  0.1294  0.3121
 5660TIP3   OH238470   3.854   0.626  12.450 -0.1995 -0.0083  0.4518
 5660TIP3    H138471   3.880   0.538  12.477 -0.9319 -0.8798 -1.5102
 5660TIP3    H238472   3.884   0.682  12.521  1.4674 -1.6698  1.1507
 5661TIP3   OH238473   3.885   3.993   6.358 -0.2015 -0.0314  0.5485
 5661TIP3    H138474   3.899   4.027   6.269  1.7879 -1.4230  0.2627
 5661TIP3    H238475   3.867   4.071   6.410 -0.4053  0.9365 -0.8836
 5662TIP3   OH238476   6.176   0.474   2.926  0.4858  0.4566 -0.3779
 5662TIP3    H138477   6.125   0.551   2.950 -1.1032 -0.8497  0.6813
 5662TIP3    H238478   6.110   0.409   2.900  1.7397 -0.7296 -0.7220
 5663TIP3   OH238479   5.992   0.443   1.017 -0.2401 -0.4387 -0.3498
 5663TIP3    H138480   6.034   0.365   0.980 -0.6648 -0.8684  0.0643
 5663TIP3    H238481   5.914   0.456   0.962 -1.2895 -1.5256  0.8210
 5664TIP3   OH238482   2.097   1.105  12.588 -0.5442 -0.0135 -0.2381
 5664TIP3    H138483   2.074   1.198  12.582 -0.2638  0.1087  0.5395
 5664TIP3    H238484   2.190   1.102  12.567 -0.1029  0.1282  1.5797
 5665TIP3   OH238485   5.060   3.591   3.775 -0.2346  0.3767  0.3945
 5665TIP3    H138486   5.061   3.624   3.865 -0.1718 -0.5298  0.7381
 5665TIP3    H238487   5.068   3.496   3.784  0.0974  0.2963 -0.5845
 5666TIP3   OH238488   2.622   5.654   2.051  0.3836 -0.8315  0.3327
 5666TIP3    H138489   2.586   5.566   2.050  1.4244 -1.3330  1.9018
 5666TIP3    H238490   2.717   5.640   2.049  0.5563  0.3231 -0.7534
 5667TIP3   OH238491   5.580   3.926   0.135  0.0073  0.4454 -0.4229
 5667TIP3    H138492   5.640   3.859   0.169  0.3167  1.6293  1.5242
 5667TIP3    H238493   5.638   3.995   0.102 -0.3045 -0.2702 -2.6158
 5668TIP3   OH238494   2.409   3.651  11.496  0.1038  1.0737 -0.1208
 5668TIP3    H138495   2.422   3.744  11.519  2.4321  0.7055  0.2503
 5668TIP3    H238496   2.481   3.630  11.437  1.5938 -1.2789  2.2971
 5669TIP3   OH238497   4.798   0.333   5.618 -0.1834 -0.5691 -0.1864
 5669TIP3    H138498   4.752   0.267   5.566  0.3945 -0.9926 -0.1702
 5669TIP3    H238499   4.738   0.407   5.621 -0.1318 -0.4493 -1.6675
 5670TIP3   OH238500   5.999   5.580  11.328 -0.1257  0.3174 -0.0071
 5670TIP3    H138501   6.014   5.665  11.370  1.2034 -0.2431  0.6993
 5670TIP3    H238502   6.056   5.519  11.375  0.6196 -0.5452 -1.9191
 5671TIP3   OH238503   4.000   4.621   0.909 -0.3324 -0.1667 -0.5917
 5671TIP3    H138504   4.009   4.677   0.831 -3.0831 -1.4479 -1.9933
 5671TIP3    H238505   3.967   4.538   0.875  0.3463 -1.4906  1.7797
 5672TIP3   OH238506   6.376   1.621   2.924 -0.4648  0.1691  0.2679
 5672TIP3    H138507   6.451   1.562   2.928 -0.0569  0.5817 -0.8855
 5672TIP3    H238508   6.415   1.709   2.919 -1.0073  0.3687 -0.6292
 5673TIP3   OH238509   6.236   6.290   2.750  0.1551 -0.2120  0.5380
 5673TIP3    H138510   6.319   6.260   2.788  0.1956 -2.9555 -1.4608
 5673TIP3    H238511   6.262   6.344   2.675  0.0312  2.7495  2.4237
 5674TIP3   OH238512   4.487   2.441   4.697  0.0065 -0.1149  0.0974
 5674TIP3    H138513   4.571   2.427   4.741 -0.5814  1.2831  1.7897
 5674TIP3    H238514   4.510   2.474   4.610  1.2094  0.5716  0.6583
 5675TIP3   OH238515   2.606   6.304   2.217 -0.0237 -0.3632  0.3647
 5675TIP3    H138516   2.585   6.375   2.278 -0.4997 -0.1246 -0.0635
 5675TIP3    H238517   2.701   6.297   2.221  0.2489  1.6256 -1.0028
 5676TIP3   OH238518   3.174   6.419  16.995  0.0000  0.6584 -0.1665
 5676TIP3    H138519   3.222   6.428  17.077 -0.6470 -1.3544  0.5014
 5676TIP3    H238520   3.083   6.437  17.019 -0.4341 -1.4478 -0.0259
 5677TIP3   OH238521   2.260   5.310   1.119 -0.4049 -0.0745 -0.2742
 5677TIP3    H138522   2.305   5.365   1.184  1.5951  0.6870 -2.1813
 5677TIP3    H238523   2.167   5.330   1.132  0.0742  1.6861  0.9327
 5678TIP3   OH238524   2.121   1.619  10.778  0.3527 -0.1374 -0.2535
 5678TIP3    H138525   2.154   1.532  10.759  0.3030 -0.5780  1.5116
 5678TIP3    H238526   2.178   1.678  10.728  0.4020 -1.1407 -1.4411
 5679TIP3   OH238527   6.587   4.694   0.476 -0.1653 -0.1988 -0.1393
 5679TIP3    H138528   6.543   4.681   0.391  0.7366 -0.1251 -0.6336
 5679TIP3    H238529   6.617   4.785   0.473 -0.8828  0.0767  0.6337
 5680TIP3   OH238530   3.801   1.492  15.971 -0.6136  0.4301 -0.0442
 5680TIP3    H138531   3.708   1.515  15.974 -0.8636 -0.2322 -1.8313
 5680TIP3    H238532   3.804   1.401  16.000 -0.4623  0.5632  0.3679
 5681TIP3   OH238533   1.261   3.788   1.756 -0.3423 -0.2076 -0.3332
 5681TIP3    H138534   1.266   3.703   1.710  2.4654 -0.1944 -0.2202
 5681TIP3    H238535   1.211   3.769   1.835  0.5317 -1.8924 -0.1248
 5682TIP3   OH238536   3.201   2.195   1.246  0.0600 -0.5199 -0.0739
 5682TIP3    H138537   3.219   2.184   1.152  0.3224 -0.6589 -0.0106
 5682TIP3    H238538   3.256   2.129   1.288 -0.1368 -0.5285  0.1721
 5683TIP3   OH238539   4.755   5.941   1.057  0.7041  0.2320  0.3447
 5683TIP3    H138540   4.752   6.036   1.043 -1.7237  0.0812 -0.7397
 5683TIP3    H238541   4.723   5.929   1.146  0.1571  0.4140  0.1793
 5684TIP3   OH238542   0.388   4.372   1.710  0.8421  0.7052  0.7856
 5684TIP3    H138543   0.420   4.454   1.747  3.0893 -0.2627  1.1879
 5684TIP3    H238544   0.421   4.305   1.770  0.5014 -0.5946 -0.4293
 5685TIP3   OH238545   4.336   0.426  13.479 -0.3000  0.2774  0.0306
 5685TIP3    H138546   4.297   0.467  13.556 -1.3220  0.0356 -0.3423
 5685TIP3    H238547   4.275   0.447  13.408  1.1739  1.4371 -0.9477
 5686TIP3   OH238548   4.278   4.767   5.835 -0.2408 -0.5588 -0.3874
 5686TIP3    H138549   4.312   4.846   5.877 -0.2474 -0.8234  0.1237
 5686TIP3    H238550   4.206   4.739   5.891  1.3546 -2.3450  0.8737
 5687TIP3   OH238551   5.820   1.036  17.232 -0.6091 -0.1729  0.3531
 5687TIP3    H138552   5.736   0.996  17.207 -0.9908 -0.0058  1.3123
 5687TIP3    H238553   5.815   1.044  17.327  0.0249  0.9060  0.3128
 5688TIP3   OH238554   3.077   2.972  10.512  0.1606 -0.5969  0.2399
 5688TIP3    H138555   3.171   2.960  10.495  0.6461  0.3431  1.9729
 5688TIP3    H238556   3.052   2.896  10.565 -0.2439 -1.1829 -0.7609
 5689TIP3   OH238557   3.629   2.100  12.539  0.1215 -0.1222  0.4773
 5689TIP3    H138558   3.549   2.126  12.493  1.0392  0.3311 -0.9211
 5689TIP3    H238559   3.640   2.168  12.605  0.2963  0.8318 -0.4960
 5690TIP3   OH238560   3.329   3.306   1.425 -0.0277  0.6979  0.0647
 5690TIP3    H138561   3.335   3.222   1.471 -0.9530  0.1183 -0.8405
 5690TIP3    H238562   3.420   3.335   1.415  0.7157 -2.0778 -2.9666
 5691TIP3   OH238563   2.342   1.049   3.140 -0.0777  0.2833  0.2307
 5691TIP3    H138564   2.262   1.072   3.092  0.2878  2.2925  0.5080
 5691TIP3    H238565   2.359   0.959   3.114 -0.7302  0.7874 -2.2876
 5692TIP3   OH238566   1.222   0.340   1.365  0.6080  0.1091 -0.2625
 5692TIP3    H138567   1.199   0.260   1.413  0.8500 -1.2768 -2.3241
 5692TIP3    H238568   1.290   0.313   1.304  2.6902  2.5389  0.7891
 5693TIP3   OH238569   5.988   6.533  12.657 -0.3436  0.1304 -0.0646
 5693TIP3    H138570   5.956   6.444  12.648 -2.0221  0.7705 -0.6680
 5693TIP3    H238571   5.975   6.554  12.750 -1.0341  0.1441 -0.1633
 5694TIP3   OH238572   0.252   2.967   3.468  0.2099 -0.6101  0.9579
 5694TIP3    H138573   0.166   2.926   3.461  0.4980 -1.5299  2.4079
 5694TIP3    H238574   0.312   2.904   3.428  0.1452  0.4293 -0.8862
 5695TIP3   OH238575   1.289   5.799  17.044  0.4836 -0.0908 -0.2487
 5695TIP3    H138576   1.379   5.766  17.037  0.6518  0.3672 -0.2821
 5695TIP3    H238577   1.283   5.867  16.977 -0.4157 -1.2466 -1.3872
 5696TIP3   OH238578   3.547   4.766   0.019 -0.3919 -0.5707  0.3826
 5696TIP3    H138579   3.462   4.725   0.001 -0.4752  0.0616 -0.7426
 5696TIP3    H238580   3.567   4.815  -0.060  0.9093 -0.4875  0.7471
 5697TIP3   OH238581   1.005   0.178   5.093 -0.3440  0.1138  0.2787
 5697TIP3    H138582   0.992   0.136   5.008  0.9492  0.2905 -0.0260
 5697TIP3    H238583   0.950   0.127   5.153  1.5638 -2.4839  0.0376
 5698TIP3   OH238584   4.778   1.891   3.776 -0.2921 -0.7314 -0.4688
 5698TIP3    H138585   4.704   1.932   3.732 -0.7135 -1.2086 -0.2159
 5698TIP3    H238586   4.758   1.898   3.869 -0.0112 -0.8462 -0.3983
 5699TIP3   OH238587   2.663   1.435  15.899 -0.2746 -0.2050 -0.3646
 5699TIP3    H138588   2.616   1.404  15.822 -1.2500 -0.7686  0.4407
 5699TIP3    H238589   2.614   1.511  15.929 -0.7571 -0.8367  0.5168
 5700TIP3   OH238590   4.104   2.014  11.410  0.1047  0.0176 -0.1622
 5700TIP3    H138591   4.017   1.985  11.436  0.7813 -1.6231  0.4408
 5700TIP3    H238592   4.118   1.973  11.324  0.7762 -0.8547  0.3458
 5701TIP3   OH238593   1.422   2.329   2.759 -0.0152 -0.7465  0.3065
 5701TIP3    H138594   1.433   2.416   2.797  2.2198 -0.1883 -1.4000
 5701TIP3    H238595   1.424   2.270   2.834  1.4710  0.4894  1.3125
 5702TIP3   OH238596   0.532   2.110  17.044  0.0651  0.1231 -0.3035
 5702TIP3    H138597   0.616   2.066  17.036 -0.3632 -0.8652  0.4214
 5702TIP3    H238598   0.552   2.204  17.037  1.1537 -0.1233 -0.5591
 5703TIP3   OH238599   5.176   1.704   4.254  0.2320 -0.5711  0.4854
 5703TIP3    H138600   5.262   1.724   4.291  1.1192 -2.0123 -0.6950
 5703TIP3    H238601   5.147   1.626   4.300  0.6602 -1.4832 -0.7442
 5704TIP3   OH238602   2.259   4.755   3.497 -0.3981  0.3193  0.2105
 5704TIP3    H138603   2.303   4.702   3.564 -0.1514  1.2309  0.7890
 5704TIP3    H238604   2.180   4.706   3.476  0.3789 -0.8550 -0.1125
 5705TIP3   OH238605   6.137   2.190   5.056  0.2752  0.6809  0.5334
 5705TIP3    H138606   6.230   2.212   5.053 -0.1360  2.5097 -1.2475
 5705TIP3    H238607   6.118   2.179   5.149  1.8020  2.6114  1.1538
 5706TIP3   OH238608   2.470   4.448   3.269  0.2645  0.5534 -0.3130
 5706TIP3    H138609   2.378   4.472   3.254  0.1655 -0.2094 -0.9895
 5706TIP3    H238610   2.465   4.371   3.325  0.5090  0.7477 -0.0236
 5707TIP3   OH238611   3.875   0.738  17.158 -0.1672  0.5218 -0.1010
 5707TIP3    H138612   3.879   0.740  17.063  0.5593 -0.9408 -0.1288
 5707TIP3    H238613   3.867   0.830  17.184  0.2382  0.9849 -1.5353
 5708TIP3   OH238614   5.991   2.813   1.574 -0.3659 -0.4148  0.6447
 5708TIP3    H138615   5.922   2.855   1.624 -0.9815  0.0048 -0.5134
 5708TIP3    H238616   5.960   2.724   1.560 -0.9290 -0.0757 -0.3205
 5709TIP3   OH238617   1.841   4.762   5.609 -0.1754 -0.0617 -0.0074
 5709TIP3    H138618   1.861   4.785   5.700  1.7443  1.3477 -0.7303
 5709TIP3    H238619   1.868   4.838   5.558 -0.6655 -1.0447 -1.8326
 5710TIP3   OH238620   1.862   0.817  13.272  0.6769 -0.3733  0.0452
 5710TIP3    H138621   1.896   0.787  13.188  0.0311 -0.2216 -0.2798
 5710TIP3    H238622   1.857   0.912  13.264  3.0456 -0.0869  1.1981
 5711TIP3   OH238623   3.644   3.453  14.815  0.0857  0.4418  0.0082
 5711TIP3    H138624   3.717   3.395  14.796 -2.3299 -3.1932  0.7701
 5711TIP3    H238625   3.600   3.465  14.731  1.1039  2.1838 -0.3446
 5712TIP3   OH238626   6.301   2.187  12.987  0.0471 -0.3850  0.0129
 5712TIP3    H138627   6.265   2.272  13.014  1.0432  0.4226 -1.1059
 5712TIP3    H238628   6.224   2.137  12.960 -0.7687 -0.5579  2.4167
 5713TIP3   OH238629   6.274   2.840  14.199  0.5481  0.3256 -0.1381
 5713TIP3    H138630   6.199   2.897  14.212  0.5059  0.2571 -0.0793
 5713TIP3    H238631   6.252   2.789  14.121  0.1850 -0.2506  0.3322
 5714TIP3   OH238632   2.089   2.161  11.809  0.5435 -0.4283  0.4415
 5714TIP3    H138633   2.048   2.118  11.884  0.4243 -0.3562  0.4175
 5714TIP3    H238634   2.021   2.217  11.773  1.3942  1.7370  1.9807
 5715TIP3   OH238635   1.998   4.028  13.587  0.0318  0.2706  0.2690
 5715TIP3    H138636   1.935   4.006  13.517  0.3421  1.6600 -0.4865
 5715TIP3    H238637   2.079   3.986  13.560 -0.6390 -1.9758  1.5140
 5716TIP3   OH238638   4.226   1.775   3.153 -0.2064  0.3688  0.0015
 5716TIP3    H138639   4.321   1.783   3.148 -0.1312  0.1911  0.9719
 5716TIP3    H238640   4.197   1.854   3.199 -0.6063  0.7778 -0.9295
 5717TIP3   OH238641   3.966   1.420   0.632  0.0675  0.4738 -0.5486
 5717TIP3    H138642   3.882   1.467   0.635 -0.4332 -0.4412  0.9150
 5717TIP3    H238643   4.019   1.462   0.700 -0.0463 -0.4206  0.1107
 5718TIP3   OH238644   3.117   4.730  16.175  0.3580 -0.1995 -0.2131
 5718TIP3    H138645   3.061   4.672  16.227  0.8556  0.7081  1.4119
 5718TIP3    H238646   3.060   4.804  16.153  1.1108  1.3364  2.5067
 5719TIP3   OH238647   1.542   2.866   2.908 -0.5897 -0.7242  0.2899
 5719TIP3    H138648   1.541   2.836   2.999 -0.0021 -0.9346  0.2351
 5719TIP3    H238649   1.451   2.887   2.888 -0.5843  0.2306  1.2161
 5720TIP3   OH238650   6.587   2.544   2.249  0.4829  0.8998 -0.2987
 5720TIP3    H138651   6.598   2.484   2.323  1.0907 -0.0163 -1.1156
 5720TIP3    H238652   6.675   2.576   2.229  0.4641  0.4115 -1.2157
 5721TIP3   OH238653   4.678   4.501  16.846  0.1856  0.3409  0.1697
 5721TIP3    H138654   4.679   4.431  16.781 -1.0010  1.2404 -0.8788
 5721TIP3    H238655   4.752   4.558  16.823 -0.1019  0.5389 -0.2795
 5722TIP3   OH238656   3.776   4.792   1.052  0.3187  0.4774 -0.0353
 5722TIP3    H138657   3.834   4.738   0.998 -0.1375  0.8300 -0.9055
 5722TIP3    H238658   3.691   4.747   1.048  0.3343  0.3778  0.6014
 5723TIP3   OH238659   0.267   4.807  16.200 -0.2384  0.2481 -0.1856
 5723TIP3    H138660   0.172   4.812  16.212 -0.2635  1.0662 -0.6844
 5723TIP3    H238661   0.302   4.875  16.257  0.1339 -0.6866  0.7523
 5724TIP3   OH238662   1.909   3.696   2.827  0.2026 -0.2198  0.1374
 5724TIP3    H138663   1.963   3.668   2.753  0.5776  0.8111  0.0042
 5724TIP3    H238664   1.930   3.789   2.838 -1.2301  0.0995  0.3534
 5725TIP3   OH238665   3.438   2.813  14.073 -0.0894  0.1520 -0.4304
 5725TIP3    H138666   3.363   2.813  14.132 -0.1613  0.0665 -0.5210
 5725TIP3    H238667   3.438   2.900  14.034  0.1913  0.3472 -0.0126
 5726TIP3   OH238668   5.086   3.221  11.581 -0.4719 -0.2807  0.3418
 5726TIP3    H138669   5.062   3.259  11.666  1.5871  1.3982  0.2323
 5726TIP3    H238670   5.177   3.193  11.591 -0.2125 -0.1338 -1.2900
 5727TIP3   OH238671   1.662   2.790   0.719  0.2890 -0.2545  0.6662
 5727TIP3    H138672   1.608   2.738   0.779  1.0009 -1.6816  0.1032
 5727TIP3    H238673   1.652   2.747   0.634  0.5827  0.7886  0.0850
 5728TIP3   OH238674   5.384   2.626   0.679  0.0730  0.6868  0.4078
 5728TIP3    H138675   5.305   2.646   0.730 -1.3125  1.5227 -1.8957
 5728TIP3    H238676   5.432   2.562   0.732 -1.9490  0.4582  2.0740
 5729TIP3   OH238677   0.849   5.215  15.876  0.0116  0.4540  0.0369
 5729TIP3    H138678   0.866   5.218  15.782  1.9810  1.1356  0.3706
 5729TIP3    H238679   0.776   5.154  15.885 -0.3757  0.5588 -1.9390
 5730TIP3   OH238680   4.350   2.080  13.518 -0.4092  0.1318 -0.4537
 5730TIP3    H138681   4.428   2.131  13.537 -0.1269 -0.2210 -0.6569
 5730TIP3    H238682   4.383   1.995  13.491 -0.8930 -0.8374  1.7795
 5731TIP3   OH238683   2.723   3.267  14.320 -0.2623 -1.1231  0.0342
 5731TIP3    H138684   2.810   3.305  14.334 -0.4061 -0.0562 -1.7646
 5731TIP3    H238685   2.740   3.173  14.309  0.0516 -1.9378  4.9450
 5732TIP3   OH238686   0.749   6.394   1.530  0.1862  0.5454  0.2595
 5732TIP3    H138687   0.702   6.332   1.587 -0.6982  1.5513  0.6582
 5732TIP3    H238688   0.681   6.431   1.474  0.6238  1.5310  0.3702
 5733TIP3   OH238689   2.867   3.767  11.201  0.1188  0.1967  0.0487
 5733TIP3    H138690   2.924   3.840  11.178  1.7992 -0.9392  0.4362
 5733TIP3    H238691   2.805   3.761  11.129  1.7780  0.2118 -1.4486
 5734TIP3   OH238692   0.311   5.614   4.920  0.4728  0.3025 -0.7662
 5734TIP3    H138693   0.335   5.626   5.012  1.1633  0.0464 -0.9076
 5734TIP3    H238694   0.387   5.645   4.871  0.4475 -0.3349 -1.2257
 5735TIP3   OH238695   0.020   5.229  13.375 -0.1183 -0.6998 -0.1383
 5735TIP3    H138696  -0.041   5.239  13.448 -1.4747 -0.5439 -1.2579
 5735TIP3    H238697  -0.013   5.154  13.326  3.1941 -3.6288  1.6488
 5736TIP3   OH238698   0.483   5.707  12.289 -0.1016  0.0448  0.3801
 5736TIP3    H138699   0.421   5.764  12.335  1.0053 -0.6157  2.9255
 5736TIP3    H238700   0.458   5.618  12.316  2.4849 -0.2004  2.4927
 5737TIP3   OH238701   4.278   4.367  16.826  0.2957 -0.1524  0.0613
 5737TIP3    H138702   4.225   4.334  16.753 -1.9459 -0.3369  1.6756
 5737TIP3    H238703   4.318   4.289  16.864  0.2633 -0.2264 -0.0545
 5738TIP3   OH238704   1.693   2.142   5.178  0.8059  0.0299 -0.1717
 5738TIP3    H138705   1.729   2.146   5.266  0.6748 -1.2623 -0.0427
 5738TIP3    H238706   1.601   2.118   5.191  1.4370 -3.0970 -0.7224
 5739TIP3   OH238707   1.470   3.205  14.325  0.0587 -0.4760  0.6695
 5739TIP3    H138708   1.454   3.116  14.356 -1.1668 -0.1633  0.9834
 5739TIP3    H238709   1.522   3.246  14.394  0.1643 -0.7893  0.7754
 5740TIP3   OH238710   1.052   5.490   0.521 -0.0905 -0.0021  0.4171
 5740TIP3    H138711   1.005   5.521   0.444 -2.6350  0.6993  2.0932
 5740TIP3    H238712   1.119   5.556   0.537 -0.0297  0.2315 -0.7324
 5741TIP3   OH238713   5.083   5.561  11.764  0.1837 -0.4279 -0.1434
 5741TIP3    H138714   5.077   5.648  11.803 -0.7218 -0.8651  0.7450
 5741TIP3    H238715   5.003   5.553  11.712  0.4664 -0.5791 -0.5583
 5742TIP3   OH238716   2.713   5.530   0.216  0.6303  0.2786 -0.2350
 5742TIP3    H138717   2.693   5.533   0.123 -3.0309 -2.8327  0.2437
 5742TIP3    H238718   2.760   5.448   0.229 -1.7476 -1.0069  0.9421
 5743TIP3   OH238719   6.515   5.072  16.572  0.0780 -0.0675 -0.0078
 5743TIP3    H138720   6.462   5.059  16.651 -1.5810  0.3084 -1.0037
 5743TIP3    H238721   6.527   4.985  16.536 -0.0643 -0.1329  0.1042
 5744TIP3   OH238722   0.855   6.674  14.349  0.3673  0.5310  0.4132
 5744TIP3    H138723   0.881   6.672  14.441  1.1924  0.8604  0.1972
 5744TIP3    H238724   0.775   6.726  14.348 -0.6094 -0.8731  1.1520
 5745TIP3   OH238725   5.168   3.883   3.961 -0.2299  0.0546 -0.0963
 5745TIP3    H138726   5.257   3.885   3.926  0.1349 -0.9576  0.7165
 5745TIP3    H238727   5.162   3.798   4.005 -1.1434  0.6873  1.0439
 5746TIP3   OH238728   6.617   4.198  15.718 -0.2476 -0.8102 -0.3303
 5746TIP3    H138729   6.625   4.270  15.655  3.1413  1.2738  2.0699
 5746TIP3    H238730   6.532   4.212  15.760  0.9913  3.3103  1.3805
 5747TIP3   OH238731   5.737   2.545  15.449  0.2110 -0.3303 -0.0175
 5747TIP3    H138732   5.752   2.531  15.542 -0.6141  0.3147  0.2272
 5747TIP3    H238733   5.698   2.632  15.444 -0.0574 -0.4923 -0.9393
 5748TIP3   OH238734   1.062   5.040  15.844 -0.1624  0.0106 -0.0256
 5748TIP3    H138735   1.014   5.119  15.869 -1.1633 -0.6150  0.1019
 5748TIP3    H238736   1.100   5.008  15.926  2.1816  1.5652 -0.4210
 5749TIP3   OH238737   4.314   0.543   2.461 -0.2862 -0.0252 -0.0012
 5749TIP3    H138738   4.300   0.492   2.541  1.6169  1.3371  1.2957
 5749TIP3    H238739   4.263   0.623   2.474 -0.0238  0.1718 -0.1803
 5750TIP3   OH238740   3.327   1.378  11.871 -0.3482  0.0072 -0.1184
 5750TIP3    H138741   3.251   1.413  11.825 -0.7838 -0.4394  0.2478
 5750TIP3    H238742   3.402   1.410  11.822 -0.7381  1.2906  0.0856
 5751TIP3   OH238743   2.964   3.710  14.888  0.2442  0.1415 -0.4023
 5751TIP3    H138744   2.969   3.622  14.852 -0.8071  0.4347 -1.3462
 5751TIP3    H238745   2.898   3.754  14.834 -0.3925  1.0342  1.0286
 5752TIP3   OH238746   3.169   3.655  13.748  0.4303  0.1754  0.0393
 5752TIP3    H138747   3.129   3.686  13.829 -1.8285 -1.0976 -0.5044
 5752TIP3    H238748   3.181   3.735  13.696 -2.1795  0.6243 -0.0387
 5753TIP3   OH238749   3.495   2.783   2.828  0.1186 -0.5628  0.4842
 5753TIP3    H138750   3.581   2.762   2.792  0.2246 -1.4153  1.1901
 5753TIP3    H238751   3.491   2.878   2.829  0.7879 -0.5232 -0.1673
 5754TIP3   OH238752   6.113   6.126  12.595  0.4939  0.0730 -0.0596
 5754TIP3    H138753   6.076   6.157  12.513 -2.1276 -1.8644  0.2701
 5754TIP3    H238754   6.123   6.032  12.583  1.3045 -0.0598  1.4090
 5755TIP3   OH238755   1.409   3.505   5.318 -0.4006  0.4107 -0.4541
 5755TIP3    H138756   1.353   3.582   5.330 -0.9756  0.0582 -0.7802
 5755TIP3    H238757   1.353   3.431   5.341 -0.1804  0.0265 -1.1229
 5756TIP3   OH238758   2.651   4.730  14.261 -0.0279 -0.2059 -0.5597
 5756TIP3    H138759   2.703   4.666  14.310 -0.0533  2.1019  2.8752
 5756TIP3    H238760   2.715   4.792  14.228 -0.2638  0.3927  0.0753
 5757TIP3   OH238761   0.656   0.505  12.768  0.2978 -0.0694 -0.2572
 5757TIP3    H138762   0.586   0.493  12.832 -0.4989  1.8405 -0.6977
 5757TIP3    H238763   0.612   0.538  12.689  1.5064 -0.3810 -1.0996
 5758TIP3   OH238764   2.733   5.348  16.602  0.0464  0.0425 -0.3108
 5758TIP3    H138765   2.827   5.345  16.621 -0.5409  0.3437  3.4097
 5758TIP3    H238766   2.725   5.313  16.513  3.5789 -0.7962 -0.4342
 5759TIP3   OH238767   0.369   4.122   3.730 -0.0442  0.3774  0.5855
 5759TIP3    H138768   0.358   4.118   3.825  1.1385  0.3754  0.7371
 5759TIP3    H238769   0.282   4.104   3.694 -0.2793 -0.6326  1.6508
 5760TIP3   OH238770   4.878   5.546  12.481 -0.3958  0.8563  0.1728
 5760TIP3    H138771   4.931   5.517  12.407 -0.1397  0.6380  0.4412
 5760TIP3    H238772   4.827   5.468  12.505 -1.1137  1.1592 -0.3131
 5761TIP3   OH238773   2.299   1.628  13.764 -0.3472  0.1503 -0.1460
 5761TIP3    H138774   2.307   1.565  13.693 -3.0356 -2.7964  1.9130
 5761TIP3    H238775   2.264   1.707  13.722 -0.2994 -0.9019 -2.2985
 5762TIP3   OH238776   3.655   4.907   6.723 -0.8278  0.4660 -0.0061
 5762TIP3    H138777   3.672   4.894   6.629 -2.9272  0.5601 -0.4411
 5762TIP3    H238778   3.621   4.823   6.753 -0.0746  0.4048  0.7334
 5763TIP3   OH238779   3.893   1.522   1.568 -0.1659  0.5617 -0.3038
 5763TIP3    H138780   3.944   1.590   1.524 -1.7609  1.5635 -0.7088
 5763TIP3    H238781   3.857   1.469   1.496 -0.8268  0.7333 -0.1072
 5764TIP3   OH238782   1.752   2.694  14.290  0.3470  0.4804  0.5661
 5764TIP3    H138783   1.758   2.624  14.355  0.1129  0.5718  0.6867
 5764TIP3    H238784   1.688   2.662  14.227  1.1022  0.0705 -0.0211
 5765TIP3   OH238785   3.066   2.193  15.108  0.7041 -0.2618 -0.0471
 5765TIP3    H138786   3.010   2.129  15.151 -0.4983  0.4611 -0.4892
 5765TIP3    H238787   3.089   2.154  15.024  2.2420 -1.2553  0.8006
 5766TIP3   OH238788   0.703   5.493   3.653 -0.0005  0.0574  0.1480
 5766TIP3    H138789   0.632   5.435   3.679  0.3685 -0.6412 -0.3784
 5766TIP3    H238790   0.735   5.530   3.736 -1.5831  1.1268  0.3114
 5767TIP3   OH238791   2.778   2.139   6.608  0.3356  0.0665 -0.2584
 5767TIP3    H138792   2.818   2.052   6.619  1.3930  0.4070 -1.2044
 5767TIP3    H238793   2.713   2.144   6.678 -0.4724 -1.8974 -0.7847
 5768TIP3   OH238794   1.611   3.346  17.036  0.3267  0.1300  0.0063
 5768TIP3    H138795   1.601   3.259  16.998  0.7957  0.1506 -0.1723
 5768TIP3    H238796   1.688   3.339  17.093 -1.0950 -0.2523  1.9796
 5769TIP3   OH238797   2.941   1.157  14.994  0.0150  0.5432  0.3213
 5769TIP3    H138798   2.963   1.166  14.902  1.6315 -0.5668  0.5523
 5769TIP3    H238799   2.895   1.074  15.000 -1.0046  1.1026  0.3814
 5770TIP3   OH238800   3.338   2.000   3.774 -0.7594 -0.6301 -0.2034
 5770TIP3    H138801   3.326   1.980   3.867  0.5616 -3.7242 -0.5766
 5770TIP3    H238802   3.253   2.032   3.745 -0.8404  1.7742  2.2959
 5771TIP3   OH238803   6.089   1.355  12.412  0.1806  0.0869 -0.5653
 5771TIP3    H138804   6.124   1.430  12.364 -0.2601  1.2744  0.9078
 5771TIP3    H238805   6.135   1.280  12.374  0.1046  0.9773 -2.5774
 5772TIP3   OH238806   3.619   4.091   0.683 -0.4950 -0.9720  0.5691
 5772TIP3    H138807   3.528   4.109   0.709 -0.5340 -1.2571  0.6368
 5772TIP3    H238808   3.651   4.030   0.750  0.3848  0.6308  1.6929
 5773TIP3   OH238809   0.440   3.255   2.148  0.2148  0.3984  0.1661
 5773TIP3    H138810   0.532   3.248   2.122 -0.1225  0.0546 -1.0339
 5773TIP3    H238811   0.399   3.307   2.078 -0.6327 -0.0340  0.3207
 5774TIP3   OH238812   3.927   4.194  11.757 -0.9646 -0.2141  0.4851
 5774TIP3    H138813   3.948   4.234  11.842 -1.2675  1.3309 -0.1388
 5774TIP3    H238814   3.841   4.154  11.771  0.2172 -2.4893  1.6988
 5775TIP3   OH238815   6.133   5.681  14.643 -0.5009  0.8912  0.4633
 5775TIP3    H138816   6.222   5.650  14.662 -0.4498  1.5398  1.3661
 5775TIP3    H238817   6.082   5.602  14.627  0.1423  0.4885  0.3718
 5776TIP3   OH238818   5.721   3.031  16.548  0.3052 -0.6876 -0.6402
 5776TIP3    H138819   5.779   3.050  16.621  3.4303  1.2085 -3.3198
 5776TIP3    H238820   5.639   3.076  16.571  1.0166 -0.4825  1.7951
 5777TIP3   OH238821   0.168   3.664   3.745  0.0951 -0.4015 -0.3743
 5777TIP3    H138822   0.132   3.583   3.780 -1.0379  0.2563  0.0000
 5777TIP3    H238823   0.167   3.726   3.818 -2.7424  1.1361 -1.5521
 5778TIP3   OH238824   0.847   5.974   2.881  0.1804 -0.4056  0.0751
 5778TIP3    H138825   0.759   5.947   2.854  0.3604 -0.4171 -0.5222
 5778TIP3    H238826   0.900   5.966   2.801  0.3607  1.1951  0.0071
 5779TIP3   OH238827   2.504   5.143  14.584  0.1940  0.4656  0.8320
 5779TIP3    H138828   2.425   5.090  14.589 -0.2134  1.1709  2.7127
 5779TIP3    H238829   2.576   5.080  14.589 -0.2376 -0.0852  0.2894
 5780TIP3   OH238830   2.399   6.177   2.089  0.6953 -0.1682 -0.9310
 5780TIP3    H138831   2.412   6.084   2.104  0.2481 -0.2125 -0.8022
 5780TIP3    H238832   2.478   6.219   2.124  1.9053 -0.6510 -2.9050
 5781TIP3   OH238833   5.234   2.367  12.017 -0.3774 -0.5569  0.0173
 5781TIP3    H138834   5.174   2.404  12.083 -0.6508  0.5961 -0.8461
 5781TIP3    H238835   5.285   2.442  11.987 -0.6421 -0.9483 -1.4767
 5782TIP3   OH238836   1.096   2.754  12.931  0.1319 -0.7866  0.1433
 5782TIP3    H138837   1.174   2.703  12.956 -0.0367 -1.0369  0.1665
 5782TIP3    H238838   1.071   2.800  13.011  0.4661 -0.4241  0.0421
 5783TIP3   OH238839   6.762   5.107   0.042  0.0193 -0.0616  0.4744
 5783TIP3    H138840   6.809   5.189   0.029  3.2181 -1.7209  0.4977
 5783TIP3    H238841   6.766   5.063  -0.043  0.8408 -1.3186  1.1178
 5784TIP3   OH238842   3.239   5.852   1.018  0.4392 -0.2566 -0.3893
 5784TIP3    H138843   3.192   5.858   1.101  0.5161 -0.0706 -0.3579
 5784TIP3    H238844   3.228   5.938   0.978 -1.9110 -1.1319 -1.8421
 5785TIP3   OH238845   3.448   3.861   6.460 -0.1190 -0.5002 -0.0507
 5785TIP3    H138846   3.518   3.923   6.481 -0.4957 -0.7404  2.1944
 5785TIP3    H238847   3.486   3.775   6.477 -0.8893 -0.6404  1.0499
 5786TIP3   OH238848   6.344   3.098   3.476  0.4190 -0.6888 -0.5608
 5786TIP3    H138849   6.264   3.133   3.436 -0.2511 -3.3183 -1.7061
 5786TIP3    H238850   6.372   3.167   3.537 -2.4039  0.5474 -0.4982
 5787TIP3   OH238851   1.618   1.782  16.228  0.1647  0.0689  0.2016
 5787TIP3    H138852   1.560   1.859  16.230  0.9346  0.7628 -1.7323
 5787TIP3    H238853   1.698   1.810  16.271  0.6937  0.6124 -1.0875
 5788TIP3   OH238854   3.731   6.035   5.795  0.5953 -0.1578  0.5768
 5788TIP3    H138855   3.729   6.024   5.890 -0.0793 -0.2095  0.5603
 5788TIP3    H238856   3.821   6.061   5.776  0.6723  0.1005  1.2563
 5789TIP3   OH238857   3.938   3.948  14.159  0.2357 -0.3109  0.6672
 5789TIP3    H138858   3.981   3.956  14.074  1.7140 -1.7852  1.2243
 5789TIP3    H238859   4.006   3.917  14.218 -1.1346 -0.8300  2.0592
 5790TIP3   OH238860   1.588   3.603   0.960  0.4859  0.4619 -0.8077
 5790TIP3    H138861   1.508   3.605   0.907 -0.8484 -0.0427  1.0676
 5790TIP3    H238862   1.589   3.688   1.005  1.5217  0.8232 -1.4653
 5791TIP3   OH238863   4.993   4.002   3.757 -0.2839  0.1957  0.3382
 5791TIP3    H138864   4.897   3.995   3.763 -0.2772 -0.1707  0.0598
 5791TIP3    H238865   5.025   3.953   3.832 -0.3013 -0.3277  0.0080
 5792TIP3   OH238866   6.654   0.295  12.735  0.7149 -0.0735 -0.0197
 5792TIP3    H138867   6.670   0.389  12.731 -0.9136  0.2284 -0.3321
 5792TIP3    H238868   6.561   0.286  12.714  0.1096 -1.5108  2.7704
 5793TIP3   OH238869   4.224   3.472  13.096 -0.4054 -0.8276  0.5530
 5793TIP3    H138870   4.283   3.414  13.049  0.3802 -0.6695  1.3038
 5793TIP3    H238871   4.206   3.543  13.035  0.4832 -0.6944  0.4250
 5794TIP3   OH238872   3.400   4.478  12.610  0.3956 -0.0382 -0.3762
 5794TIP3    H138873   3.346   4.430  12.547  0.1844  1.0962 -1.0792
 5794TIP3    H238874   3.448   4.542  12.557  0.4242  0.7490  0.5768
 5795TIP3   OH238875   5.124   5.292   5.643  0.0883  0.0491  0.1422
 5795TIP3    H138876   5.168   5.221   5.691  0.5433  1.0173  1.2143
 5795TIP3    H238877   5.033   5.264   5.638  0.3593 -0.8746  0.0295
 5796TIP3   OH238878   5.171   4.604   3.778  0.4916  0.0539  0.0091
 5796TIP3    H138879   5.246   4.639   3.729  1.4967 -1.0202  0.7272
 5796TIP3    H238880   5.140   4.678   3.830  0.0719  0.9245 -1.4279
 5797TIP3   OH238881   3.823   6.801  13.497 -0.5799 -0.1697 -0.2090
 5797TIP3    H138882   3.858   6.790  13.586 -0.7215 -0.0467 -0.1377
 5797TIP3    H238883   3.837   6.716  13.455 -2.0862 -0.7993  0.4775
 5798TIP3   OH238884   0.170   5.131   1.617 -0.2804  0.0683 -0.4172
 5798TIP3    H138885   0.151   5.217   1.578  0.1733  1.3793  2.0109
 5798TIP3    H238886   0.196   5.076   1.543  1.9885  2.7638 -1.8205
 5799TIP3   OH238887   1.634   6.111   2.026 -0.2465 -0.3954 -0.5577
 5799TIP3    H138888   1.727   6.132   2.013 -0.1125  1.6947  2.5510
 5799TIP3    H238889   1.591   6.196   2.033 -2.1912 -1.3258 -0.5269
 5800TIP3   OH238890   2.661   1.320   4.954  0.2534 -0.4607 -0.0478
 5800TIP3    H138891   2.640   1.399   5.004  1.3397 -0.2151  0.0361
 5800TIP3    H238892   2.721   1.271   5.010 -0.5976 -1.4842  0.0078
 5801TIP3   OH238893   6.072   0.945   3.960 -0.0262 -0.3197 -0.4214
 5801TIP3    H138894   5.980   0.967   3.974 -0.0182 -0.6169  0.1130
 5801TIP3    H238895   6.100   0.904   4.042  0.2088 -1.4963 -1.0695
 5802TIP3   OH238896   0.065   4.099  15.721  0.3314 -0.2142 -0.5004
 5802TIP3    H138897  -0.027   4.109  15.694  0.5951 -0.3680 -1.5123
 5802TIP3    H238898   0.060   4.059  15.807 -0.5522 -2.0088 -1.3239
 5803TIP3   OH238899   1.090   5.997   3.711  0.2164  0.1667 -0.2645
 5803TIP3    H138900   1.107   5.908   3.681 -0.7758 -0.2500  0.3883
 5803TIP3    H238901   1.177   6.035   3.725  0.6521 -0.4541 -1.2235
 5804TIP3   OH238902   2.371   5.644  14.409  0.4590  0.2502  0.0302
 5804TIP3    H138903   2.419   5.609  14.334 -0.5543  0.1885 -0.6133
 5804TIP3    H238904   2.320   5.717  14.373  1.6707  1.7117  1.1268
 5805TIP3   OH238905   3.480   0.081  14.713  0.2956  0.2577 -0.1369
 5805TIP3    H138906   3.564   0.124  14.724  0.8539 -0.1148 -2.4350
 5805TIP3    H238907   3.419   0.152  14.693  0.2698  0.4221  0.5141
 5806TIP3   OH238908   4.262   1.095  13.190 -0.6152 -0.2745 -0.1787
 5806TIP3    H138909   4.247   1.167  13.128 -1.1222  1.1115  1.4711
 5806TIP3    H238910   4.244   1.133  13.276  2.1523 -1.4835  1.0656
 5807TIP3   OH238911   0.367   3.386  12.366 -0.3697  0.0590 -0.1426
 5807TIP3    H138912   0.436   3.391  12.300 -0.3993 -1.8677 -0.3765
 5807TIP3    H238913   0.314   3.464  12.351 -0.1890 -0.1644 -2.2284
 5808TIP3   OH238914   5.153   2.420   0.907 -0.2039  0.2925  0.0670
 5808TIP3    H138915   5.219   2.487   0.924  2.1488 -2.0666  0.7173
 5808TIP3    H238916   5.083   2.439   0.970  1.4091  0.8347  1.7659
 5809TIP3   OH238917   4.358   3.764  15.340 -0.3194 -0.0914  0.9639
 5809TIP3    H138918   4.354   3.718  15.255 -0.6511  0.4811  0.6627
 5809TIP3    H238919   4.319   3.850  15.322  2.2789  1.1847  0.9539
 5810TIP3   OH238920   4.689   2.076  15.972 -0.0833  0.6300  0.0908
 5810TIP3    H138921   4.602   2.047  15.947 -0.0956  0.3187  0.4928
 5810TIP3    H238922   4.674   2.154  16.025 -0.0929  0.8496 -0.2326
 5811TIP3   OH238923   1.684   1.177   2.759 -0.4430 -0.5431 -0.3818
 5811TIP3    H138924   1.684   1.154   2.852 -1.1349  0.0217 -0.2390
 5811TIP3    H238925   1.705   1.271   2.757 -2.9622  0.0773 -0.6156
 5812TIP3   OH238926   4.387   6.549  10.266 -0.2319 -0.0027  0.0794
 5812TIP3    H138927   4.452   6.481  10.286 -0.1061  0.1650  0.2437
 5812TIP3    H238928   4.437   6.630  10.264 -0.2152 -0.0263 -1.0606
 5813TIP3   OH238929   5.204   0.796   5.291  0.3373 -0.6175 -0.0632
 5813TIP3    H138930   5.270   0.772   5.226  0.3970 -0.6407  0.0069
 5813TIP3    H238931   5.216   0.734   5.362  0.3317 -0.5334  0.0108
 5814TIP3   OH238932   5.351   4.035   2.360  0.6358  0.3627  0.2261
 5814TIP3    H138933   5.266   4.024   2.403 -0.9514  1.8513 -2.2894
 5814TIP3    H238934   5.398   4.098   2.416 -1.2370  2.0397  0.0273
 5815TIP3   OH238935   6.206   5.142   0.521  0.0269  0.5785 -0.1468
 5815TIP3    H138936   6.254   5.066   0.487 -0.8232 -0.0172 -0.0639
 5815TIP3    H238937   6.232   5.214   0.464  0.9328  0.2521 -0.1664
 5816TIP3   OH238938   4.124   2.543   3.287 -0.5753  0.4470  0.4168
 5816TIP3    H138939   4.164   2.493   3.358 -0.2873  0.9479  0.6147
 5816TIP3    H238940   4.035   2.560   3.317 -0.1989  1.3907  1.0550
 5817TIP3   OH238941   6.799   4.600  16.770  0.0534  0.4281  0.6019
 5817TIP3    H138942   6.785   4.543  16.846  1.2468 -0.9888 -0.1761
 5817TIP3    H238943   6.882   4.570  16.732 -0.8541  0.5574 -1.6966
 5818TIP3   OH238944   3.929   0.510  11.754  0.1100 -0.5951 -0.3516
 5818TIP3    H138945   3.981   0.518  11.834  1.7187  0.1357 -1.4318
 5818TIP3    H238946   3.969   0.571  11.693 -2.7363  0.9029 -0.8991
 5819TIP3   OH238947   1.627   2.116  12.379 -0.3030  0.2012 -0.5985
 5819TIP3    H138948   1.640   2.192  12.322  0.8131  2.3481  2.2854
 5819TIP3    H238949   1.550   2.137  12.431  0.3265 -0.3695  0.6120
 5820TIP3   OH238950   5.528   3.547  12.242 -0.3330  0.2134 -0.2333
 5820TIP3    H138951   5.534   3.540  12.147 -1.3424  0.5882 -0.3492
 5820TIP3    H238952   5.512   3.641  12.257  1.9172  0.5417  0.4627
 5821TIP3   OH238953   0.150   6.471  17.359 -0.3286  0.1251  0.0886
 5821TIP3    H138954   0.066   6.425  17.359 -1.5940  2.3211  0.8391
 5821TIP3    H238955   0.164   6.496  17.268 -0.4237 -0.3164 -0.0527
 5822TIP3   OH238956   6.027   6.002  10.904 -0.8007 -0.6527  0.4258
 5822TIP3    H138957   6.033   6.093  10.933  0.8501 -0.3631 -0.6908
 5822TIP3    H238958   6.040   5.950  10.983 -2.5985  0.0294  1.2258
 5823TIP3   OH238959   3.963   4.605  11.614  0.3691  0.1230  0.2020
 5823TIP3    H138960   4.058   4.599  11.606  0.1984 -0.6771 -1.7473
 5823TIP3    H238961   3.945   4.580  11.704  2.0233  0.7663  0.7533
 5824TIP3   OH238962   2.520   3.217   2.868 -0.2722  0.2588  0.2477
 5824TIP3    H138963   2.469   3.249   2.793 -0.8131  1.0740  0.9357
 5824TIP3    H238964   2.593   3.278   2.874  0.9269 -1.0130 -0.8434
 5825TIP3   OH238965   6.582   5.466   4.993  0.3612 -0.5304  0.4455
 5825TIP3    H138966   6.545   5.381   4.969  1.6048 -0.7895 -0.7226
 5825TIP3    H238967   6.676   5.456   4.975  0.9302  0.2785  2.7198
 5826TIP3   OH238968   5.132   5.649  14.895  0.5190  0.7948 -0.2415
 5826TIP3    H138969   5.146   5.575  14.837 -1.1064 -0.4730  0.8775
 5826TIP3    H238970   5.213   5.656  14.946  0.2459 -1.0841  0.5227
 5827TIP3   OH238971   5.831   2.209  15.125  0.1077  0.2212 -0.6242
 5827TIP3    H138972   5.784   2.180  15.203 -0.1241  0.4322 -0.6820
 5827TIP3    H238973   5.923   2.211  15.151  0.2157 -1.2142 -0.8232
 5828TIP3   OH238974   6.207   0.233  14.989  0.1999 -0.1671  0.1036
 5828TIP3    H138975   6.147   0.163  15.013  0.7062 -0.2775  1.0873
 5828TIP3    H238976   6.248   0.203  14.908  1.0273 -1.4017  0.9597
 5829TIP3   OH238977   5.307   3.375  11.981 -0.5601  0.0993 -0.2993
 5829TIP3    H138978   5.323   3.339  12.068  1.5617  0.6941 -0.3844
 5829TIP3    H238979   5.329   3.305  11.921  0.1393  0.3817 -0.3839
 5830TIP3   OH238980   1.409   0.847   2.508  0.4653  0.2865  0.5715
 5830TIP3    H138981   1.447   0.835   2.422  0.2766  2.1068  0.1949
 5830TIP3    H238982   1.454   0.783   2.564 -0.3952 -1.9324 -1.1009
 5831TIP3   OH238983   1.864   3.717  12.236  0.0055 -0.6171 -0.2301
 5831TIP3    H138984   1.775   3.699  12.206 -1.5112  1.4164  2.5661
 5831TIP3    H238985   1.866   3.682  12.325  1.7466  0.0523  0.0191
 5832TIP3   OH238986   0.394   5.075   3.788 -0.2456 -0.1779  0.2791
 5832TIP3    H138987   0.440   5.114   3.863  0.3854 -0.7665  0.2158
 5832TIP3    H238988   0.302   5.088   3.807 -0.0699  0.3580  0.7939
 5833TIP3   OH238989   5.464   3.680  11.330  0.5444  0.2508  0.1109
 5833TIP3    H138990   5.462   3.684  11.234  2.3337  2.1595  0.0813
 5833TIP3    H238991   5.380   3.719  11.357 -0.1280 -0.6228 -0.6558
 5834TIP3   OH238992   6.468   6.107  11.287  0.2182 -0.0873  0.1654
 5834TIP3    H138993   6.542   6.163  11.264 -0.8653  0.6965 -1.6374
 5834TIP3    H238994   6.494   6.020  11.258  0.5548  0.1179 -0.1522
 5835TIP3   OH238995   5.638   5.407   0.153 -0.0388 -0.1588  0.6408
 5835TIP3    H138996   5.665   5.328   0.107 -0.8181  0.0021 -0.1223
 5835TIP3    H238997   5.577   5.377   0.220 -2.5343 -0.0395 -1.3859
 5836TIP3   OH238998   3.772   5.429   2.390  0.4178  0.0703 -0.0501
 5836TIP3    H138999   3.806   5.342   2.412  0.5863  0.2245  0.3052
 5836TIP3    H239000   3.757   5.426   2.296  0.4590 -0.3321 -0.0450
 5837TIP3   OH239001   4.224   2.819  15.524  0.2846 -0.2133 -0.4557
 5837TIP3    H139002   4.211   2.777  15.440  1.6736 -2.1290  0.2091
 5837TIP3    H239003   4.303   2.873  15.512 -0.2808  0.5682 -0.7252
 5838TIP3   OH239004   3.130   5.047   3.389  0.0778  0.1649 -0.1073
 5838TIP3    H139005   3.189   5.082   3.456  1.2157 -0.2114 -0.8731
 5838TIP3    H239006   3.174   4.968   3.358 -0.9732 -0.2714 -0.5307
 5839TIP3   OH239007   4.074   5.464  13.141  0.0564  0.0020 -0.1298
 5839TIP3    H139008   4.094   5.380  13.183 -1.9969 -0.2980  0.3358
 5839TIP3    H239009   4.016   5.508  13.203  0.1372  1.2700 -0.9260
 5840TIP3   OH239010   2.468   4.157   5.201 -0.4074  0.0083 -0.0728
 5840TIP3    H139011   2.422   4.188   5.123 -1.0163 -0.1061  0.2360
 5840TIP3    H239012   2.488   4.065   5.182 -1.1221 -0.2010  0.1557
 5841TIP3   OH239013   1.772   1.788   2.470 -0.1907 -0.4543 -0.3791
 5841TIP3    H139014   1.864   1.763   2.464 -0.2142 -0.5373 -0.3876
 5841TIP3    H239015   1.774   1.875   2.509 -0.1350 -0.6436  0.0379
 5842TIP3   OH239016   0.858   2.701   3.059 -0.4529 -0.4521  0.5258
 5842TIP3    H139017   0.798   2.770   3.088 -1.7316 -0.7075 -1.3655
 5842TIP3    H239018   0.925   2.747   3.009 -0.9375 -0.4989 -0.1750
 5843TIP3   OH239019   2.273   4.969  16.769  0.2518  0.2633  0.2354
 5843TIP3    H139020   2.319   5.049  16.743 -1.9294  1.6818  0.5345
 5843TIP3    H239021   2.181   4.985  16.746 -0.4406 -1.6758  1.4057
 5844TIP3   OH239022   5.612   0.928  11.165  0.0961 -0.1922  0.0861
 5844TIP3    H139023   5.669   1.002  11.143  2.0125 -1.4616  0.5111
 5844TIP3    H239024   5.578   0.898  11.081 -0.7153  1.1483 -0.0875
 5845TIP3   OH239025   5.572   0.219  13.034 -0.2106 -0.4463  0.1985
 5845TIP3    H139026   5.609   0.292  12.985 -0.8004 -1.1205 -1.3267
 5845TIP3    H239027   5.543   0.257  13.116  0.0464  0.9080 -0.3121
 5846TIP3   OH239028   6.465   2.482  14.599 -0.2022  0.2537  0.4266
 5846TIP3    H139029   6.470   2.575  14.575 -0.5540  0.0168 -0.6325
 5846TIP3    H239030   6.532   2.440  14.546 -2.5881 -0.6381 -2.1287
 5847TIP3   OH239031   0.061   1.989  14.176  0.7116 -0.3058  0.4831
 5847TIP3    H139032  -0.033   1.999  14.162  0.8961  0.2740 -0.3853
 5847TIP3    H239033   0.068   1.939  14.258 -0.3540 -0.8513  0.2522
 5848TIP3   OH239034   6.330   5.580   4.534 -0.1604  0.0810  0.2036
 5848TIP3    H139035   6.402   5.535   4.579  0.7583  0.0974 -1.1825
 5848TIP3    H239036   6.328   5.540   4.447 -1.0322  0.9288 -0.1816
 5849TIP3   OH239037   0.021   1.568  13.856 -0.1460  0.1582  0.2425
 5849TIP3    H139038   0.003   1.648  13.905  2.9827  1.1190  0.0691
 5849TIP3    H239039   0.003   1.497  13.917  1.6632  1.2416  2.1459
 5850TIP3   OH239040   5.196   3.283   5.693  0.1141 -0.2884  0.1914
 5850TIP3    H139041   5.156   3.368   5.672 -0.2892 -0.4735  0.2051
 5850TIP3    H239042   5.241   3.258   5.612 -1.2623 -0.9014 -0.4105
 5851TIP3   OH239043   5.548   5.312   5.560 -0.0071 -0.4979  0.7494
 5851TIP3    H139044   5.619   5.249   5.545  0.3894  0.6202 -3.0023
 5851TIP3    H239045   5.579   5.364   5.634  1.9168 -1.6327  0.8267
 5852TIP3   OH239046   4.197   6.278   3.085 -0.4631  0.5151  0.1474
 5852TIP3    H139047   4.204   6.359   3.135 -0.6874  1.2844 -1.0525
 5852TIP3    H239048   4.212   6.209   3.151  0.4574  1.5259  1.0490
 5853TIP3   OH239049   6.177   1.366   3.757 -0.0235 -0.3987  0.4091
 5853TIP3    H139050   6.137   1.390   3.840 -1.7890 -1.6300 -0.0334
 5853TIP3    H239051   6.186   1.271   3.761  1.3002 -0.3189 -0.2124
 5854TIP3   OH239052   0.734   5.589  14.873 -0.4692  0.1771 -0.4404
 5854TIP3    H139053   0.808   5.596  14.934 -1.6956 -0.5653  1.2240
 5854TIP3    H239054   0.665   5.643  14.913 -1.8339 -1.5762 -0.3041
 5855TIP3   OH239055   3.900   1.238   4.433 -0.3510 -0.2382 -0.9128
 5855TIP3    H139056   3.831   1.296   4.465 -0.2976  0.1960 -1.5795
 5855TIP3    H239057   3.908   1.171   4.501  0.0833  0.9327  0.2350
 5856TIP3   OH239058   2.480   1.482  11.668 -0.1205 -0.5488 -0.3450
 5856TIP3    H139059   2.408   1.532  11.629  0.1834  1.2803  1.3091
 5856TIP3    H239060   2.443   1.446  11.749  0.5029 -0.5272 -0.0439
 5857TIP3   OH239061   5.015   2.784  17.068 -0.0095  0.3356  0.5805
 5857TIP3    H139062   5.028   2.781  17.162 -2.2436  2.0859  1.0319
 5857TIP3    H239063   5.069   2.858  17.039  0.4147  0.0045  0.5032
 5858TIP3   OH239064   3.688   1.054   2.678 -0.0131 -0.0059  0.4800
 5858TIP3    H139065   3.652   0.974   2.641  1.2954 -0.6490  0.5510
 5858TIP3    H239066   3.696   1.036   2.772  1.7021 -0.4085  0.3029
 5859TIP3   OH239067   6.482   6.646   4.411 -0.0271  0.3489  0.0011
 5859TIP3    H139068   6.537   6.698   4.353  1.4116 -1.1396 -0.0611
 5859TIP3    H239069   6.543   6.590   4.459 -1.4078 -0.6452  0.7053
 5860TIP3   OH239070   3.681   5.658  13.519 -0.7674  0.1175  0.3056
 5860TIP3    H139071   3.755   5.612  13.480 -1.8153  0.6636 -2.6217
 5860TIP3    H239072   3.710   5.749  13.526 -0.8111  0.1421  0.1635
 5861TIP3   OH239073   3.642   0.564  17.237 -0.0706 -0.2226 -0.0618
 5861TIP3    H139074   3.705   0.636  17.231  1.2311 -1.3047  0.0138
 5861TIP3    H239075   3.690   0.488  17.203 -1.8927 -0.7681 -1.5743
 5862TIP3   OH239076   1.127   6.399   2.329  0.1131  0.4449 -0.1348
 5862TIP3    H139077   1.135   6.491   2.304  1.6939  0.2397 -0.4646
 5862TIP3    H239078   1.208   6.379   2.376 -0.6967 -0.4920  0.9534
 5863TIP3   OH239079   1.692   4.200   4.460  0.1273  0.0095  0.0314
 5863TIP3    H139080   1.680   4.225   4.552 -2.3875 -0.9709  0.0292
 5863TIP3    H239081   1.711   4.106   4.464 -1.5460 -0.3805 -0.4764
 5864TIP3   OH239082   4.965   4.729  11.700  0.5106  0.2695 -0.3243
 5864TIP3    H139083   5.043   4.701  11.746  0.3576 -0.4082 -0.4695
 5864TIP3    H239084   4.958   4.670  11.625 -0.6201 -0.2535  0.1694
 5865TIP3   OH239085   1.491   1.545   6.073  0.2761 -0.2854 -0.8740
 5865TIP3    H139086   1.543   1.618   6.107 -1.9356  0.4030  1.3905
 5865TIP3    H239087   1.524   1.469   6.121 -0.5435  0.1096  0.3851
 5866TIP3   OH239088   3.086   4.650   0.709 -0.3201  0.1018 -0.0544
 5866TIP3    H139089   3.032   4.621   0.783  0.3368  0.4982  0.6003
 5866TIP3    H239090   3.029   4.640   0.633 -1.3485  0.5684  0.6218
 5867TIP3   OH239091   0.898   1.874  16.348 -0.1016  0.2795  0.1534
 5867TIP3    H139092   0.835   1.804  16.329 -2.0916  1.6347  1.2935
 5867TIP3    H239093   0.939   1.847  16.430 -0.7580  0.3703  0.5178
 5868TIP3   OH239094   3.692   6.729  15.490 -0.8501 -0.0847 -0.1628
 5868TIP3    H139095   3.736   6.729  15.575  1.6816 -0.7797 -1.3637
 5868TIP3    H239096   3.701   6.819  15.458 -0.3331 -0.2061 -0.3705
 5869TIP3   OH239097   0.789   4.414  14.707  1.1626  0.2420 -0.1291
 5869TIP3    H139098   0.704   4.447  14.677  0.5048 -0.0335  1.3349
 5869TIP3    H239099   0.840   4.403  14.627  0.7054  2.8217 -0.8854
 5870TIP3   OH239100   5.428   0.080   0.928  0.0863  1.1154  0.3618
 5870TIP3    H139101   5.510   0.129   0.937 -0.3274  1.8130  0.3873
 5870TIP3    H239102   5.360   0.147   0.920 -0.5756  0.5611  1.0933
 5871TIP3   OH239103   6.461   4.140  14.384 -0.0274  0.0437 -0.5687
 5871TIP3    H139104   6.511   4.197  14.441  0.7820 -1.4215  0.2397
 5871TIP3    H239105   6.466   4.181  14.298 -0.4625  1.7748  0.1933
 5872TIP3   OH239106   1.007   1.210   0.355  0.4580 -0.0289  0.0514
 5872TIP3    H139107   0.980   1.249   0.272 -0.0574 -0.5834 -0.0511
 5872TIP3    H239108   1.009   1.283   0.417 -1.1779  0.0822  0.0243
 5873TIP3   OH239109   2.346   0.170  16.169 -0.3916  0.1724 -0.1332
 5873TIP3    H139110   2.409   0.100  16.153 -2.0648 -0.9034 -2.4821
 5873TIP3    H239111   2.354   0.227  16.093 -1.3539  0.7029  0.1566
 5874TIP3   OH239112   2.516   3.940   5.513 -0.0837  0.1574  0.0085
 5874TIP3    H139113   2.586   3.999   5.487  0.1865 -0.8321 -1.6844
 5874TIP3    H239114   2.552   3.852   5.499 -0.9879 -0.4106  1.0178
 5875TIP3   OH239115   6.727   1.819   4.150 -0.1959 -0.1891  0.6343
 5875TIP3    H139116   6.768   1.885   4.093  0.9586 -0.3293  1.2748
 5875TIP3    H239117   6.633   1.834   4.139 -0.0014 -0.0388 -1.0911
 5876TIP3   OH239118   1.022   6.470  10.942 -0.0739  0.7284  0.6254
 5876TIP3    H139119   1.112   6.440  10.924 -0.0940  0.8062  0.3884
 5876TIP3    H239120   0.983   6.479  10.855  0.2628  2.4914  0.6245
 5877TIP3   OH239121   5.119   1.984   1.431 -0.1241 -0.1733 -0.4112
 5877TIP3    H139122   5.194   1.957   1.484  1.2341  1.6062 -1.2816
 5877TIP3    H239123   5.043   1.955   1.480  1.0954 -0.0411  1.6930
 5878TIP3   OH239124   0.002   3.036   2.092 -0.6884  0.3097  0.4746
 5878TIP3    H139125   0.073   3.065   2.150 -0.7280  0.2343  0.5596
 5878TIP3    H239126   0.017   3.086   2.011 -0.9180  0.7798  0.7167
 5879TIP3   OH239127   0.991   2.726   4.912  0.0894 -0.1229  0.1279
 5879TIP3    H139128   0.931   2.651   4.911  0.8179 -0.7328  0.4081
 5879TIP3    H239129   1.071   2.691   4.952 -0.1657  1.2982  2.0030
 5880TIP3   OH239130   3.470   4.499   1.337 -0.0249 -0.0448 -0.6623
 5880TIP3    H139131   3.525   4.533   1.267  1.8986 -1.7423 -0.0850
 5880TIP3    H239132   3.399   4.453   1.291  0.6738 -0.3241 -1.4933
 5881TIP3   OH239133   2.148   6.765   1.946 -0.4830  0.3746  0.0523
 5881TIP3    H139134   2.181   6.846   1.982 -1.0930  0.1291  1.2060
 5881TIP3    H239135   2.101   6.791   1.866  0.9181  0.9116 -0.6150
 5882TIP3   OH239136   5.698   0.416  12.905  0.2291 -0.1070  0.4138
 5882TIP3    H139137   5.644   0.457  12.838 -2.0203 -1.7029  1.1087
 5882TIP3    H239138   5.788   0.434  12.878 -0.6044  0.9496 -1.9356
 5883TIP3   OH239139   4.792   4.841  13.624  0.5411  0.3682  0.1844
 5883TIP3    H139140   4.845   4.836  13.544  2.7733 -0.0651  1.5929
 5883TIP3    H239141   4.706   4.868  13.594  1.2416  0.0256 -2.3908
 5884TIP3   OH239142   5.052   5.425   3.466  0.4736  0.1063  0.5586
 5884TIP3    H139143   5.085   5.486   3.401 -1.7628  1.4653  0.5729
 5884TIP3    H239144   5.031   5.346   3.417  1.2840  0.1577  0.1217
 5885TIP3   OH239145   0.740   3.553  13.859  0.0414  0.3831  0.4474
 5885TIP3    H139146   0.723   3.613  13.786  0.1253  0.1033  0.1993
 5885TIP3    H239147   0.737   3.610  13.937 -0.2928  0.6370  0.2520
 5886TIP3   OH239148   1.833   3.241   5.670 -0.1969  0.2542  0.1562
 5886TIP3    H139149   1.773   3.170   5.651  0.1238  0.1357 -0.4557
 5886TIP3    H239150   1.819   3.304   5.599  1.3101 -0.3780 -0.7642
 5887TIP3   OH239151   3.336   6.375  15.975 -0.3958 -0.1041 -0.0394
 5887TIP3    H139152   3.299   6.313  15.912  0.1144 -0.6191  0.1546
 5887TIP3    H239153   3.430   6.358  15.973 -0.3460  0.0284  0.6888
 5888TIP3   OH239154   5.201   5.049  11.840 -0.1366  0.2596  0.0100
 5888TIP3    H139155   5.249   5.068  11.760 -0.4108 -0.4850 -0.3337
 5888TIP3    H239156   5.197   4.954  11.845  0.0447  0.2906  1.0135
 5889TIP3   OH239157   0.780   3.065   1.252 -0.0928  0.2413 -0.1188
 5889TIP3    H139158   0.800   3.106   1.336 -0.6341  0.6848 -0.2027
 5889TIP3    H239159   0.687   3.082   1.238 -0.0883 -0.1352 -0.6415
 5890TIP3   OH239160   1.416   3.320  12.252 -0.1001  0.1318 -0.0046
 5890TIP3    H139161   1.331   3.279  12.235  0.1257 -0.5222  0.3680
 5890TIP3    H239162   1.425   3.387  12.185 -1.0355  0.4065  0.1231
 5891TIP3   OH239163   6.133   5.450  16.971 -0.0697  0.3050 -0.5680
 5891TIP3    H139164   6.080   5.378  16.939  0.7730 -0.5330 -0.1177
 5891TIP3    H239165   6.137   5.438  17.066 -0.4376  1.3076 -0.4080
 5892TIP3   OH239166   2.173   3.349   2.047  1.1966  0.1325  0.8556
 5892TIP3    H139167   2.122   3.279   2.088  0.5842  0.2402  0.2922
 5892TIP3    H239168   2.170   3.331   1.954  0.2376  1.3996  0.6075
 5893TIP3   OH239169   3.384   4.674  12.194 -0.2135  0.5893  0.5394
 5893TIP3    H139170   3.304   4.713  12.159 -0.1984 -0.3609 -0.6346
 5893TIP3    H239171   3.448   4.745  12.192 -0.5163  0.8492 -0.3513
 5894TIP3   OH239172   5.141   5.805  12.336 -0.2179 -0.1089  0.0271
 5894TIP3    H139173   5.223   5.834  12.295  0.3033  1.0198  1.7080
 5894TIP3    H239174   5.111   5.733  12.282  0.4901  1.1417 -2.1756
 5895TIP3   OH239175   0.146   3.333  14.101 -0.1809  0.3143 -0.0395
 5895TIP3    H139176   0.075   3.340  14.037 -0.8388  0.6152  0.6986
 5895TIP3    H239177   0.219   3.295  14.053 -0.1187  2.0259 -1.3903
 5896TIP3   OH239178   6.383   2.120  12.084  0.5671 -0.1415 -0.2520
 5896TIP3    H139179   6.399   2.108  12.177  1.6170 -0.4238 -0.4621
 5896TIP3    H239180   6.459   2.081  12.040  1.4180  2.3048 -1.1570
 5897TIP3   OH239181   3.649   6.171  14.058  0.4222  0.4010  0.6884
 5897TIP3    H139182   3.652   6.084  14.018  2.2773 -0.1844  1.9874
 5897TIP3    H239183   3.726   6.174  14.115 -1.5900  1.4646  3.6087
 5898TIP3   OH239184   6.709   0.123  11.279 -0.5302  0.1446  0.0038
 5898TIP3    H139185   6.747   0.140  11.366  0.4382  2.8069 -0.8440
 5898TIP3    H239186   6.685   0.031  11.282  1.5252 -0.4540  2.3345
 5899TIP3   OH239187   3.519   4.449   4.052  0.1349  0.1800  0.3889
 5899TIP3    H139188   3.518   4.507   4.128 -0.5303 -0.5009  0.9195
 5899TIP3    H239189   3.487   4.365   4.086  1.7503 -0.7124 -0.1988
 5900TIP3   OH239190   2.311   2.294   4.895  0.1980  0.0808 -0.2484
 5900TIP3    H139191   2.333   2.223   4.956 -1.5222 -1.9474 -1.8191
 5900TIP3    H239192   2.221   2.318   4.918  0.4890  1.2331 -0.2525
 5901TIP3   OH239193   0.921   4.719   1.064  0.1238 -0.7001  0.1332
 5901TIP3    H139194   0.830   4.701   1.042 -0.3107 -0.1591  1.4163
 5901TIP3    H239195   0.932   4.685   1.153  1.4777 -1.6843 -0.3637
 5902TIP3   OH239196   3.387   0.495   4.876 -0.0060 -0.2956  0.7397
 5902TIP3    H139197   3.334   0.546   4.815  1.7710 -0.8717 -1.3951
 5902TIP3    H239198   3.455   0.556   4.905  0.2922 -0.5823  0.6383
 5903TIP3   OH239199   0.628   3.161  13.009  0.0391  0.1682 -0.0275
 5903TIP3    H139200   0.704   3.186  12.956  0.0249  2.6736  0.9647
 5903TIP3    H239201   0.554   3.163  12.948  0.4609 -0.1284 -0.5519
 5904TIP3   OH239202   6.608   2.469  17.162  0.0980 -0.1082 -0.0942
 5904TIP3    H139203   6.572   2.386  17.133 -0.7907  0.2273  0.0236
 5904TIP3    H239204   6.533   2.529  17.163  0.8972  0.9671 -1.1992
 5905TIP3   OH239205   2.606   0.057  17.140  0.1326  0.3742 -0.2275
 5905TIP3    H139206   2.554   0.027  17.215  0.3672  0.3079 -0.0912
 5905TIP3    H239207   2.541   0.076  17.073 -0.1407  1.2582  0.2723
 5906TIP3   OH239208   2.583   2.794   0.777 -0.4826 -0.4250 -0.1113
 5906TIP3    H139209   2.572   2.700   0.766 -0.8821 -0.4076  0.1357
 5906TIP3    H239210   2.527   2.834   0.711  0.4005 -0.3616 -0.8450
 5907TIP3   OH239211   3.158   1.970   0.529  0.0075 -0.6894 -0.9126
 5907TIP3    H139212   3.236   1.938   0.482  1.3574 -0.8930  1.3121
 5907TIP3    H239213   3.122   1.892   0.570 -1.2461 -0.5357 -1.6768
 5908TIP3   OH239214   4.250   1.180  14.763  0.5137  0.1181  0.0674
 5908TIP3    H139215   4.158   1.181  14.737  0.5636 -1.7457 -0.2522
 5908TIP3    H239216   4.263   1.095  14.803  2.3531 -0.0399 -0.7833
 5909TIP3   OH239217   5.712   0.141  12.711 -0.0230 -0.3366  0.2850
 5909TIP3    H139218   5.708   0.100  12.797 -0.3001  1.4645  1.1687
 5909TIP3    H239219   5.666   0.224  12.721  2.3249  1.2144 -0.8512
 5910TIP3   OH239220   5.532   1.327  10.912 -0.2397  0.1892 -0.0496
 5910TIP3    H139221   5.456   1.269  10.920 -0.0221 -0.0174  0.5137
 5910TIP3    H239222   5.608   1.270  10.924  0.0405  0.2684 -1.3160
 5911TIP3   OH239223   1.312   5.316   5.578 -0.3870  0.0062 -0.0630
 5911TIP3    H139224   1.218   5.330   5.587 -0.5464 -0.1370 -1.3328
 5911TIP3    H239225   1.350   5.358   5.655 -1.4896  0.0197  0.4913
 5912TIP3   OH239226   3.675   5.174  12.629 -0.9502  0.2710  0.1224
 5912TIP3    H139227   3.596   5.164  12.575 -0.0434 -0.0263 -1.2145
 5912TIP3    H239228   3.690   5.269  12.631  0.0582  0.2105 -1.8224
 5913TIP3   OH239229   2.168   3.057   5.169 -0.2050  0.1275 -0.6746
 5913TIP3    H139230   2.118   3.060   5.250  2.3607  0.1907  1.0363
 5913TIP3    H239231   2.215   2.973   5.173  0.3584  0.3699 -1.8259
 5914TIP3   OH239232   0.290   0.398   0.150 -1.0548 -0.6190  0.0638
 5914TIP3    H139233   0.358   0.457   0.118 -0.2664 -0.8596  1.2336
 5914TIP3    H239234   0.237   0.377   0.072 -0.4426  0.4187 -0.6479
 5915TIP3   OH239235   4.213   6.717   0.537 -0.1431 -1.2251 -0.0050
 5915TIP3    H139236   4.304   6.710   0.507  0.3800  0.8094  0.9410
 5915TIP3    H239237   4.221   6.732   0.631 -1.3039  1.3096 -0.2355
 5916TIP3   OH239238   3.582   0.184   5.726 -0.0644  0.5911  0.0735
 5916TIP3    H139239   3.614   0.203   5.814  0.2845  0.4578 -0.0212
 5916TIP3    H239240   3.636   0.240   5.669  1.9315 -1.6184 -0.3454
 5917TIP3   OH239241   1.637   3.822  14.378  0.1441 -0.6073 -0.8363
 5917TIP3    H139242   1.579   3.828  14.454  0.7943 -1.0122 -0.2961
 5917TIP3    H239243   1.696   3.896  14.387  0.2193 -0.6541 -0.9463
 5918TIP3   OH239244   4.871   6.228  14.864  0.0415  0.1390 -0.0357
 5918TIP3    H139245   4.856   6.320  14.839  0.7385 -0.0285 -1.1095
 5918TIP3    H239246   4.846   6.225  14.956  0.4953  1.5400  0.1710
 5919TIP3   OH239247   5.567   0.573  12.017 -0.0835 -0.6114 -0.5266
 5919TIP3    H139248   5.529   0.575  11.929  1.7845 -0.5374 -1.3791
 5919TIP3    H239249   5.613   0.656  12.025  0.5913 -1.0384  0.1225
 5920TIP3   OH239250   4.956   6.141   5.427  0.4077 -0.3693  0.0768
 5920TIP3    H139251   4.946   6.154   5.521 -0.0841 -0.1110 -0.0073
 5920TIP3    H239252   5.030   6.081   5.418 -0.6192 -1.7452  0.6942
 5921TIP3   OH239253   3.238   1.947  16.905  0.1670 -0.2070  0.0449
 5921TIP3    H139254   3.159   1.972  16.952 -0.6702 -0.2634 -1.2975
 5921TIP3    H239255   3.297   2.022  16.915 -0.3026  0.1072  0.4827
 5922TIP3   OH239256   5.238   4.351  15.463  0.2129 -0.5276 -0.3781
 5922TIP3    H139257   5.324   4.375  15.496  0.1003  0.7201 -0.9157
 5922TIP3    H239258   5.208   4.429  15.415  0.0967 -1.9921 -2.8570
 5923TIP3   OH239259   3.385   0.088   0.066 -0.1179 -0.0809  1.0075
 5923TIP3    H139260   3.455   0.148   0.041 -0.8272 -0.1158 -1.3210
 5923TIP3    H239261   3.355   0.121   0.150  1.4236  1.0832  1.1545
 5924TIP3   OH239262   5.978   2.658   0.626  0.1572  0.8632  0.1419
 5924TIP3    H139263   6.073   2.667   0.617  0.1047  0.4011 -1.0030
 5924TIP3    H239264   5.942   2.713   0.557 -0.3652 -0.2936 -0.5378
 5925TIP3   OH239265   0.872   6.628   1.480 -0.1056 -0.4628  0.0428
 5925TIP3    H139266   0.945   6.632   1.542  0.3763 -0.9400 -0.4775
 5925TIP3    H239267   0.839   6.538   1.488 -0.4530 -0.3330  0.0689
 5926TIP3   OH239268   3.591   3.055  15.281  0.5123  0.1575  0.2400
 5926TIP3    H139269   3.608   2.961  15.284  1.8542  0.3993  2.1161
 5926TIP3    H239270   3.665   3.091  15.233 -0.6327  0.1892 -1.5890
 5927TIP3   OH239271   0.991   3.473   0.905  0.0595 -0.3378  0.3092
 5927TIP3    H139272   1.071   3.495   0.953 -0.1479  1.1603  0.0089
 5927TIP3    H239273   0.933   3.435   0.971  0.6564 -0.5343  0.7301
 5928TIP3   OH239274   2.080   4.904  11.772 -0.0505  0.3608 -0.0723
 5928TIP3    H139275   2.046   4.824  11.812 -1.6688  0.2529 -1.5693
 5928TIP3    H239276   2.085   4.884  11.679  2.2860  1.0770 -0.1725
 5929TIP3   OH239277   0.988   2.469  15.146  0.9167 -0.1445 -0.1240
 5929TIP3    H139278   0.920   2.438  15.206 -0.2663  0.3954 -1.1407
 5929TIP3    H239279   1.028   2.389  15.111 -1.0331 -0.5893 -1.5180
 5930TIP3   OH239280   0.168   4.024  13.918  0.2811 -0.2187 -0.0762
 5930TIP3    H139281   0.256   3.987  13.911  0.8533  1.0263  0.2719
 5930TIP3    H239282   0.176   4.114  13.885 -1.2393 -0.6053 -1.6417
 5931TIP3   OH239283   2.341   2.456  11.490 -0.2302  0.1182  0.6469
 5931TIP3    H139284   2.247   2.447  11.507 -0.2820  0.5785  0.6103
 5931TIP3    H239285   2.345   2.499  11.404  0.0193 -0.6295  0.2676
 5932TIP3   OH239286   5.568   3.258   5.023 -0.3187  0.0786 -0.1365
 5932TIP3    H139287   5.647   3.256   4.969 -1.5155  1.5730 -2.0642
 5932TIP3    H239288   5.517   3.182   4.993  0.0606 -0.5057  0.6515
 5933TIP3   OH239289   2.082   5.131  13.339  0.1063 -0.2543 -0.6337
 5933TIP3    H139290   2.060   5.070  13.410 -0.3043 -0.3127 -0.8076
 5933TIP3    H239291   2.170   5.106  13.312  0.3102 -0.1666 -0.0767
 5934TIP3   OH239292   4.144   0.245   4.328  0.1845  0.5867 -0.5410
 5934TIP3    H139293   4.229   0.227   4.368 -0.3720 -0.3550  0.2670
 5934TIP3    H239294   4.106   0.159   4.311 -1.8975  0.8511  1.9854
 5935TIP3   OH239295   2.093   2.238  15.549 -0.4381 -0.1698 -1.2289
 5935TIP3    H139296   2.011   2.286  15.562  0.0944 -0.0242  2.8738
 5935TIP3    H239297   2.084   2.159  15.601  1.8948 -0.2977 -0.8983
 5936TIP3   OH239298   5.962   5.169   4.984 -0.3354 -0.1300  0.0490
 5936TIP3    H139299   5.916   5.238   4.935  0.5446  1.4681  1.3649
 5936TIP3    H239300   5.909   5.158   5.063  0.4789  0.3704  0.6859
 5937TIP3   OH239301   0.190   5.380  15.588  0.7476 -0.0580  0.5808
 5937TIP3    H139302   0.223   5.292  15.569 -0.2010 -0.1058 -1.0654
 5937TIP3    H239303   0.102   5.366  15.621 -0.1482  0.2986 -1.5106
 5938TIP3   OH239304   0.333   6.165  16.358 -0.1694  0.1583 -0.2526
 5938TIP3    H139305   0.337   6.246  16.307 -1.8389  0.1621 -0.4493
 5938TIP3    H239306   0.245   6.132  16.342 -0.7397  0.1065  2.5780
 5939TIP3   OH239307   5.655   1.349   2.136  1.0855  0.3536 -0.1545
 5939TIP3    H139308   5.640   1.308   2.051 -1.5098  1.1023 -0.1356
 5939TIP3    H239309   5.616   1.290   2.200  0.2511  1.2426  0.1870
 5940TIP3   OH239310   0.079   0.850   5.937 -0.1196  0.5319 -0.1922
 5940TIP3    H139311   0.041   0.857   6.025 -1.2940  1.5380 -0.7508
 5940TIP3    H239312   0.054   0.762   5.908 -1.0217  0.7341 -0.0759
 5941TIP3   OH239313   0.361   3.939  12.712 -0.8292 -0.0731  0.2156
 5941TIP3    H139314   0.353   4.018  12.765 -1.9843 -0.8762  1.2720
 5941TIP3    H239315   0.409   3.968  12.634 -1.4760  1.7317  0.4467
 5942TIP3   OH239316   4.498   6.313  10.357  0.2569 -0.5142 -0.2859
 5942TIP3    H139317   4.487   6.227  10.318  0.7725 -0.8109  0.2105
 5942TIP3    H239318   4.587   6.313  10.392 -0.7407 -0.9112  2.4586
 5943TIP3   OH239319   4.002   5.925   1.987 -0.0219 -0.1985 -0.3435
 5943TIP3    H139320   4.021   5.836   2.014  0.4449 -0.0671 -0.2357
 5943TIP3    H239321   3.934   5.955   2.047  0.8351  0.0095  0.5313
 5944TIP3   OH239322   1.092   5.586  15.976  0.0172 -0.4525 -0.3546
 5944TIP3    H139323   1.080   5.573  16.070  0.0646 -0.3907 -0.3405
 5944TIP3    H239324   1.186   5.574  15.962  0.0094 -0.4667 -0.3953
 5945TIP3   OH239325   6.135   4.078  11.634  0.2419  0.2161 -0.2114
 5945TIP3    H139326   6.219   4.032  11.636  1.6459  2.5840 -0.6264
 5945TIP3    H239327   6.118   4.091  11.540 -1.6012 -1.8533 -0.2341
 5946TIP3   OH239328   2.729   6.120  13.991  0.5486  0.1825  0.0641
 5946TIP3    H139329   2.674   6.075  13.927 -0.0046  0.9427 -0.0164
 5946TIP3    H239330   2.771   6.050  14.041  0.5589 -0.4147 -0.7712
 5947TIP3   OH239331   6.260   1.108   3.804  0.0976  0.3036 -0.7909
 5947TIP3    H139332   6.182   1.064   3.839  1.0782 -0.2679  0.7895
 5947TIP3    H239333   6.270   1.071   3.716 -0.7565 -0.4739 -0.5838
 5948TIP3   OH239334   5.231   3.578   4.990  0.0053 -0.1906  0.1093
 5948TIP3    H139335   5.326   3.581   4.995  0.0255  0.9793 -0.6667
 5948TIP3    H239336   5.211   3.488   4.962  0.8845 -0.3779  0.0598
 5949TIP3   OH239337   4.865   3.190   0.536  0.4628  0.6022  0.1361
 5949TIP3    H139338   4.857   3.286   0.539  2.3024  0.9069 -1.7958
 5949TIP3    H239339   4.958   3.175   0.517 -0.2260 -1.4611 -2.1111
 5950TIP3   OH239340   0.453   1.154  16.432  0.3277  0.0292 -0.0604
 5950TIP3    H139341   0.475   1.208  16.356  0.4957 -0.4964 -0.3964
 5950TIP3    H239342   0.385   1.203  16.478 -4.0236 -2.0416 -3.5453
 5951TIP3   OH239343   1.329   6.115  13.503 -0.1502  0.0630 -0.2161
 5951TIP3    H139344   1.329   6.077  13.591  1.0369  2.4748  0.9368
 5951TIP3    H239345   1.323   6.040  13.444 -0.7398 -1.6557  1.9017
 5952TIP3   OH239346   4.245   5.573   1.917  0.1585 -0.2844 -0.6792
 5952TIP3    H139347   4.299   5.652   1.920  1.5846 -1.2501  0.4753
 5952TIP3    H239348   4.214   5.562   2.007 -1.8280  0.1138 -1.2624
 5953TIP3   OH239349   4.459   0.490   1.360  0.5918  0.0860 -0.4977
 5953TIP3    H139350   4.385   0.430   1.354  0.8634 -0.1563 -1.9784
 5953TIP3    H239351   4.531   0.442   1.319  1.4268  0.5396  0.4082
 5954TIP3   OH239352   2.883   5.971   1.100 -0.3103  0.0636  0.3446
 5954TIP3    H139353   2.960   5.984   1.156 -0.5628  0.1732  0.6768
 5954TIP3    H239354   2.822   5.923   1.155 -0.3381 -0.3515 -0.0458
 5955TIP3   OH239355   0.655   3.251  14.600  0.0733  0.1162 -0.4089
 5955TIP3    H139356   0.731   3.202  14.630  0.2366  0.8074  0.3285
 5955TIP3    H239357   0.620   3.293  14.679  0.4957  1.9563 -1.1407
 5956TIP3   OH239358   0.376   3.759  17.284  0.5692 -0.2910  0.3049
 5956TIP3    H139359   0.303   3.722  17.234 -1.1893  2.1121  0.8551
 5956TIP3    H239360   0.354   3.740  17.375 -1.1018  2.9034  0.7254
 5957TIP3   OH239361   5.776   2.379   2.933  0.0809  0.0084  0.2508
 5957TIP3    H139362   5.868   2.357   2.946  0.2699  1.2054  1.1497
 5957TIP3    H239363   5.742   2.391   3.021 -0.2552  2.0993 -0.1042
 5958TIP3   OH239364   6.698   0.202   4.532 -0.1079 -0.1355 -0.7261
 5958TIP3    H139365   6.728   0.160   4.613 -0.3400 -0.2775 -0.7138
 5958TIP3    H239366   6.777   0.209   4.478  0.3519  1.2632  0.0714
 5959TIP3   OH239367   5.961   6.638   5.841 -0.0951  0.0032 -0.6566
 5959TIP3    H139368   5.959   6.699   5.915 -1.0185  0.4664 -1.0410
 5959TIP3    H239369   6.037   6.665   5.790  1.2266 -1.0465  0.6990
 5960TIP3   OH239370   1.819   2.011   5.797 -0.0521 -0.2669  0.5084
 5960TIP3    H139371   1.782   2.096   5.774 -3.3838 -1.1866  1.7998
 5960TIP3    H239372   1.864   2.027   5.880  0.1564  0.4264  0.2682
 5961TIP3   OH239373   6.378   3.855  16.985 -0.1790  0.3476  0.1513
 5961TIP3    H139374   6.388   3.772  16.939  0.5524  0.9365 -0.7754
 5961TIP3    H239375   6.364   3.920  16.916  1.3060  1.2984  0.6940
 5962TIP3   OH239376   1.398   1.608   3.955 -0.2428 -0.0708 -0.2259
 5962TIP3    H139377   1.422   1.681   3.898  0.4166  1.3182  1.7104
 5962TIP3    H239378   1.480   1.579   3.994 -0.7262 -0.6249  0.4137
 5963TIP3   OH239379   1.639   5.886   0.880 -0.1101  0.0312  0.4289
 5963TIP3    H139380   1.556   5.859   0.919 -0.5914  0.3312 -0.3705
 5963TIP3    H239381   1.704   5.828   0.920 -0.8129 -0.7499  0.4565
 5964TIP3   OH239382   2.418   2.580  16.703  0.0798  0.0568 -0.5007
 5964TIP3    H139383   2.498   2.602  16.751 -1.3171  0.6257  1.7113
 5964TIP3    H239384   2.400   2.657  16.648  0.5904  0.2632 -0.3807
 5965TIP3   OH239385   2.617   6.791   1.454  0.8705 -0.2365  0.1090
 5965TIP3    H139386   2.618   6.804   1.359  0.0211  1.1405  0.2700
 5965TIP3    H239387   2.678   6.856   1.488 -0.4527  0.7537  0.6495
 5966TIP3   OH239388   0.598   4.098   3.467  0.0649 -0.2248 -0.6595
 5966TIP3    H139389   0.678   4.066   3.508 -0.5393 -1.4167 -0.3685
 5966TIP3    H239390   0.571   4.028   3.408 -0.1219  0.6692 -1.6721
 5967TIP3   OH239391   5.162   6.470  12.926  0.1076 -0.0921  0.2610
 5967TIP3    H139392   5.203   6.527  12.991  0.8948 -0.2045 -0.1212
 5967TIP3    H239393   5.068   6.482  12.939  0.2537  0.0367  1.2841
 5968TIP3   OH239394   4.718   1.778  16.099  0.1783  0.5676 -0.4328
 5968TIP3    H139395   4.623   1.789  16.111  0.1086  0.1649 -0.5913
 5968TIP3    H239396   4.757   1.847  16.152 -0.2135  0.9490 -0.6350
 5969TIP3   OH239397   2.657   2.014  14.185  0.0816 -0.4575  0.7174
 5969TIP3    H139398   2.686   1.929  14.152  1.8678 -0.3143  1.7893
 5969TIP3    H239399   2.573   1.996  14.227  0.5701 -1.7685  1.1883
 5970TIP3   OH239400   2.333   1.794   2.128  0.3418  0.4722  0.7298
 5970TIP3    H139401   2.252   1.770   2.174  1.3809 -0.5271  2.1381
 5970TIP3    H239402   2.320   1.886   2.104 -1.4436  0.1698  0.3451
 5971TIP3   OH239403   3.642   0.008  11.378 -0.5950 -0.0247  0.2312
 5971TIP3    H139404   3.581   0.008  11.304 -0.4978  1.9977  0.0965
 5971TIP3    H239405   3.646   0.099  11.406  0.2976 -0.5545  1.9842
 5972TIP3   OH239406   3.491   0.772   1.805 -0.3659  0.4537 -0.4822
 5972TIP3    H139407   3.466   0.690   1.762 -0.5117 -0.9219  2.0371
 5972TIP3    H239408   3.469   0.840   1.741 -0.3311 -1.4299 -2.6309
 5973TIP3   OH239409   4.991   1.259   4.313  0.2444  0.4074  0.1460
 5973TIP3    H139410   5.059   1.326   4.303 -0.8311  1.6523  0.8027
 5973TIP3    H239411   4.909   1.309   4.317 -0.5478 -0.9197  1.2570
 5974TIP3   OH239412   2.519   3.792  13.945 -0.0457  0.4159 -0.0736
 5974TIP3    H139413   2.613   3.775  13.948 -0.1808 -0.5436 -0.6609
 5974TIP3    H239414   2.485   3.756  14.027  0.3191  2.4418  1.0225
 5975TIP3   OH239415   5.288   3.976  15.110 -0.3030  0.2682  0.1589
 5975TIP3    H139416   5.341   4.046  15.072  0.0938 -0.2162 -0.1990
 5975TIP3    H239417   5.299   3.902  15.049 -1.0171  0.0158  0.3283
 5976TIP3   OH239418   3.073   4.936   0.460  0.4371 -0.1873 -0.4586
 5976TIP3    H139419   3.166   4.922   0.476  0.3188  1.1518  1.7605
 5976TIP3    H239420   3.032   4.851   0.481  0.7690  0.3432  2.8713
 5977TIP3   OH239421   3.196   4.033   1.845 -0.2360  0.0890 -0.0967
 5977TIP3    H139422   3.133   4.012   1.776  1.0327 -2.0206 -0.7054
 5977TIP3    H239423   3.251   4.102   1.807  0.6895 -1.3106 -1.4160
 5978TIP3   OH239424   2.206   0.536  11.231 -0.0274 -0.2036  0.2799
 5978TIP3    H139425   2.275   0.540  11.164  1.3343  1.3422  1.6864
 5978TIP3    H239426   2.232   0.463  11.288  0.1953  0.0687  0.5309
 5979TIP3   OH239427   2.073   2.797   1.072  0.1339  0.1572 -0.4390
 5979TIP3    H139428   1.999   2.750   1.107  0.9684 -0.7598  0.1351
 5979TIP3    H239429   2.099   2.747   0.994  1.2939 -0.6210  0.4195
 5980TIP3   OH239430   5.438   0.098  16.059  0.7384 -0.0131 -0.1166
 5980TIP3    H139431   5.485   0.180  16.072  1.4198 -0.2713 -0.8360
 5980TIP3    H239432   5.407   0.102  15.969 -0.4678  0.0622  0.2924
 5981TIP3   OH239433   5.622   3.018  15.647  0.1815  0.1818 -0.2083
 5981TIP3    H139434   5.571   3.076  15.590 -0.3891 -0.4273 -0.3290
 5981TIP3    H239435   5.709   3.058  15.650 -0.5505  1.7873  0.8029
 5982TIP3   OH239436   3.674   0.450  11.857 -0.5114  0.9640  0.2096
 5982TIP3    H139437   3.676   0.517  11.925  1.3449  0.3230  0.8545
 5982TIP3    H239438   3.765   0.439  11.832 -0.8560 -0.7808 -0.4099
 5983TIP3   OH239439   1.386   3.415   5.835  0.0252  0.1127  0.1211
 5983TIP3    H139440   1.399   3.410   5.741 -3.8442  0.3536 -0.5889
 5983TIP3    H239441   1.410   3.328   5.867 -0.8523 -0.7712 -1.4962
 5984TIP3   OH239442   2.920   1.499   2.405 -0.0420 -0.1424 -0.2713
 5984TIP3    H139443   3.007   1.534   2.424  0.2027 -0.8836  0.0068
 5984TIP3    H239444   2.862   1.575   2.407  0.2963  0.1003  1.3934
 5985TIP3   OH239445   1.090   1.543  12.774  0.7633  0.3177 -0.3372
 5985TIP3    H139446   1.063   1.587  12.854 -1.1435 -1.1388 -0.1139
 5985TIP3    H239447   1.086   1.450  12.794  1.4358 -0.0654 -1.7837
 5986TIP3   OH239448   3.331   4.289  12.007  0.3826 -0.1475 -0.0527
 5986TIP3    H139449   3.287   4.374  12.002  0.2590 -0.1800  0.4387
 5986TIP3    H239450   3.261   4.226  11.989  0.4611 -0.1522 -0.3532
 5987TIP3   OH239451   6.169   6.755   3.165 -0.1605 -0.2150 -0.7892
 5987TIP3    H139452   6.245   6.780   3.113  0.8609 -0.9557  0.3052
 5987TIP3    H239453   6.146   6.833   3.214  1.5977 -0.6884  0.8936
 5988TIP3   OH239454   4.167   6.237   1.027  0.9923  0.0743 -0.7248
 5988TIP3    H139455   4.156   6.280   0.942  0.6731  0.4844 -0.4828
 5988TIP3    H239456   4.227   6.294   1.076  0.8151  0.0866 -0.5154
 5989TIP3   OH239457   4.492   3.613   2.170  0.1765 -0.7213  0.1540
 5989TIP3    H139458   4.424   3.680   2.171 -0.0311 -0.9163  1.7707
 5989TIP3    H239459   4.574   3.661   2.179  0.0822 -0.6329  0.5501
 5990TIP3   OH239460   3.670   2.278   3.304 -0.1499  0.0279 -0.0259
 5990TIP3    H139461   3.637   2.309   3.388  0.1755  0.2188  0.0363
 5990TIP3    H239462   3.624   2.196   3.288  0.4391 -0.4825  0.7776
 5991TIP3   OH239463   6.184   1.527   2.446  0.4286  0.3812 -0.4891
 5991TIP3    H139464   6.192   1.607   2.497 -0.4829  0.5255 -0.5616
 5991TIP3    H239465   6.261   1.527   2.388  1.6939  0.0106  1.1259
 5992TIP3   OH239466   2.078   6.510   2.401 -1.0895  0.1760  0.4508
 5992TIP3    H139467   2.072   6.499   2.306 -0.0416  0.4430  0.3363
 5992TIP3    H239468   2.022   6.585   2.420 -3.3999 -1.4496  0.4175
 5993TIP3   OH239469   5.146   2.796   0.268  1.0647 -0.0293  0.0754
 5993TIP3    H139470   5.216   2.829   0.211  1.0183  0.0050  0.0380
 5993TIP3    H239471   5.125   2.710   0.232  0.3834  0.3852 -0.5324
 5994TIP3   OH239472   6.516   0.416   6.289 -0.4299  0.0168 -0.4816
 5994TIP3    H139473   6.481   0.493   6.243  0.2700 -0.0531 -1.1550
 5994TIP3    H239474   6.555   0.452   6.369 -3.2735 -0.0561  1.0694
 5995TIP3   OH239475   1.410   6.359  16.677  0.1459 -0.7852 -0.4913
 5995TIP3    H139476   1.334   6.301  16.672  0.7216 -1.6079 -0.0765
 5995TIP3    H239477   1.480   6.302  16.709  0.8497  0.0384 -0.5501
 5996TIP3   OH239478   3.407   1.038  11.729  0.6252  0.5440  0.4615
 5996TIP3    H139479   3.423   0.956  11.684 -0.4309  0.3509  0.3989
 5996TIP3    H239480   3.433   1.106  11.666 -3.9968  0.4154 -2.0742
 5997TIP3   OH239481   4.712   2.538   3.127  0.1055  0.1989  0.6490
 5997TIP3    H139482   4.791   2.590   3.112  0.1660  0.1261  0.7167
 5997TIP3    H239483   4.642   2.588   3.084  0.5569 -0.9205 -1.5418
 5998TIP3   OH239484   3.776   6.764  13.160  1.1335 -0.5477  0.3277
 5998TIP3    H139485   3.704   6.820  13.131 -0.2051 -3.1235 -1.7070
 5998TIP3    H239486   3.854   6.803  13.120  0.3343  0.1340 -0.6286
 5999TIP3   OH239487   5.943   0.914   3.413 -0.1181  0.3054 -0.5019
 5999TIP3    H139488   5.962   0.898   3.321  0.2397  1.3405 -0.6219
 5999TIP3    H239489   6.019   0.881   3.460 -0.6006 -0.8596 -0.5056
 6000TIP3   OH239490   0.396   0.755  13.737  0.3426  0.0448 -0.0807
 6000TIP3    H139491   0.332   0.795  13.797 -1.7036 -0.8889 -1.5188
 6000TIP3    H239492   0.363   0.666  13.723  1.4670 -0.1671 -1.6030
 6001TIP3   OH239493   0.794   2.466  12.423 -0.1868  0.0237 -0.1388
 6001TIP3    H139494   0.734   2.540  12.431 -1.6436 -1.0402 -0.7413
 6001TIP3    H239495   0.772   2.427  12.338  0.2370 -1.3366  0.3482
 6002TIP3   OH239496   3.021   2.987   6.242 -0.3968 -0.1770  1.1153
 6002TIP3    H139497   2.975   3.008   6.323 -0.3339 -2.1059  1.6836
 6002TIP3    H239498   3.069   2.907   6.261  2.7066  1.3634  0.3218
 6003TIP3   OH239499   0.288   1.314   5.560 -0.0192  0.2681 -0.2990
 6003TIP3    H139500   0.249   1.359   5.485 -0.2987 -1.1700 -1.0463
 6003TIP3    H239501   0.226   1.329   5.632  0.7601  2.5516 -0.0053
 6004TIP3   OH239502   0.252   0.870   5.173 -0.2538  0.5443 -0.2042
 6004TIP3    H139503   0.188   0.931   5.209  0.0062 -0.0655  1.3408
 6004TIP3    H239504   0.331   0.922   5.160 -0.2166  0.6791  0.5405
 6005TIP3   OH239505   0.878   0.965   1.434  0.8675 -0.1050  0.2316
 6005TIP3    H139506   0.931   0.917   1.498  0.9981 -0.4521 -0.1331
 6005TIP3    H239507   0.903   1.056   1.445  1.2261 -0.2184  0.3576
 6006TIP3   OH239508   4.899   3.578   0.801 -0.0223 -0.3687  0.0077
 6006TIP3    H139509   4.946   3.497   0.785  1.2161 -0.2173  2.4699
 6006TIP3    H239510   4.962   3.634   0.846 -2.0637  0.3975  2.1213
 6007TIP3   OH239511   2.435   2.391  16.098  0.1229  0.5422 -0.2436
 6007TIP3    H139512   2.484   2.438  16.031 -0.6282  1.5196 -0.1246
 6007TIP3    H239513   2.479   2.306  16.106 -0.2728  0.0694 -2.5692
 6008TIP3   OH239514   6.494   6.590   2.919  0.1572  0.3957 -0.1748
 6008TIP3    H139515   6.574   6.537   2.914  0.3204  0.5814  0.4454
 6008TIP3    H239516   6.432   6.534   2.966  0.4222  0.8549  0.7471
 6009TIP3   OH239517   4.836   0.931   4.770  0.6733  0.1784  0.9373
 6009TIP3    H139518   4.894   0.945   4.845  0.6108 -0.0347  1.0263
 6009TIP3    H239519   4.858   1.001   4.709  0.9717  0.1419  1.0036
 6010TIP3   OH239520   4.447   5.030  12.031  0.4184 -0.1108  0.1682
 6010TIP3    H139521   4.409   4.944  12.045 -1.6521  0.7366  0.2175
 6010TIP3    H239522   4.434   5.047  11.938  1.0461  0.0452  0.1076
 6011TIP3   OH239523   5.390   1.664  11.606 -0.6205  0.5011  0.3142
 6011TIP3    H139524   5.336   1.743  11.604 -1.2144  0.1130 -1.9753
 6011TIP3    H239525   5.479   1.697  11.620 -1.2339  1.2370  2.9840
 6012TIP3   OH239526   2.840   2.073  14.640 -0.0190 -0.0015  0.3285
 6012TIP3    H139527   2.873   2.159  14.668  0.3038  1.3110 -3.4809
 6012TIP3    H239528   2.877   2.060  14.553 -3.2264 -2.1527 -0.9222
 6013TIP3   OH239529   1.051   0.177   5.427  0.1333  0.6199  0.5356
 6013TIP3    H139530   1.091   0.107   5.479 -0.4132  0.4672  0.7488
 6013TIP3    H239531   1.113   0.250   5.433  0.2359  0.4844  1.1053
 6014TIP3   OH239532   1.417   6.402   3.387 -0.0919 -0.2495  0.4273
 6014TIP3    H139533   1.369   6.344   3.328 -0.2935 -0.0194  0.3612
 6014TIP3    H239534   1.503   6.362   3.396  0.2718  0.2128 -0.7937
 6015TIP3   OH239535   1.293   0.765   5.325  0.0519 -0.4852  0.3468
 6015TIP3    H139536   1.207   0.802   5.304  0.4339  0.4793  0.4301
 6015TIP3    H239537   1.276   0.704   5.396 -0.9149 -2.0851 -1.1910
 6016TIP3   OH239538   4.117   4.840   3.578 -0.2695 -0.4097  0.6014
 6016TIP3    H139539   4.184   4.773   3.588 -1.5155 -1.7687  0.2143
 6016TIP3    H239540   4.160   4.910   3.529  0.7097 -1.5076 -0.1679
 6017TIP3   OH239541   4.631   0.391  16.819  0.3277  0.1360 -0.3574
 6017TIP3    H139542   4.638   0.339  16.739  0.4661  1.0840 -0.9663
 6017TIP3    H239543   4.537   0.406  16.829  0.4296  3.6120 -2.7517
 6018TIP3   OH239544   1.616   1.188  13.822 -0.2856  0.0225  0.0903
 6018TIP3    H139545   1.622   1.153  13.910 -1.5095 -0.4626 -0.0086
 6018TIP3    H239546   1.560   1.265  13.830 -0.3985 -0.0220 -0.2598
 6019TIP3   OH239547   1.172   4.343   3.876 -0.1629 -0.7431 -0.2117
 6019TIP3    H139548   1.202   4.252   3.871  0.2697 -0.5556 -1.6545
 6019TIP3    H239549   1.227   4.383   3.944  0.9428 -1.1195 -0.8537
 6020TIP3   OH239550   0.774   6.778   4.849 -0.0099 -0.2085  0.1452
 6020TIP3    H139551   0.791   6.846   4.784 -1.0178  0.1680  0.2587
 6020TIP3    H239552   0.861   6.753   4.881  0.3615  2.2224  1.3040
 6021TIP3   OH239553   1.541   1.216   3.034  0.0732 -0.1540  0.0358
 6021TIP3    H139554   1.454   1.256   3.029  0.0439 -0.1547  0.4388
 6021TIP3    H239555   1.598   1.287   3.064  0.0741 -0.3319  0.4747
 6022TIP3   OH239556   4.481   0.143   3.266 -0.3578 -0.5204 -0.0928
 6022TIP3    H139557   4.513   0.087   3.195 -3.9266 -1.5977 -1.0731
 6022TIP3    H239558   4.438   0.082   3.326  0.0389  0.7110  1.4768
 6023TIP3   OH239559   1.448   1.172  15.282 -0.1304  0.2460 -0.4691
 6023TIP3    H139560   1.381   1.207  15.224 -1.1139  0.7398  0.9170
 6023TIP3    H239561   1.529   1.213  15.252 -0.5730  0.2825 -1.6443
 6024TIP3   OH239562   0.180   0.806  13.053 -0.0442 -0.9258 -0.3874
 6024TIP3    H139563   0.229   0.807  13.136  1.6183  0.3718 -1.3123
 6024TIP3    H239564   0.154   0.715  13.042  4.3691 -2.3437 -0.9969
 6025TIP3   OH239565   0.556   2.827   4.013  1.2678  0.3950  0.5060
 6025TIP3    H139566   0.608   2.786   3.943  1.1071  2.0008 -0.6186
 6025TIP3    H239567   0.477   2.774   4.019  1.6954 -0.2998  0.0928
 6026TIP3   OH239568   3.706   0.611  13.349 -0.0590  0.1365 -0.5285
 6026TIP3    H139569   3.697   0.701  13.381 -0.8079  0.0048 -0.3408
 6026TIP3    H239570   3.745   0.563  13.423  1.2700  0.4921 -0.9681
 6027TIP3   OH239571   6.293   6.216   5.720  0.1325 -0.4060  0.0763
 6027TIP3    H139572   6.214   6.264   5.741 -0.0844 -1.5995  2.2193
 6027TIP3    H239573   6.331   6.264   5.646 -1.8923  0.9213 -0.1808
 6028TIP3   OH239574   1.243   6.088  12.257 -0.1672 -0.3004  0.4772
 6028TIP3    H139575   1.181   6.128  12.318  0.1816  0.0377  0.6121
 6028TIP3    H239576   1.322   6.142  12.264 -0.1228 -0.2626 -0.2674
 6029TIP3   OH239577   0.627   3.559   3.265 -0.3012 -0.1444  0.2125
 6029TIP3    H139578   0.550   3.516   3.301 -1.0744  0.6736 -0.4146
 6029TIP3    H239579   0.642   3.634   3.323  1.7892 -1.8506  2.0458
 6030TIP3   OH239580   6.205   3.000   1.840 -0.3353 -0.6676 -0.2608
 6030TIP3    H139581   6.147   2.993   1.764 -0.0655  0.9359 -0.6461
 6030TIP3    H239582   6.150   3.038   1.908 -0.3760 -1.4349  0.1527
 6031TIP3   OH239583   5.570   2.533   4.865 -0.0717  0.1258 -0.0991
 6031TIP3    H139584   5.596   2.592   4.794  0.0790 -1.0050 -1.0095
 6031TIP3    H239585   5.647   2.480   4.882 -0.1213  0.3554  0.8998
 6032TIP3   OH239586   2.642   4.926   2.503  0.0067 -0.0253  0.0947
 6032TIP3    H139587   2.678   4.878   2.577  0.1931  0.0858  0.0766
 6032TIP3    H239588   2.605   4.858   2.446  1.2794 -0.2566 -0.4855
 6033TIP3   OH239589   2.984   0.595  12.234 -0.0132 -0.3926  0.1903
 6033TIP3    H139590   3.069   0.622  12.267  0.1119 -0.9549  0.3440
 6033TIP3    H239591   2.922   0.658  12.270  0.6115  1.6356 -2.0190
 6034TIP3   OH239592   1.877   4.780  14.894  0.1746  0.6501  0.0115
 6034TIP3    H139593   1.805   4.717  14.885  0.0850  0.9220 -1.5399
 6034TIP3    H239594   1.938   4.739  14.954 -0.8544  0.0164  0.6591
 6035TIP3   OH239595   0.879   1.927   4.194 -0.1049 -0.2968 -0.1730
 6035TIP3    H139596   0.803   1.969   4.153  1.7649  2.7853 -0.8435
 6035TIP3    H239597   0.949   1.935   4.129  0.9906 -2.5753  0.6251
 6036TIP3   OH239598   5.250   0.068   3.645 -0.3577 -0.3001 -0.3748
 6036TIP3    H139599   5.284   0.034   3.562  0.0525 -0.1245 -0.2802
 6036TIP3    H239600   5.215   0.154   3.623 -0.4409 -0.3416 -0.4061
 6037TIP3   OH239601   5.875   1.814   2.576 -0.0154 -0.3609  0.2928
 6037TIP3    H139602   5.969   1.830   2.576 -0.1679  0.5761  0.7631
 6037TIP3    H239603   5.861   1.753   2.503  1.2947 -2.6049  1.7823
 6038TIP3   OH239604   5.904   5.648   2.387  0.3280  0.7185 -0.0895
 6038TIP3    H139605   5.950   5.564   2.377 -0.0377  0.6656 -1.7048
 6038TIP3    H239606   5.811   5.624   2.383  0.2180  1.1498 -0.0986
 6039TIP3   OH239607   4.157   1.063  13.902  0.0189 -0.1829  0.1352
 6039TIP3    H139608   4.075   1.111  13.899 -0.4537 -0.9918 -0.2500
 6039TIP3    H239609   4.133   0.973  13.880  1.2748 -0.0489 -2.0771
 6040TIP3   OH239610   4.535   5.654  12.094  0.0962  0.2591 -0.3380
 6040TIP3    H139611   4.454   5.637  12.045  0.2942  0.4131 -0.7163
 6040TIP3    H239612   4.506   5.660  12.185 -0.3591  0.5781 -0.5011
 6041TIP3   OH239613   3.881   3.714  13.221 -0.0828  0.5874  0.0015
 6041TIP3    H139614   3.950   3.653  13.248 -1.2402 -0.2415  1.2687
 6041TIP3    H239615   3.870   3.772  13.296 -0.5952  0.8423 -0.2629
 6042TIP3   OH239616   6.233   3.641   5.863  0.0313 -0.4296 -0.5047
 6042TIP3    H139617   6.265   3.551   5.855 -1.3001 -0.9082 -0.6133
 6042TIP3    H239618   6.138   3.633   5.865 -0.1395  1.0243 -1.1811
 6043TIP3   OH239619   5.291   4.314  15.128  0.3764  0.2991  0.1066
 6043TIP3    H139620   5.375   4.348  15.099  1.3178  0.2321  2.5266
 6043TIP3    H239621   5.295   4.318  15.224 -1.5854 -1.5786  0.3513
 6044TIP3   OH239622   5.651   2.216  12.021 -0.1583  0.2364  0.1840
 6044TIP3    H139623   5.683   2.305  12.011 -1.5187  0.5992 -1.3956
 6044TIP3    H239624   5.615   2.212  12.110  1.2362  0.7819  0.7958
 6045TIP3   OH239625   0.837   3.630  11.893 -0.2774 -0.2552  0.5899
 6045TIP3    H139626   0.824   3.570  11.967  2.1171 -1.9661 -0.2297
 6045TIP3    H239627   0.930   3.652  11.897 -0.3136  0.4230 -1.3222
 6046TIP3   OH239628   5.015   4.316  11.329 -0.1464  0.0529  0.2956
 6046TIP3    H139629   5.018   4.321  11.233  1.1032  2.6274  0.3923
 6046TIP3    H239630   5.095   4.270  11.353 -0.2291 -0.1834  0.1186
 6047TIP3   OH239631   2.909   6.240   5.927 -0.5357 -0.0974  0.1893
 6047TIP3    H139632   2.917   6.304   5.997 -2.3351  1.0782 -0.5893
 6047TIP3    H239633   2.980   6.262   5.866 -1.4624  1.6300 -0.3594
 6048TIP3   OH239634   0.456   5.443   2.197  0.6501 -0.3054 -0.4671
 6048TIP3    H139635   0.500   5.383   2.136  0.5234 -0.1626 -0.7037
 6048TIP3    H239636   0.416   5.386   2.263  2.1728 -0.3838  0.4298
 6049TIP3   OH239637   2.090   4.195  11.651 -0.2277 -0.2500 -0.2220
 6049TIP3    H139638   2.022   4.233  11.706 -1.7369 -2.2430 -0.5728
 6049TIP3    H239639   2.043   4.165  11.573  1.5474  0.8454 -1.7922
 6050TIP3   OH239640   1.019   4.470   5.740 -0.4275  0.1723  0.1457
 6050TIP3    H139641   1.021   4.556   5.699  0.2466  0.0463 -0.1050
 6050TIP3    H239642   1.011   4.409   5.667  0.8595 -0.0576  0.1780
 6051TIP3   OH239643   6.735   3.614   2.712  0.3534  0.3037 -0.3431
 6051TIP3    H139644   6.754   3.538   2.766 -0.2757  0.7828  0.5827
 6051TIP3    H239645   6.724   3.579   2.624 -2.2462 -1.0613  0.4249
 6052TIP3   OH239646   1.424   0.144   2.583 -0.3295  0.2172 -0.2111
 6052TIP3    H139647   1.395   0.058   2.554 -0.3925  0.2441 -0.2283
 6052TIP3    H239648   1.466   0.128   2.668 -1.2138  0.2961  0.2584
 6053TIP3   OH239649   0.064   5.930  13.989  0.2916 -0.1443 -0.6130
 6053TIP3    H139650   0.130   5.997  13.971  1.9901 -2.1969 -2.5632
 6053TIP3    H239651   0.110   5.864  14.040 -0.8322 -0.7076 -0.2891
 6054TIP3   OH239652   4.086   1.533  12.338  0.2005  0.1842  0.0225
 6054TIP3    H139653   4.045   1.488  12.264 -0.0615 -0.1120  0.3431
 6054TIP3    H239654   4.034   1.613  12.349 -0.0850 -0.0240  0.2116
 6055TIP3   OH239655   0.079   4.863   6.221  0.7101 -0.2904  0.1331
 6055TIP3    H139656   0.078   4.936   6.282 -1.1065 -0.1667 -0.0053
 6055TIP3    H239657   0.167   4.825   6.231  1.7158  1.8823  0.1780
 6056TIP3   OH239658   1.364   3.301   3.735  0.6294 -0.5789  0.7592
 6056TIP3    H139659   1.278   3.267   3.709 -0.4456  2.0138  0.5613
 6056TIP3    H239660   1.412   3.311   3.653 -0.0411  0.7227  0.4855
 6057TIP3   OH239661   1.687   1.197  14.951 -0.1151  0.1818  0.4655
 6057TIP3    H139662   1.722   1.115  14.986 -0.9359 -0.3141  0.1556
 6057TIP3    H239663   1.654   1.174  14.864 -0.4693  0.8176  0.4216
 6058TIP3   OH239664   0.877   3.431   3.552  0.3039  0.2016  0.5333
 6058TIP3    H139665   0.905   3.438   3.643  0.4649  2.5564  0.3574
 6058TIP3    H239666   0.798   3.485   3.547  0.2171 -0.0154 -0.7075
 6059TIP3   OH239667   6.035   1.136  15.278 -0.2212 -0.3802  0.5020
 6059TIP3    H139668   6.090   1.096  15.211  0.3575  0.5035  0.4292
 6059TIP3    H239669   6.044   1.230  15.263 -1.6920 -0.2157  0.5472
 6060TIP3   OH239670   6.623   2.367   4.151 -0.7147  0.0278 -0.2208
 6060TIP3    H139671   6.641   2.375   4.244 -1.6997 -1.7284  0.1643
 6060TIP3    H239672   6.549   2.306   4.146 -1.1693  0.6586 -2.1113
 6061TIP3   OH239673   1.774   5.360  15.768  0.4433  0.0629 -0.2946
 6061TIP3    H139674   1.807   5.333  15.853  2.5637 -1.7387 -1.5527
 6061TIP3    H239675   1.770   5.279  15.717  0.8139  1.2598 -2.3745
 6062TIP3   OH239676   4.749   5.419   3.902  0.7328  0.4917  0.6274
 6062TIP3    H139677   4.751   5.438   3.809 -1.0480  0.7723  0.6169
 6062TIP3    H239678   4.759   5.324   3.907 -0.8677  0.2596  0.0125
 6063TIP3   OH239679   0.895   2.851  17.080 -0.3199 -0.3357 -0.3203
 6063TIP3    H139680   0.835   2.798  17.132 -1.2479  1.0834  0.1066
 6063TIP3    H239681   0.859   2.848  16.991 -0.9503  0.3664 -0.1013
 6064TIP3   OH239682   3.626   0.124   3.547  0.2376  0.3640 -0.1687
 6064TIP3    H139683   3.684   0.158   3.616 -1.6241  1.0260  1.1387
 6064TIP3    H239684   3.682   0.065   3.496  1.9379  0.6161  1.3092
 6065TIP3   OH239685   2.366   3.942  13.289 -0.3146  0.5900  0.5900
 6065TIP3    H139686   2.271   3.946  13.281 -0.3698  2.1186  1.4728
 6065TIP3    H239687   2.381   3.903  13.375 -0.0995 -0.8310 -0.0749
 6066TIP3   OH239688   0.000   4.804  16.208 -0.2878 -0.4878 -0.0534
 6066TIP3    H139689   0.000   4.820  16.303 -1.2783 -1.1437  0.0743
 6066TIP3    H239690  -0.045   4.879  16.170  0.8761  0.2056 -0.1028
 6067TIP3   OH239691   5.995   5.391  12.771  0.4298  0.0033  0.0791
 6067TIP3    H139692   5.986   5.312  12.825  1.9979  0.7591  1.5636
 6067TIP3    H239693   6.084   5.385  12.735  0.5683  1.0691  0.2086
 6068TIP3   OH239694   0.666   5.999   0.982  1.1347 -0.4849 -0.0836
 6068TIP3    H139695   0.731   5.956   0.927  1.8889 -0.6990  0.9463
 6068TIP3    H239696   0.627   5.928   1.034  0.7954 -0.2196  0.0307
 6069TIP3   OH239697   2.884   5.600  12.364  0.8791 -0.5290 -0.8110
 6069TIP3    H139698   2.938   5.559  12.432  1.2646  0.4388 -0.5261
 6069TIP3    H239699   2.821   5.532  12.340  1.3977 -1.2347 -0.2271
 6070TIP3   OH239700   3.695   3.621  10.551  0.1671 -0.2615  0.3809
 6070TIP3    H139701   3.659   3.624  10.640 -0.3466  2.0954  0.1710
 6070TIP3    H239702   3.788   3.603  10.563  0.1149  0.0702  1.4261
 6071TIP3   OH239703   1.871   2.306   2.925  0.1441  0.5279 -0.3193
 6071TIP3    H139704   1.789   2.282   2.969  0.0602  1.9135  0.3243
 6071TIP3    H239705   1.940   2.270   2.980  0.0224  1.8142  0.7252
 6072TIP3   OH239706   5.310   4.800   4.644  0.4064  0.7590 -0.1386
 6072TIP3    H139707   5.363   4.852   4.704 -0.7415  0.0458  1.5686
 6072TIP3    H239708   5.286   4.722   4.694  1.0345 -0.8393 -2.2099
 6073TIP3   OH239709   3.479   6.563   4.503  0.0338  0.0677 -0.2192
 6073TIP3    H139710   3.426   6.623   4.555  0.8360  1.6376 -1.1159
 6073TIP3    H239711   3.425   6.542   4.428  0.3286  0.9955 -0.7108
 6074TIP3   OH239712   1.098   0.762   3.821 -0.5524 -0.4593 -0.1213
 6074TIP3    H139713   1.142   0.694   3.770  1.0588  1.0280 -0.8155
 6074TIP3    H239714   1.021   0.785   3.768 -1.1964 -1.7775  0.1901
 6075TIP3   OH239715   4.811   4.707  12.348 -0.1979 -0.1619 -0.2332
 6075TIP3    H139716   4.787   4.645  12.417 -1.4798 -1.1972 -1.5437
 6075TIP3    H239717   4.762   4.786  12.370 -0.6464 -0.5018  0.0178
 6076TIP3   OH239718   5.822   0.923   1.670 -0.2502 -0.0850 -0.1003
 6076TIP3    H139719   5.787   0.943   1.757  0.2857  0.2763  0.0419
 6076TIP3    H239720   5.886   0.992   1.654  2.1199 -1.9428  0.6553
 6077TIP3   OH239721   0.094   1.826   3.030 -0.7172  0.5726 -0.3962
 6077TIP3    H139722   0.010   1.870   3.018 -1.0672 -0.1592 -0.6928
 6077TIP3    H239723   0.124   1.808   2.941  0.0541  1.3675 -0.3105
 6078TIP3   OH239724   1.446   4.414  13.352 -0.2429 -0.0207  0.0224
 6078TIP3    H139725   1.372   4.436  13.296 -0.5544  0.0589  0.4682
 6078TIP3    H239726   1.410   4.359  13.421  0.6033 -2.4782 -1.3664
 6079TIP3   OH239727   1.982   1.484   3.126 -0.0258 -0.0491  0.3163
 6079TIP3    H139728   1.941   1.420   3.185  2.3935 -0.9317  1.1723
 6079TIP3    H239729   2.063   1.442   3.098 -0.5114  0.8067 -2.8416
 6080TIP3   OH239730   5.631   6.158  13.096  0.1258  0.3608 -0.5877
 6080TIP3    H139731   5.563   6.207  13.050  0.2052  0.3815 -0.6796
 6080TIP3    H239732   5.645   6.080  13.043  0.0695  0.2851 -0.4922
 6081TIP3   OH239733   5.900   0.413   0.278 -0.3063 -0.6306 -0.3005
 6081TIP3    H139734   5.955   0.471   0.226  0.8300 -0.2378  1.2613
 6081TIP3    H239735   5.931   0.325   0.255  0.1900 -0.4606 -0.3101
 6082TIP3   OH239736   6.464   5.938   3.635  0.1556 -1.3540 -0.2000
 6082TIP3    H139737   6.556   5.936   3.612  0.7756 -1.4880  2.0218
 6082TIP3    H239738   6.459   5.998   3.710 -1.2663 -2.5791  0.7604
 6083TIP3   OH239739   1.632   6.148  13.676 -0.4252  0.3010  0.3048
 6083TIP3    H139740   1.607   6.202  13.751  0.9276  1.5032 -0.0820
 6083TIP3    H239741   1.679   6.074  13.715 -1.5650 -0.2158  0.7674
 6084TIP3   OH239742   2.724   1.350  10.583 -0.1988 -0.4089  0.6050
 6084TIP3    H139743   2.726   1.296  10.505  0.7550  0.2386  0.1630
 6084TIP3    H239744   2.739   1.289  10.655  0.7447 -0.7559  0.1259
 6085TIP3   OH239745   1.911   1.908  14.924  0.1113 -0.0123 -0.3361
 6085TIP3    H139746   1.975   1.873  14.862  0.2295 -0.5043  0.0616
 6085TIP3    H239747   1.959   1.913  15.007  0.2317  1.5050 -0.4724
 6086TIP3   OH239748   4.259   0.548  11.810  0.2307 -0.0874 -0.4628
 6086TIP3    H139749   4.347   0.555  11.847 -0.2103  0.0522  0.5966
 6086TIP3    H239750   4.211   0.496  11.874 -0.2980 -0.7062 -1.3436
 6087TIP3   OH239751   0.503   0.082   2.167 -0.1115 -0.3435 -0.2097
 6087TIP3    H139752   0.493   0.136   2.088  0.2074  1.1168  0.6999
 6087TIP3    H239753   0.414   0.053   2.188 -0.2880 -0.1918 -0.7442
 6088TIP3   OH239754   2.201   1.820  12.918  0.4982 -0.2787 -0.1716
 6088TIP3    H139755   2.174   1.907  12.890  1.2428  0.4877  1.3772
 6088TIP3    H239756   2.297   1.823  12.918  0.5312 -0.6543  1.1300
 6089TIP3   OH239757   0.204   4.259   3.929 -0.5089  0.1991  0.6872
 6089TIP3    H139758   0.273   4.326   3.934 -0.5938  0.4343 -0.9773
 6089TIP3    H239759   0.149   4.277   4.006 -0.2957  1.7756  0.5167
 6090TIP3   OH239760   1.829   3.686  11.649  0.0703 -0.4772 -0.5153
 6090TIP3    H139761   1.917   3.710  11.619  0.4389  1.0637  1.5288
 6090TIP3    H239762   1.836   3.687  11.745 -1.9886 -1.1029 -0.3215
 6091TIP3   OH239763   2.889   4.733   6.029 -0.1029  0.3148 -0.3091
 6091TIP3    H139764   2.808   4.784   6.022 -1.0850 -1.2435 -0.8525
 6091TIP3    H239765   2.924   4.756   6.115 -0.9060  1.3300 -0.2325
 6092TIP3   OH239766   1.561   4.627   0.366  0.1225  0.1819  0.2650
 6092TIP3    H139767   1.522   4.610   0.280 -1.6417  0.7347  0.9060
 6092TIP3    H239768   1.569   4.723   0.370 -0.4176  0.2085  0.9478
 6093TIP3   OH239769   5.601   3.443  13.332  0.4669 -0.7545  0.6221
 6093TIP3    H139770   5.507   3.429  13.319  0.4178  0.2841 -0.2580
 6093TIP3    H239771   5.606   3.525  13.382  0.9136 -0.3078 -0.1290
 6094TIP3   OH239772   1.790   2.605  13.006 -0.0445  0.1200  0.4451
 6094TIP3    H139773   1.768   2.590  13.097  1.1505 -1.9588  0.4513
 6094TIP3    H239774   1.884   2.623  13.007  0.3059 -1.4758 -0.4774
 6095TIP3   OH239775   2.171   0.282  13.066  0.8342 -0.0068  0.0756
 6095TIP3    H139776   2.200   0.252  13.152 -0.2672 -0.7057  0.2180
 6095TIP3    H239777   2.085   0.243  13.054  0.2670  1.3891 -0.6627
 6096TIP3   OH239778   3.921   3.504  16.119 -0.3187 -0.5339  0.4077
 6096TIP3    H139779   3.938   3.410  16.124  0.5419 -0.4145 -0.1499
 6096TIP3    H239780   3.907   3.521  16.026 -1.3758 -0.2550  0.6056
 6097TIP3   OH239781   5.040   3.597   0.441  0.4425  0.1140 -0.2107
 6097TIP3    H139782   5.022   3.623   0.350 -0.8670 -1.4215 -0.4341
 6097TIP3    H239783   4.956   3.564   0.473 -0.3692  4.3304  2.9912
 6098TIP3   OH239784   6.318   5.197   6.421 -0.4007  0.1955  0.1271
 6098TIP3    H139785   6.243   5.138   6.414 -2.1354  2.2713  0.5874
 6098TIP3    H239786   6.391   5.139   6.445 -1.9006 -1.8276  0.0593
 6099TIP3   OH239787   0.572   4.817   0.372 -0.1975  0.2969  0.6123
 6099TIP3    H139788   0.597   4.758   0.301 -1.0571 -1.0461  1.3740
 6099TIP3    H239789   0.504   4.872   0.335 -0.0324  0.1902  0.1443
 6100TIP3   OH239790   4.159   4.195   6.596  0.2739 -0.4948 -0.3234
 6100TIP3    H139791   4.149   4.105   6.626 -0.6785 -0.7720 -1.3966
 6100TIP3    H239792   4.077   4.214   6.550  0.0616  1.2525  0.6849
 6101TIP3   OH239793   6.297   0.956   5.725 -0.4748 -0.1943  0.3937
 6101TIP3    H139794   6.327   0.990   5.809 -3.0655  1.0289  0.9336
 6101TIP3    H239795   6.352   0.879   5.709  0.0411 -0.5499  3.2813
 6102TIP3   OH239796   2.702   2.029   2.063 -0.2104  0.2566  0.0734
 6102TIP3    H139797   2.633   2.047   2.000 -0.1502 -0.6182 -0.2613
 6102TIP3    H239798   2.753   1.958   2.023  1.9447  2.0421 -0.4912
 6103TIP3   OH239799   3.475   6.599  11.244 -0.3798 -0.0527 -0.3271
 6103TIP3    H139800   3.463   6.509  11.274  1.0131 -0.2885 -0.4212
 6103TIP3    H239801   3.532   6.592  11.168  0.6283  0.9661  0.3003
 6104TIP3   OH239802   1.727   2.473   2.214  0.4458  0.3077  0.4259
 6104TIP3    H139803   1.800   2.522   2.175  0.6327  0.4771  0.9775
 6104TIP3    H239804   1.674   2.540   2.258  1.3366 -0.0935  2.1893
 6105TIP3   OH239805   2.666   2.206   1.300 -0.3536  0.1767 -0.2885
 6105TIP3    H139806   2.736   2.186   1.237  0.6182  0.3572  0.6986
 6105TIP3    H239807   2.615   2.274   1.258 -0.5685 -0.6803 -1.4725
 6106TIP3   OH239808   0.494   6.682  13.981  0.1652 -0.1424 -0.3830
 6106TIP3    H139809   0.438   6.610  13.954 -0.0104  0.5137 -1.8797
 6106TIP3    H239810   0.559   6.642  14.039 -0.6012 -1.2801 -0.2855
 6107TIP3   OH239811   0.836   4.702   6.304  0.0447  0.6896  0.1772
 6107TIP3    H139812   0.846   4.654   6.386 -0.6287 -1.4838 -0.9538
 6107TIP3    H239813   0.759   4.757   6.318 -1.4295 -1.3066  0.3093
 6108TIP3   OH239814   2.439   5.456   2.844 -0.2523  0.5524 -0.3720
 6108TIP3    H139815   2.503   5.463   2.915  0.3889  0.8067 -0.9684
 6108TIP3    H239816   2.491   5.441   2.765 -0.9603  0.2446 -0.7928
 6109TIP3   OH239817   5.353   1.851   1.581  0.1070 -0.1912 -0.3118
 6109TIP3    H139818   5.363   1.939   1.547 -0.8392  0.3185  0.6562
 6109TIP3    H239819   5.439   1.810   1.570  0.2659  0.4811 -1.7520
 6110TIP3   OH239820   1.003   2.763  12.384 -0.5010  0.4999 -0.4375
 6110TIP3    H139821   0.952   2.844  12.396 -1.6399 -0.2869  0.1977
 6110TIP3    H239822   1.026   2.737  12.473 -0.0065  0.1880 -0.6543
 6111TIP3   OH239823   6.348   3.544   3.216  0.6903 -0.3268 -0.5960
 6111TIP3    H139824   6.311   3.484   3.151 -1.1187 -0.6924  0.6801
 6111TIP3    H239825   6.313   3.513   3.299  1.4074  1.2683  0.3458
 6112TIP3   OH239826   5.390   5.677   4.452  0.1609  0.2098 -0.3039
 6112TIP3    H139827   5.333   5.612   4.411 -1.8150  1.1950  0.7479
 6112TIP3    H239828   5.443   5.711   4.379 -0.7480 -0.5942 -1.3804
 6113TIP3   OH239829   3.339   6.788   5.186 -0.3207  0.0744 -0.4963
 6113TIP3    H139830   3.254   6.765   5.148 -0.8255 -0.0534  0.6699
 6113TIP3    H239831   3.343   6.740   5.268  0.5488  0.6839 -0.1626
 6114TIP3   OH239832   0.917   4.492   5.057 -0.0953 -0.2839 -0.2613
 6114TIP3    H139833   0.990   4.488   4.996 -0.1267  0.3461 -0.3525
 6114TIP3    H239834   0.886   4.583   5.052  0.4571  0.0361  1.3264
 6115TIP3   OH239835   3.354   0.919  15.607 -0.0715 -0.8838 -0.4377
 6115TIP3    H139836   3.389   0.876  15.529 -2.4634  2.4579 -3.6662
 6115TIP3    H239837   3.423   0.979  15.634  0.2879 -1.1428 -0.7622
 6116TIP3   OH239838   2.360   1.813  17.362 -0.1627 -0.8890  0.2278
 6116TIP3    H139839   2.322   1.861  17.436  1.7208  0.0527  0.6558
 6116TIP3    H239840   2.323   1.856  17.285 -1.9196 -1.6909  0.5552
 6117TIP3   OH239841   5.589   4.047  16.370  0.2876  0.2733  0.3345
 6117TIP3    H139842   5.607   3.954  16.377  1.5928  0.4995  0.3797
 6117TIP3    H239843   5.611   4.070  16.280  2.6421  0.9959  0.9998
 6118TIP3   OH239844   4.411   5.274  13.021 -0.3847  0.3973 -0.2089
 6118TIP3    H139845   4.504   5.291  13.005 -0.2368 -1.1239 -1.1044
 6118TIP3    H239846   4.374   5.361  13.036  1.1920  1.0230  0.2954
 6119TIP3   OH239847   4.366   6.019  16.502  0.2052 -0.0174 -0.1353
 6119TIP3    H139848   4.273   5.997  16.493  0.3815 -0.0603 -2.7757
 6119TIP3    H239849   4.410   5.934  16.501  0.2826 -0.0971  2.5792
 6120TIP3   OH239850   5.357   6.570  16.853 -0.1014  0.0458 -0.0614
 6120TIP3    H139851   5.291   6.638  16.837 -1.2753 -0.2567  2.8178
 6120TIP3    H239852   5.357   6.559  16.948  4.2218  0.0506  0.1245
 6121TIP3   OH239853   3.162   2.124  14.646  0.1606  0.4155  0.7706
 6121TIP3    H139854   3.204   2.177  14.578 -1.3578  1.5459  0.6616
 6121TIP3    H239855   3.153   2.037  14.606  2.3606  0.0911  0.8230
 6122TIP3   OH239856   3.264   3.023  11.958 -0.2693  0.2526  0.0509
 6122TIP3    H139857   3.170   3.017  11.939 -0.4378  0.3833  0.7871
 6122TIP3    H239858   3.279   3.116  11.974  0.6259  0.7419 -3.0759
 6123TIP3   OH239859   4.989   1.490  16.890  0.2352  0.2923  0.1806
 6123TIP3    H139860   4.969   1.573  16.933 -0.6613 -0.6020  1.5434
 6123TIP3    H239861   4.975   1.423  16.957  1.6495 -0.9279 -0.6692
 6124TIP3   OH239862   2.687   2.769   6.923 -0.4267 -0.2863 -0.0049
 6124TIP3    H139863   2.781   2.754   6.928 -0.5025 -1.4285 -1.5429
 6124TIP3    H239864   2.678   2.852   6.875 -0.2239 -0.3483 -0.1469
 6125TIP3   OH239865   3.648   3.886  12.665  0.8938 -0.3930  0.1863
 6125TIP3    H139866   3.638   3.867  12.572 -0.2677 -0.2227  0.2607
 6125TIP3    H239867   3.732   3.933  12.671  0.9365 -0.3267 -0.7793
 6126TIP3   OH239868   0.250   3.983   4.548 -0.3130 -0.8699  0.1627
 6126TIP3    H139869   0.156   4.000   4.548  0.0001  1.0557 -0.3224
 6126TIP3    H239870   0.288   4.060   4.590  1.2458 -0.3416 -2.0952
 6127TIP3   OH239871   5.992   5.206   5.409  0.5124 -0.0434  0.5110
 6127TIP3    H139872   6.014   5.124   5.366  0.3723 -0.5234  1.3218
 6127TIP3    H239873   5.899   5.199   5.430  0.4425  0.4222  0.3699
 6128TIP3   OH239874   1.762   4.098  11.397  0.4057  0.0680  0.2142
 6128TIP3    H139875   1.825   4.124  11.331 -0.3491 -0.5682 -0.7781
 6128TIP3    H239876   1.783   4.007  11.416  0.8052  0.3284  1.0901
 6129TIP3   OH239877   1.711   3.981   4.906 -0.2560  1.0072  0.1864
 6129TIP3    H139878   1.789   3.928   4.926 -0.0333 -0.3892 -3.5178
 6129TIP3    H239879   1.649   3.918   4.870 -1.8863  2.6151  0.0891
 6130TIP3   OH239880   4.223   1.173   1.874  0.4189 -0.2193 -0.4814
 6130TIP3    H139881   4.136   1.155   1.836  0.0371  0.5937 -0.0129
 6130TIP3    H239882   4.271   1.092   1.861 -1.2081 -1.5969  1.4777
 6131TIP3   OH239883   2.291   3.405  16.126  0.2534 -0.3891  0.0662
 6131TIP3    H139884   2.312   3.324  16.079  0.6555 -0.7960  0.9107
 6131TIP3    H239885   2.197   3.418  16.111  0.3549 -0.5615 -0.7502
 6132TIP3   OH239886   2.016   2.013   3.500 -0.3172  0.0298  0.0682
 6132TIP3    H139887   2.053   2.096   3.529 -1.7282 -0.4212  3.5525
 6132TIP3    H239888   1.941   2.038   3.446 -1.4168  1.1080  1.9996
 6133TIP3   OH239889   1.800   2.970   4.028 -0.0663  0.2620 -0.2144
 6133TIP3    H139890   1.798   2.921   3.946  0.1846  1.9864 -1.3072
 6133TIP3    H239891   1.766   3.057   4.005  1.6884  1.3601  1.0901
 6134TIP3   OH239892   1.712   5.009   4.085 -1.0565 -0.3293  0.0213
 6134TIP3    H139893   1.652   4.970   4.148 -0.4194 -1.7671 -0.2184
 6134TIP3    H239894   1.679   4.981   4.000 -0.5656 -0.3867 -0.1567
 6135TIP3   OH239895   3.880   2.181   3.632 -0.0913 -0.0729  0.3204
 6135TIP3    H139896   3.915   2.155   3.717  1.0440 -0.0767 -0.1336
 6135TIP3    H239897   3.818   2.112   3.609  0.4015 -0.6298  0.6521
 6136TIP3   OH239898   1.881   0.554   3.458  0.5236  0.1629  0.9704
 6136TIP3    H139899   1.883   0.581   3.366 -0.4648 -0.1938  0.8318
 6136TIP3    H239900   1.837   0.469   3.457  1.0523 -0.1283  1.7143
 6137TIP3   OH239901   2.150   6.163   0.061  0.6707 -0.5192  0.3134
 6137TIP3    H139902   2.085   6.145  -0.007  1.1800 -0.7768 -0.1098
 6137TIP3    H239903   2.184   6.249   0.040  0.3123 -0.2905  0.6626
 6138TIP3   OH239904   6.620   0.675  14.317  0.1467  0.0194 -0.5040
 6138TIP3    H139905   6.693   0.617  14.334  0.4836  0.7877  0.7768
 6138TIP3    H239906   6.566   0.671  14.396 -3.4522 -3.5673 -2.7513
 6139TIP3   OH239907   0.074   5.193   2.565 -0.1142 -0.0523  0.4580
 6139TIP3    H139908   0.008   5.239   2.514  0.2945  0.1123  0.0680
 6139TIP3    H239909   0.151   5.250   2.563  0.2413 -0.5228  0.3827
 6140TIP3   OH239910   4.077   6.059  13.582  0.1269 -0.2363 -0.0767
 6140TIP3    H139911   4.127   6.140  13.596  0.1814 -0.1985 -0.4769
 6140TIP3    H239912   4.052   6.031  13.670 -0.8402  0.8088  0.0065
 6141TIP3   OH239913   4.524   5.626  11.118 -0.1746 -0.5781 -0.5051
 6141TIP3    H139914   4.590   5.619  11.186 -0.1811 -1.1177 -0.5511
 6141TIP3    H239915   4.499   5.535  11.099 -0.3192 -0.4240 -1.0795
 6142TIP3   OH239916   2.728   5.768   1.179  0.1335 -0.2212 -0.5704
 6142TIP3    H139917   2.709   5.703   1.246  0.1617  0.4135  0.0654
 6142TIP3    H239918   2.643   5.799   1.150  0.1078 -0.8123 -1.1609
 6143TIP3   OH239919   6.135   6.310  12.339  0.3811  0.1464  0.1862
 6143TIP3    H139920   6.168   6.384  12.389  0.1401  0.1182  0.3871
 6143TIP3    H239921   6.074   6.348  12.277 -1.2337 -0.0690  1.5660
 6144TIP3   OH239922   4.744   4.174   5.661  0.0906 -0.4149  0.1931
 6144TIP3    H139923   4.780   4.180   5.572  2.1604  2.1828  1.0426
 6144TIP3    H239924   4.819   4.149   5.715 -0.4444  0.6465  1.4923
 6145TIP3   OH239925   5.127   6.423   1.158 -0.0170 -0.0928  0.7546
 6145TIP3    H139926   5.216   6.441   1.127 -0.1582 -0.0099  0.3949
 6145TIP3    H239927   5.112   6.332   1.133 -0.4457  0.2293 -0.1823
 6146TIP3   OH239928   1.754   1.600   1.930  0.2228 -0.5018  0.1330
 6146TIP3    H139929   1.776   1.646   2.011  1.1046 -1.5501  0.5268
 6146TIP3    H239930   1.713   1.666   1.874  0.3121  0.4271  1.1376
 6147TIP3   OH239931   0.518   6.245   0.679 -0.2369 -0.1505 -0.1508
 6147TIP3    H139932   0.599   6.266   0.725  0.3290  0.5362 -1.4299
 6147TIP3    H239933   0.513   6.149   0.681  0.3392 -0.1719  0.3726
 6148TIP3   OH239934   3.192   4.637   6.413 -0.1981  0.0685  0.1623
 6148TIP3    H139935   3.257   4.694   6.453 -0.3924  0.9690 -0.7772
 6148TIP3    H239936   3.123   4.696   6.381 -1.2866 -0.8256  0.7545
 6149TIP3   OH239937   1.711   3.410  13.842 -0.5973 -0.0452  0.1518
 6149TIP3    H139938   1.801   3.379  13.826  0.5168 -0.2368  5.2016
 6149TIP3    H239939   1.720   3.504  13.855 -1.4031  0.1494 -0.6174
 6150TIP3   OH239940   2.233   2.123  14.828  0.6285 -0.3091  0.2037
 6150TIP3    H139941   2.188   2.170  14.898  2.8515 -0.5172  1.9046
 6150TIP3    H239942   2.188   2.148  14.748 -0.0306  2.4883  1.3498
 6151TIP3   OH239943   2.247   1.359  12.795  0.4697 -0.1493 -0.3636
 6151TIP3    H139944   2.327   1.309  12.783  2.3835  2.2073  1.5952
 6151TIP3    H239945   2.271   1.431  12.853 -3.2292  0.3389  0.8710
 6152TIP3   OH239946   1.461   0.898   0.405  0.5005  0.0333  0.3391
 6152TIP3    H139947   1.372   0.933   0.412  0.2619 -0.5852  0.4968
 6152TIP3    H239948   1.474   0.886   0.311  0.1819 -0.4410  0.3489
 6153TIP3   OH239949   1.850   6.046  14.257 -0.3146 -0.3100  0.6042
 6153TIP3    H139950   1.809   6.121  14.299  0.4303 -0.2096  1.1674
 6153TIP3    H239951   1.851   5.978  14.324  0.1687 -0.4051  0.5085
 6154TIP3   OH239952   5.302   2.559  11.633  0.8088 -0.3583 -0.3567
 6154TIP3    H139953   5.328   2.647  11.605  2.2190 -0.3595  0.8306
 6154TIP3    H239954   5.333   2.552  11.724 -1.8598 -1.0351  0.6077
 6155TIP3   OH239955   4.150   4.246  13.401 -0.0235  0.0942  0.0151
 6155TIP3    H139956   4.091   4.233  13.475  0.5268 -0.5125  0.3565
 6155TIP3    H239957   4.187   4.333  13.414 -0.2438  0.1556  0.2240
 6156TIP3   OH239958   1.844   5.370  14.066 -0.4395 -0.0862 -0.9890
 6156TIP3    H139959   1.879   5.445  14.018  4.1499 -1.4066 -0.1779
 6156TIP3    H239960   1.888   5.374  14.151 -1.4123 -2.7364 -0.2723
 6157TIP3   OH239961   5.009   5.629  11.272 -0.2695  0.5723  0.1310
 6157TIP3    H139962   5.079   5.583  11.224 -0.3752 -0.0721  0.5773
 6157TIP3    H239963   5.009   5.588  11.358  0.0297  1.8285  0.7527
 6158TIP3   OH239964   3.091   3.962   5.038 -0.6809 -0.3110  0.4735
 6158TIP3    H139965   3.004   3.978   5.001  0.6312 -0.0149 -2.8649
 6158TIP3    H239966   3.094   3.868   5.052 -0.1774 -1.1123 -3.7390
 6159TIP3   OH239967   1.098   2.420   1.676 -0.3527  0.0375 -0.4324
 6159TIP3    H139968   1.109   2.510   1.706 -1.5277  0.4881 -1.2916
 6159TIP3    H239969   1.149   2.368   1.738 -2.0990  0.9903  1.9443
 6160TIP3   OH239970   3.636   3.073  14.517 -0.1768 -0.6314 -0.2345
 6160TIP3    H139971   3.581   3.127  14.574  0.0427  1.6897 -2.0779
 6160TIP3    H239972   3.667   3.003  14.574 -0.5473  1.1347  2.3125
 6161TIP3   OH239973   3.266   1.823  17.196 -0.0253 -0.1071 -0.1133
 6161TIP3    H139974   3.354   1.852  17.219 -0.7156  0.3619  2.2199
 6161TIP3    H239975   3.247   1.866  17.113  2.5687 -1.6454 -1.6373
 6162TIP3   OH239976   5.623   2.478  12.636  0.0114 -0.3024 -0.1788
 6162TIP3    H139977   5.620   2.554  12.694  0.1943 -0.3702 -0.0805
 6162TIP3    H239978   5.586   2.407  12.688 -1.4277  0.0068 -0.7206
 6163TIP3   OH239979   2.590   5.025   5.589 -0.7632  0.0192 -0.0607
 6163TIP3    H139980   2.509   5.053   5.633  0.3356  0.6642  1.6568
 6163TIP3    H239981   2.623   5.104   5.547  0.0209  0.2929  1.0134
 6164TIP3   OH239982   0.267   3.835   3.546  0.3389  0.3517 -0.5569
 6164TIP3    H139983   0.358   3.842   3.572  0.4571  0.8147 -1.0792
 6164TIP3    H239984   0.232   3.764   3.600  0.9441  0.3252 -0.1924
 6165TIP3   OH239985   6.687   1.100  16.282  0.1996 -0.5287 -0.7237
 6165TIP3    H139986   6.619   1.107  16.215 -0.0196 -0.0443 -0.4589
 6165TIP3    H239987   6.703   1.006  16.291 -1.7946 -0.8031  0.5617
 6166TIP3   OH239988   1.308   2.901  15.201 -0.1739 -0.4641  0.3240
 6166TIP3    H139989   1.256   2.848  15.140 -2.1335  1.6590 -0.0058
 6166TIP3    H239990   1.344   2.971  15.147 -0.6209  0.5457  1.2805
 6167TIP3   OH239991   2.862   2.761   6.463  0.8065 -0.2985  0.1772
 6167TIP3    H139992   2.795   2.822   6.432 -0.4310 -1.8052 -0.2683
 6167TIP3    H239993   2.926   2.816   6.509 -0.0564  1.3473 -0.5195
 6168TIP3   OH239994   6.489   2.221  12.654 -0.3857 -0.6543  0.0023
 6168TIP3    H139995   6.532   2.273  12.586 -1.4704  0.8798  0.4342
 6168TIP3    H239996   6.482   2.280  12.729  1.3525 -2.4841  1.7356
 6169TIP3   OH239997   4.619   1.396   5.068 -0.2761  0.2110  0.1249
 6169TIP3    H139998   4.610   1.381   4.974 -3.4923 -0.8744  0.4603
 6169TIP3    H239999   4.667   1.320   5.101 -0.2498 -0.0420 -0.4935
 6170TIP3   OH240000   3.379   0.215   6.128 -0.2974 -0.2838 -0.3390
 6170TIP3    H140001   3.453   0.168   6.168 -0.8627 -1.8420 -1.0470
 6170TIP3    H240002   3.367   0.291   6.184  1.0294 -0.6695  0.5379
 6171TIP3   OH240003   6.706   4.161  16.018 -0.2226  0.8747 -0.0816
 6171TIP3    H140004   6.768   4.095  15.986  0.1203  0.4243  1.4081
 6171TIP3    H240005   6.630   4.152  15.961  0.1916 -0.1837 -0.5029
 6172TIP3   OH240006   3.654   1.157  13.016  0.3422  0.5864 -0.4689
 6172TIP3    H140007   3.688   1.072  12.987  0.2011  0.9774 -1.8843
 6172TIP3    H240008   3.711   1.182  13.089  1.8501  0.2971 -1.4864
 6173TIP3   OH240009   4.938   1.107  16.890  0.0076 -0.0060 -0.5352
 6173TIP3    H140010   4.910   1.057  16.814  2.1550 -1.1310 -0.6743
 6173TIP3    H240011   4.980   1.185  16.853 -0.6522  0.4052 -0.4246
 6174TIP3   OH240012   1.688   3.575   5.365  0.2263  0.1423  0.5916
 6174TIP3    H140013   1.606   3.536   5.334 -0.1928  0.7640  0.9024
 6174TIP3    H240014   1.682   3.570   5.460 -1.0839  3.3449  0.8156
 6175TIP3   OH240015   5.086   0.279  16.958  0.3298 -0.7311  0.3388
 6175TIP3    H140016   5.044   0.206  17.004 -3.6221 -0.9437 -2.9939
 6175TIP3    H240017   5.039   0.357  16.989 -0.0668 -0.5021 -0.7613
 6176TIP3   OH240018   3.515   3.419  15.222  0.3042 -0.1785  0.0185
 6176TIP3    H140019   3.455   3.393  15.292 -0.2659  1.9609  0.4012
 6176TIP3    H240020   3.597   3.438  15.268  0.2997  0.0129 -0.0512
 6177TIP3   OH240021   2.276   0.304  12.740  0.1616 -0.0747  0.4954
 6177TIP3    H140022   2.337   0.342  12.677  1.5356 -3.7038 -0.6632
 6177TIP3    H240023   2.204   0.367  12.746  0.5572  1.0776 -3.7740
 6178TIP3   OH240024   0.341   4.038   3.001 -0.1717 -0.9468 -0.1971
 6178TIP3    H140025   0.277   4.019   3.070 -0.5311  0.9581  0.0311
 6178TIP3    H240026   0.320   4.127   2.972  0.9060 -1.1585 -1.7581
 6179TIP3   OH240027   5.024   3.979  15.998  0.1093  0.2997  0.4279
 6179TIP3    H140028   4.938   4.015  16.016  0.3178  2.4360 -2.2515
 6179TIP3    H240029   5.081   4.056  15.987  1.5105 -0.9051 -1.5008
 6180TIP3   OH240030   5.154   3.164   4.267 -0.4939 -0.8055 -0.3287
 6180TIP3    H140031   5.226   3.101   4.259 -1.8687 -2.7473  1.4909
 6180TIP3    H240032   5.105   3.134   4.344 -1.4804  2.2804  0.3855
 6181TIP3   OH240033   3.099   2.072  12.299  0.2044  0.1417 -0.0391
 6181TIP3    H140034   3.060   2.151  12.262 -0.8463 -1.6852 -3.2665
 6181TIP3    H240035   3.031   2.005  12.288  2.0605 -1.8263 -0.1423
 6182TIP3   OH240036   0.359   5.321  13.175  0.1708  0.2116  0.7464
 6182TIP3    H140037   0.373   5.303  13.268  0.1291 -0.9384  0.5397
 6182TIP3    H240038   0.312   5.244  13.142 -0.6002  0.9950 -0.0425
 6183TIP3   OH240039   4.018   2.982   1.295  0.8221  0.1676 -0.1785
 6183TIP3    H140040   4.110   2.979   1.269  1.3306  0.7393  1.4632
 6183TIP3    H240041   3.978   2.906   1.250  1.3347  1.6176 -3.3977
 6184TIP3   OH240042   3.439   5.219  17.234  0.4410  0.0913  0.2556
 6184TIP3    H140043   3.498   5.212  17.309  0.2946  0.0917  0.3704
 6184TIP3    H240044   3.442   5.132  17.194  0.9923  0.2647 -0.0956
 6185TIP3   OH240045   0.854   5.705  17.017  0.5592 -0.1009 -0.0742
 6185TIP3    H140046   0.835   5.709  16.923  0.2875  1.8968  0.0109
 6185TIP3    H240047   0.796   5.637  17.050  1.6030 -1.7751 -1.5373
 6186TIP3   OH240048   2.956   5.289  16.828 -0.5451 -0.9808  0.4130
 6186TIP3    H140049   2.959   5.359  16.893  1.7784 -1.9613  1.4707
 6186TIP3    H240050   3.009   5.320  16.756 -2.3306 -0.3013 -0.6788
 6187TIP3   OH240051   1.711   4.974   2.962 -0.0731  0.2032 -1.0809
 6187TIP3    H140052   1.801   4.950   2.987 -0.7109 -0.0510  1.2332
 6187TIP3    H240053   1.685   4.907   2.899  1.1740 -0.0298 -1.3840
 6188TIP3   OH240054   6.258   0.885  12.167  0.5541 -0.2047 -0.0890
 6188TIP3    H140055   6.165   0.868  12.183  0.9485 -1.8746  0.5688
 6188TIP3    H240056   6.262   0.915  12.076 -0.3968 -2.1531 -0.8116
 6189TIP3   OH240057   2.639   1.140   0.115  0.7261 -0.4986  0.3404
 6189TIP3    H140058   2.570   1.189   0.160 -0.4774 -2.0020  0.2330
 6189TIP3    H240059   2.633   1.167   0.024  0.5065 -0.3690  0.3935
 6190TIP3   OH240060   6.378   0.508   4.458 -0.3597  0.4469  0.5353
 6190TIP3    H140061   6.357   0.599   4.475 -0.0438  0.6777 -0.2286
 6190TIP3    H240062   6.294   0.466   4.441 -0.3380  1.2691 -2.0838
 6191TIP3   OH240063   2.548   3.929  13.081 -0.0722  0.1500 -0.1097
 6191TIP3    H140064   2.541   3.835  13.066 -5.1900  0.4242 -1.3249
 6191TIP3    H240065   2.521   3.941  13.172  3.3677  0.4384  1.0096
 6192TIP3   OH240066   3.246   4.735  15.942  0.2429 -0.0278  0.0713
 6192TIP3    H140067   3.236   4.722  16.036  0.8967  1.5367  0.3859
 6192TIP3    H240068   3.173   4.791  15.917  1.3001  1.3912  0.0849
 6193TIP3   OH240069   2.945   4.334   0.766 -0.2838  0.6591 -1.2392
 6193TIP3    H140070   2.921   4.417   0.809 -1.4567  0.6926 -1.9024
 6193TIP3    H240071   2.909   4.342   0.677  0.1338 -0.3099 -1.5057
 6194TIP3   OH240072   1.646   6.090   6.205  0.6863  0.1879 -0.0523
 6194TIP3    H140073   1.706   6.163   6.187 -2.0782  1.9680 -3.1914
 6194TIP3    H240074   1.581   6.128   6.265  1.6233 -1.1729  1.9055
 6195TIP3   OH240075   2.667   6.624  15.579  0.0131  0.0889  0.1054
 6195TIP3    H140076   2.624   6.579  15.506 -2.1792 -0.5731  1.7173
 6195TIP3    H240077   2.675   6.558  15.647  0.3726  1.1398  1.1211
 6196TIP3   OH240078   2.614   0.552  12.825 -0.4222  0.1858  0.3998
 6196TIP3    H140079   2.658   0.606  12.891 -1.4552 -0.5845  1.7746
 6196TIP3    H240080   2.678   0.484  12.803  0.5403  1.3880 -0.6570
 6197TIP3   OH240081   3.496   2.981   1.426  0.0829 -0.0656  0.4567
 6197TIP3    H140082   3.453   2.998   1.342  0.1069  1.5941  0.7649
 6197TIP3    H240083   3.569   3.042   1.430  0.4519 -0.5428  1.4273
 6198TIP3   OH240084   4.930   6.538   0.232 -0.3343  0.0489 -0.2209
 6198TIP3    H140085   4.924   6.627   0.198  0.3793  1.0453  2.0999
 6198TIP3    H240086   4.877   6.539   0.311 -1.7005 -2.1089 -1.0018
 6199TIP3   OH240087   1.623   5.049  15.475 -0.3309 -0.3735 -0.0738
 6199TIP3    H140088   1.701   5.101  15.494 -0.8814  0.4539 -0.0061
 6199TIP3    H240089   1.602   5.007  15.558  0.1440 -0.7494 -0.1377
 6200TIP3   OH240090   2.701   1.899  11.318 -0.0638 -0.4768 -0.0341
 6200TIP3    H140091   2.709   1.969  11.253  0.7176 -0.9032 -0.4084
 6200TIP3    H240092   2.657   1.940  11.392 -3.3450 -0.5664 -1.7365
 6201TIP3   OH240093   0.631   1.176   1.214  0.6861 -0.4666  0.4629
 6201TIP3    H140094   0.616   1.157   1.307 -0.8361  0.3325  0.4115
 6201TIP3    H240095   0.676   1.098   1.181  2.2949 -0.3006  2.0959
 6202TIP3   OH240096   0.884   5.054   5.251 -0.3672 -0.1692 -0.4961
 6202TIP3    H140097   0.969   5.025   5.217  0.1748 -0.4338  1.0074
 6202TIP3    H240098   0.825   4.982   5.231  0.6855 -1.8717  2.0276
 6203TIP3   OH240099   5.245   5.725  12.815  0.1400 -0.1858 -0.5684
 6203TIP3    H140100   5.155   5.733  12.846  0.2668 -1.1170  0.0941
 6203TIP3    H240101   5.237   5.706  12.722 -0.3009  1.1398 -0.8101
 6204TIP3   OH240102   6.591   0.708   1.107 -0.4993 -0.7189  0.1981
 6204TIP3    H140103   6.659   0.766   1.141 -0.2370  0.7109 -2.5207
 6204TIP3    H240104   6.541   0.683   1.184  0.9850  0.9967  1.8317
 6205TIP3   OH240105   3.912   1.732  16.112  0.6608  0.3487 -0.0675
 6205TIP3    H140106   3.880   1.651  16.072  2.2701 -0.6760  0.5773
 6205TIP3    H240107   3.897   1.799  16.046 -1.3776 -0.3163 -0.3437
 6206TIP3   OH240108   6.799   1.466   4.192 -0.0479  0.2612 -0.2464
 6206TIP3    H140109   6.724   1.502   4.145  0.7654 -0.8073 -2.5057
 6206TIP3    H240110   6.775   1.375   4.211  0.6731 -0.1074 -1.0430
 6207TIP3   OH240111   0.406   4.090   2.556 -0.1266 -0.0330 -0.3695
 6207TIP3    H140112   0.363   4.115   2.474  1.2599  0.6517 -0.9333
 6207TIP3    H240113   0.372   4.151   2.621 -1.8200 -1.0729 -0.2331
 6208TIP3   OH240114   1.976   0.220  17.392  0.0102 -0.0340 -0.0483
 6208TIP3    H140115   1.960   0.281  17.463 -0.7959  0.7338 -0.8627
 6208TIP3    H240116   2.027   0.270  17.328  0.2728 -0.5518 -0.2538
 6209TIP3   OH240117   2.691   4.408  15.287  0.4983 -0.2371  0.4223
 6209TIP3    H140118   2.782   4.381  15.275  0.8398  1.3177 -0.7899
 6209TIP3    H240119   2.640   4.335  15.254  1.3789  0.2452 -2.3108
 6210TIP3   OH240120   2.031   4.827  15.310 -0.4064  0.3111 -0.2815
 6210TIP3    H140121   2.023   4.895  15.376  0.6618  0.4191 -0.2443
 6210TIP3    H240122   2.072   4.871  15.235  1.9789 -0.6301  0.3618
 6211TIP3   OH240123   2.408   0.894   4.668  0.1778 -0.4936 -0.3844
 6211TIP3    H140124   2.456   0.976   4.681 -0.5389 -0.2470  0.8789
 6211TIP3    H240125   2.440   0.837   4.738 -2.4629  0.2274  1.5633
 6212TIP3   OH240126   6.342   2.825  11.393  0.1446  0.2108 -0.7956
 6212TIP3    H140127   6.266   2.789  11.347 -0.4150 -1.4519  1.2598
 6212TIP3    H240128   6.406   2.754  11.394  0.3188  0.3499  0.4987
 6213TIP3   OH240129   2.776   4.310  11.552 -0.0537 -0.2255  0.3310
 6213TIP3    H140130   2.716   4.236  11.543  0.3737 -0.8212  2.1067
 6213TIP3    H240131   2.862   4.271  11.564  0.2237  0.5617  1.0168
 6214TIP3   OH240132   6.563   5.165  10.824 -0.2370 -0.4458 -0.2312
 6214TIP3    H140133   6.650   5.197  10.846 -0.5743 -0.2093  0.8100
 6214TIP3    H240134   6.565   5.154  10.729  0.9408 -0.4997 -0.2180
 6215TIP3   OH240135   2.187   6.399  11.300 -0.1986  0.3406 -0.1043
 6215TIP3    H140136   2.228   6.342  11.235  2.0865  2.4987 -0.7002
 6215TIP3    H240137   2.134   6.460  11.249  1.9243  2.3036 -0.1156
 6216TIP3   OH240138   3.176   2.484  11.217 -0.0813  0.1265  0.1727
 6216TIP3    H140139   3.103   2.502  11.158  0.7398  0.7458 -0.6882
 6216TIP3    H240140   3.246   2.450  11.161  0.3939 -0.2105  0.9358
 6217TIP3   OH240141   5.962   1.214   5.346 -0.6649 -0.6036 -0.6635
 6217TIP3    H140142   5.939   1.256   5.429  0.0125 -0.0616 -0.7412
 6217TIP3    H240143   5.975   1.122   5.369 -0.6643 -0.4895 -0.2000
 6218TIP3   OH240144   1.620   3.909  14.942 -0.1867 -0.0459  0.4846
 6218TIP3    H140145   1.568   3.973  14.893  0.9003 -1.2681 -2.4840
 6218TIP3    H240146   1.654   3.959  15.016 -1.6584  2.0341 -0.1198
 6219TIP3   OH240147   6.391   1.912  12.946  0.3023 -0.1581 -0.1392
 6219TIP3    H140148   6.399   2.006  12.962  2.5583  0.1324 -2.2852
 6219TIP3    H240149   6.298   1.893  12.959 -0.5500  2.7335 -1.2675
 6220TIP3   OH240150   0.098   2.523  11.533 -0.1348 -0.1483 -0.0532
 6220TIP3    H140151   0.046   2.542  11.612  0.5867  0.0716  0.3742
 6220TIP3    H240152   0.180   2.570  11.546  0.6224 -1.3799 -0.2178
 6221TIP3   OH240153   3.144   2.523  15.844  0.2291  0.3473 -0.3023
 6221TIP3    H140154   3.102   2.583  15.782  0.9767  1.9506  0.6718
 6221TIP3    H240155   3.236   2.547  15.842  0.1801  0.9152  1.8998
 6222TIP3   OH240156   2.265   6.536  13.113 -0.1746 -1.2377 -0.5026
 6222TIP3    H140157   2.227   6.550  13.200 -2.4644 -0.1125 -1.6066
 6222TIP3    H240158   2.208   6.472  13.072 -1.6485  1.2104 -2.5670
 6223TIP3   OH240159   5.784   4.700  12.769 -0.1326 -0.0417 -0.4139
 6223TIP3    H140160   5.857   4.761  12.784 -0.5288  0.0372  1.3044
 6223TIP3    H240161   5.817   4.615  12.798 -0.7591  0.0178  0.4946
 6224TIP3   OH240162   3.045   0.260  15.429 -0.2067 -0.3963  0.6680
 6224TIP3    H140163   3.013   0.289  15.515  1.0365 -0.9272  1.3416
 6224TIP3    H240164   2.969   0.268  15.371 -0.8214  0.8940  1.5902
 6225TIP3   OH240165   0.182   6.227  11.186 -0.7501 -0.6677 -0.3564
 6225TIP3    H140166   0.243   6.154  11.180 -0.7731 -0.7284  0.0802
 6225TIP3    H240167   0.231   6.303  11.155 -0.9880 -1.0068 -1.6134
 6226TIP3   OH240168   3.702   3.899   0.849  0.2314 -0.5646  0.3961
 6226TIP3    H140169   3.641   3.837   0.890  0.2925 -0.8943 -0.0002
 6226TIP3    H240170   3.786   3.853   0.849  0.2942 -0.4512  0.1688
 6227TIP3   OH240171   2.316   4.151  17.327 -0.2030 -0.1327  0.3516
 6227TIP3    H140172   2.313   4.110  17.241 -1.5040 -0.5524  0.5632
 6227TIP3    H240173   2.392   4.209  17.324 -0.5847  0.3486 -1.3006
 6228TIP3   OH240174   6.519   2.712   0.535  0.0403  0.2766  0.4068
 6228TIP3    H140175   6.564   2.638   0.576  0.4418 -0.1501 -0.7816
 6228TIP3    H240176   6.523   2.782   0.602  1.7155 -0.0265  0.6632
 6229TIP3   OH240177   2.552   3.030   1.374  0.2976 -0.5991 -0.0016
 6229TIP3    H140178   2.516   2.986   1.297  1.4964 -0.3644 -0.7085
 6229TIP3    H240179   2.647   3.021   1.366  0.5072  0.7015  0.6756
 6230TIP3   OH240180   6.270   2.877  15.350 -0.1898  0.0082  0.6567
 6230TIP3    H140181   6.319   2.799  15.373 -1.3746 -0.6140  1.1759
 6230TIP3    H240182   6.279   2.934  15.427 -1.2657 -0.6215  1.2778
 6231TIP3   OH240183   3.750   4.733  16.354 -0.5313  0.3460 -0.4465
 6231TIP3    H140184   3.685   4.767  16.292 -0.9498  0.8805  0.2812
 6231TIP3    H240185   3.834   4.748  16.311 -0.8587 -0.1164 -1.2837
 6232TIP3   OH240186   3.454   2.282  15.479  0.3505 -0.5803  0.3821
 6232TIP3    H140187   3.396   2.225  15.428  1.9239 -1.8775 -0.0505
 6232TIP3    H240188   3.503   2.332  15.414 -1.7485  2.1805  0.7537
 6233TIP3   OH240189   4.275   5.046   3.437 -0.8475  0.2114 -0.0363
 6233TIP3    H140190   4.313   5.064   3.523 -0.8394 -2.4881  0.6046
 6233TIP3    H240191   4.267   5.133   3.397  3.0341  1.2850  0.9870
 6234TIP3   OH240192   3.267   5.630  12.776  0.0753  0.1348 -0.0636
 6234TIP3    H140193   3.178   5.617  12.808  0.1550  2.3530  1.2743
 6234TIP3    H240194   3.260   5.705  12.716  0.7007 -1.1542 -1.8438
 6235TIP3   OH240195   5.199   1.737   5.209  0.0053 -0.8143  0.0452
 6235TIP3    H140196   5.139   1.796   5.162  0.7480 -0.4950 -0.5129
 6235TIP3    H240197   5.245   1.794   5.271 -0.6824 -1.1648  0.9110
 6236TIP3   OH240198   6.499   0.971  17.092 -0.4464 -0.3443 -0.0539
 6236TIP3    H140199   6.472   1.059  17.120  1.0068 -0.2279  1.1206
 6236TIP3    H240200   6.423   0.916  17.112 -0.4513  0.2168  1.6946
 6237TIP3   OH240201   0.760   0.853  14.656 -0.2463  0.2041 -0.1237
 6237TIP3    H140202   0.816   0.817  14.724 -0.7083 -1.6161 -0.6598
 6237TIP3    H240203   0.694   0.786  14.641 -0.8342  1.0532 -1.5691
 6238TIP3   OH240204   4.066   6.801  11.696 -0.0948 -0.5551  0.0533
 6238TIP3    H140205   4.003   6.732  11.714 -1.5561  1.3364  3.0099
 6238TIP3    H240206   4.139   6.783  11.756 -0.0704 -0.0728  0.1766
 6239TIP3   OH240207   2.835   2.851   0.634  0.0940  0.2889  0.1051
 6239TIP3    H140208   2.842   2.758   0.611 -2.3414  0.1460 -0.3392
 6239TIP3    H240209   2.775   2.852   0.709 -0.3929  1.5356 -0.2769
 6240TIP3   OH240210   6.093   1.531   5.631 -0.0820 -0.0539  0.1558
 6240TIP3    H140211   6.052   1.444   5.628  2.1243 -1.2871  2.4439
 6240TIP3    H240212   6.148   1.534   5.553  0.3980 -1.0350  0.4435
 6241TIP3   OH240213   0.730   1.087   2.070 -0.1172  0.0951 -0.0301
 6241TIP3    H140214   0.777   1.008   2.099  0.3894  0.9123  1.4827
 6241TIP3    H240215   0.645   1.054   2.040  0.4241 -1.1230 -0.3002
 6242TIP3   OH240216   2.533   0.100  12.018  0.0121 -0.0496  0.3720
 6242TIP3    H140217   2.625   0.096  12.041  0.1787 -0.3596 -0.3082
 6242TIP3    H240218   2.511   0.193  12.019  0.1242 -0.0267  1.3055
 6243TIP3   OH240219   4.436   0.571  15.551  0.2524  0.4212  0.0007
 6243TIP3    H140220   4.453   0.587  15.644  1.0921  2.3806 -0.4522
 6243TIP3    H240221   4.523   0.575  15.510  0.0116 -1.3320 -0.7846
 6244TIP3   OH240222   4.050   5.105   5.494 -0.0686 -0.0877 -0.1731
 6244TIP3    H140223   4.053   5.012   5.472 -0.5174 -0.0232 -0.5308
 6244TIP3    H240224   4.114   5.115   5.564  0.1968 -0.6111 -0.3325
 6245TIP3   OH240225   4.535   1.633   0.855 -0.5989  0.4988  0.1211
 6245TIP3    H140226   4.475   1.569   0.893  0.7319  0.9395  3.3117
 6245TIP3    H240227   4.579   1.586   0.784 -3.9047 -0.0989 -1.7604
 6246TIP3   OH240228   0.320   5.001   0.941 -0.1585  0.7050 -0.4888
 6246TIP3    H140229   0.277   5.035   0.863 -0.3164  2.0164  0.1333
 6246TIP3    H240230   0.410   5.033   0.935  0.1610 -0.1947 -0.7037
 6247TIP3   OH240231   5.162   0.938  11.788  0.2962  0.1210 -0.8568
 6247TIP3    H140232   5.147   0.850  11.825  0.4194 -0.3527 -1.9135
 6247TIP3    H240233   5.112   0.938  11.707 -1.3221  1.7315  0.0749
 6248TIP3   OH240234   0.348   2.362  14.500 -0.1853 -0.0971 -0.6408
 6248TIP3    H140235   0.377   2.396  14.585 -2.0193  0.1238 -0.0608
 6248TIP3    H240236   0.362   2.435  14.439  0.8335 -0.1494 -0.4882
 6249TIP3   OH240237   3.391   2.193   3.126 -0.1578 -0.2555 -0.0341
 6249TIP3    H140238   3.448   2.133   3.175 -1.1077 -0.1965  1.1995
 6249TIP3    H240239   3.387   2.156   3.038  1.9434 -0.1344 -0.2319
 6250TIP3   OH240240   0.286   3.230  13.051  0.5854 -0.1729 -0.0068
 6250TIP3    H140241   0.295   3.301  12.987  0.4253  0.7829  0.9870
 6250TIP3    H240242   0.288   3.275  13.136 -0.7099 -1.2356  0.6213
 6251TIP3   OH240243   2.381   6.765  12.217 -0.1669  0.4238 -0.2449
 6251TIP3    H140244   2.298   6.784  12.172 -0.6293  0.5375  0.6423
 6251TIP3    H240245   2.448   6.778  12.149 -0.8806  0.1538 -1.0168
 6252TIP3   OH240246   1.130   0.671   0.799  0.8205  0.5453  0.9495
 6252TIP3    H140247   1.216   0.630   0.809  1.3190  1.0303 -0.9049
 6252TIP3    H240248   1.080   0.608   0.748  0.5449  0.8576  0.8303
 6253TIP3   OH240249   2.631   2.087   2.317  0.0695  0.5737 -0.6686
 6253TIP3    H140250   2.581   2.010   2.344  0.2860  0.3673 -0.8512
 6253TIP3    H240251   2.656   2.069   2.227  0.7974  0.4973 -0.4614
 6254TIP3   OH240252   0.217   1.353  13.021 -0.8631  0.0183 -0.0650
 6254TIP3    H140253   0.262   1.273  13.048  0.9555  0.5463 -1.2897
 6254TIP3    H240254   0.276   1.424  13.049 -1.5140  0.8149 -0.6530
 6255TIP3   OH240255   4.886   6.666  17.212 -0.8830  1.0301  1.1051
 6255TIP3    H140256   4.815   6.623  17.165  0.3717 -0.2000  0.2475
 6255TIP3    H240257   4.935   6.595  17.251 -0.3741  1.8876  2.0688
 6256TIP3   OH240258   0.488   6.043  14.111 -0.6961 -0.0545 -0.3182
 6256TIP3    H140259   0.436   6.123  14.104 -0.0838  0.2786 -1.1490
 6256TIP3    H240260   0.568   6.070  14.156 -1.0954 -0.5092  0.6986
 6257TIP3   OH240261   2.074   1.227  12.987  0.2777  0.1508  0.0633
 6257TIP3    H140262   2.035   1.146  12.952 -1.1776  1.1395 -0.7140
 6257TIP3    H240263   2.136   1.255  12.920  1.6377 -0.8803  0.8391
 6258TIP3   OH240264   0.316   2.235  17.379 -0.5022 -0.2607 -0.5523
 6258TIP3    H140265   0.351   2.145  17.380 -1.3754 -0.6249 -1.4551
 6258TIP3    H240266   0.321   2.263  17.470  2.7810 -0.0253 -0.6901
 6259TIP3   OH240267   1.414   4.639  14.857  0.7541  0.1107 -0.5412
 6259TIP3    H140268   1.458   4.696  14.921  1.2487 -2.4359  1.5962
 6259TIP3    H240269   1.484   4.615  14.796  0.7263  1.1529 -0.9978
 6260TIP3   OH240270   6.585   2.625   2.748 -0.3609 -0.2187 -0.1547
 6260TIP3    H140271   6.679   2.633   2.765 -0.8493  0.6211  2.8305
 6260TIP3    H240272   6.575   2.539   2.708  1.6888 -0.2181 -0.8031
 6261TIP3   OH240273   6.801   4.008  14.595 -0.1070  0.3445  0.3252
 6261TIP3    H140274   6.832   4.095  14.572 -0.9260  0.3622 -0.7871
 6261TIP3    H240275   6.851   3.985  14.674  1.0598  1.2767 -0.1071
 6262TIP3   OH240276   2.171   5.859  12.341 -0.0550  0.0098 -0.0936
 6262TIP3    H140277   2.107   5.926  12.363 -0.8394  0.0861 -2.4096
 6262TIP3    H240278   2.254   5.907  12.334 -0.0497  0.2111  1.1375
 6263TIP3   OH240279   2.572   0.068  15.651  1.2525  0.2729  0.3172
 6263TIP3    H140280   2.486   0.053  15.688 -0.9247  0.9154 -3.8823
 6263TIP3    H240281   2.597  -0.016  15.612  0.8701  0.9015 -1.3647
 6264TIP3   OH240282   6.375   6.182   4.566  0.0485 -0.5360 -0.1800
 6264TIP3    H140283   6.445   6.124   4.597 -0.3439  0.1635  2.2212
 6264TIP3    H240284   6.294   6.136   4.588 -0.2549  0.4775  0.8739
 6265TIP3   OH240285   1.607   4.265  15.623  0.4131  0.0495 -0.2162
 6265TIP3    H140286   1.565   4.334  15.572  2.4887  0.4507 -1.4970
 6265TIP3    H240287   1.685   4.241  15.572  1.2250 -1.3271  1.5508
 6266TIP3   OH240288   6.514   5.852  11.217  0.7436  0.0409  0.2471
 6266TIP3    H140289   6.474   5.838  11.132  0.1788  0.4325  0.4437
 6266TIP3    H240290   6.602   5.816  11.208  0.6335 -0.0702 -0.4472
 6267TIP3   OH240291   4.461   6.594  13.335  0.1832 -0.0955  0.1362
 6267TIP3    H140292   4.508   6.511  13.321  1.6410  0.8612 -0.9948
 6267TIP3    H240293   4.372   6.577  13.304 -0.2530 -1.9139  2.1680
 6268TIP3   OH240294   0.213   1.761   4.566 -0.3020  0.4573 -1.1047
 6268TIP3    H140295   0.197   1.847   4.604  0.6513  0.8116 -1.4799
 6268TIP3    H240296   0.141   1.749   4.504  0.2437  1.5644 -1.9999
 6269TIP3   OH240297   0.955   5.282  16.133  0.0100 -0.3547  0.4379
 6269TIP3    H140298   0.891   5.309  16.067  0.9360  0.2869 -0.2299
 6269TIP3    H240299   0.911   5.213  16.183 -1.2414  0.1721  0.0923
 6270TIP3   OH240300   0.859   3.337   1.098 -0.0768 -0.3858 -0.3913
 6270TIP3    H140301   0.783   3.345   1.155  1.3911 -0.6342  1.7382
 6270TIP3    H240302   0.872   3.243   1.089  1.1678 -0.3981  1.0640
 6271TIP3   OH240303   6.097   6.384  13.112 -0.0776  0.1827  0.2574
 6271TIP3    H140304   6.172   6.328  13.133 -0.0512  0.0722 -0.1296
 6271TIP3    H240305   6.120   6.425  13.029 -0.8748 -0.6285 -0.3861
 6272TIP3   OH240306   4.513   5.581   1.709  0.7310  0.2067 -0.2623
 6272TIP3    H140307   4.527   5.673   1.726  0.2411  0.2034  0.1968
 6272TIP3    H240308   4.429   5.561   1.751  0.7252 -0.3930 -0.5387
 6273TIP3   OH240309   0.059   6.103   5.537  0.0823  0.0335 -0.6169
 6273TIP3    H140310  -0.012   6.165   5.555  0.6199  0.9727 -1.6373
 6273TIP3    H240311   0.013   6.020   5.520 -0.6608  0.2059  0.4320
 6274TIP3   OH240312   2.685   2.699  11.070 -0.3862  0.4732  0.0251
 6274TIP3    H140313   2.755   2.684  11.006  0.0082  0.9451  0.3359
 6274TIP3    H240314   2.650   2.785  11.046 -1.2701 -0.0170 -0.4994
 6275TIP3   OH240315   5.280   2.259  11.779  0.8155  0.5024  0.4445
 6275TIP3    H140316   5.257   2.279  11.870 -1.0418 -1.0122  0.3639
 6275TIP3    H240317   5.200   2.225  11.741  1.9052 -0.1077 -1.4231
 6276TIP3   OH240318   1.514   0.225  12.819 -0.1015  0.0691 -0.3499
 6276TIP3    H140319   1.519   0.252  12.910 -0.5481  1.1171 -0.6174
 6276TIP3    H240320   1.532   0.131  12.820  0.0301  0.0989  0.7927
 6277TIP3   OH240321   3.714   6.357  13.191 -0.5039  0.2641  0.3099
 6277TIP3    H140322   3.760   6.290  13.140 -0.1495  0.3247  0.5439
 6277TIP3    H240323   3.624   6.352  13.161 -0.0951  1.0407 -1.1049
 6278TIP3   OH240324   2.900   1.879  12.329 -0.0261 -0.1895  0.2919
 6278TIP3    H140325   2.941   1.806  12.375 -0.0169 -0.6908 -0.4876
 6278TIP3    H240326   2.880   1.943  12.397  0.1785 -0.8220  0.9534
 6279TIP3   OH240327   5.240   6.485  14.239  0.0870  0.7386 -0.2949
 6279TIP3    H140328   5.171   6.439  14.191  0.9366  0.4606 -1.2897
 6279TIP3    H240329   5.232   6.576  14.211 -0.0081  0.7406 -0.2598
 6280TIP3   OH240330   3.462   0.621  12.146 -0.0665  0.0487 -0.1577
 6280TIP3    H140331   3.432   0.640  12.057 -0.7646  0.1018  0.0814
 6280TIP3    H240332   3.537   0.679  12.159  1.0586 -1.1004 -1.2812
 6281TIP3   OH240333   3.412   4.721   4.803  0.2485 -0.2064 -0.0345
 6281TIP3    H140334   3.341   4.752   4.859  0.9941 -1.2903  1.6073
 6281TIP3    H240335   3.485   4.705   4.864  1.2085 -1.1260 -1.3645
 6282TIP3   OH240336   3.207   1.309   3.321 -0.0723 -0.5062 -0.3850
 6282TIP3    H140337   3.233   1.396   3.289 -0.7242 -0.3464 -0.5102
 6282TIP3    H240338   3.278   1.251   3.294  0.4243  0.0070 -0.2072
 6283TIP3   OH240339   4.471   5.178  12.580 -0.2999 -1.1035  0.3186
 6283TIP3    H140340   4.416   5.155  12.654 -1.3839 -0.8252 -0.3773
 6283TIP3    H240341   4.472   5.100  12.525  1.4416 -1.7190  1.1339
 6284TIP3   OH240342   2.966   4.566  13.336  0.2572 -1.1708  1.0073
 6284TIP3    H140343   3.013   4.621  13.274 -0.1570 -0.6262  1.1684
 6284TIP3    H240344   2.923   4.500  13.282  1.5950 -1.9894  0.8961
 6285TIP3   OH240345   2.080   6.508   1.330  0.6363 -0.0796 -0.4224
 6285TIP3    H140346   2.097   6.552   1.413  1.2610 -0.5079 -0.3136
 6285TIP3    H240347   2.099   6.415   1.348 -0.6417 -0.3963 -0.6468
 6286TIP3   OH240348   1.934   5.727  12.848 -0.3001  0.1442 -0.4425
 6286TIP3    H140349   1.858   5.770  12.886  0.4564 -0.5117  2.0223
 6286TIP3    H240350   2.010   5.772  12.885  0.4954 -1.8174  0.5068
 6287TIP3   OH240351   5.959   1.102  12.602 -0.0096 -0.3527 -0.0811
 6287TIP3    H140352   6.034   1.161  12.598 -0.7013  0.5614  0.0015
 6287TIP3    H240353   5.926   1.100  12.512 -0.5319  0.1281  0.0926
 6288TIP3   OH240354   3.958   6.523   2.194 -0.1661  0.0223 -0.1009
 6288TIP3    H140355   4.046   6.509   2.229 -0.5280 -1.1368  0.4139
 6288TIP3    H240356   3.971   6.580   2.118  0.9260  0.5417  0.4502
 6289TIP3   OH240357   1.393   0.978  12.436 -0.4739 -0.0196  0.9605
 6289TIP3    H140358   1.454   0.998  12.365 -0.8428 -2.3431 -0.1200
 6289TIP3    H240359   1.445   0.987  12.516  1.2933 -1.7908  0.0946
 6290TIP3   OH240360   5.583   4.377  13.535  0.2476  0.0211  0.3534
 6290TIP3    H140361   5.574   4.465  13.498 -1.6682 -0.5589 -0.7158
 6290TIP3    H240362   5.623   4.326  13.465 -1.5972 -0.6424 -0.2728
 6291TIP3   OH240363   4.667   3.448  16.857 -0.2487 -0.3728  0.3116
 6291TIP3    H140364   4.742   3.481  16.907  1.1140 -1.7998 -0.6856
 6291TIP3    H240365   4.676   3.488  16.770 -2.1650  1.4813  0.8752
 6292TIP3   OH240366   3.438   0.322   0.243  0.5631  0.0285  0.2561
 6292TIP3    H140367   3.533   0.339   0.242  0.9473 -1.7299 -1.6596
 6292TIP3    H240368   3.399   0.406   0.220  1.7584  0.5160 -0.1173
 6293TIP3   OH240369   5.393   4.670  14.630 -0.5889  0.2056  0.2751
 6293TIP3    H140370   5.481   4.706  14.632 -0.1982 -0.7558  1.3165
 6293TIP3    H240371   5.380   4.643  14.538  0.6211 -0.6304  0.3342
 6294TIP3   OH240372   4.965   5.829   4.867  0.2378 -0.4727  0.1504
 6294TIP3    H140373   4.999   5.745   4.900  1.9894  0.4009  0.6738
 6294TIP3    H240374   5.000   5.836   4.778 -1.0945 -0.9193 -0.4416
 6295TIP3   OH240375   6.292   4.898  11.121 -0.2311 -0.3544 -0.0513
 6295TIP3    H140376   6.379   4.908  11.082 -0.1871  0.0603  0.1461
 6295TIP3    H240377   6.232   4.921  11.050 -0.1344  1.1167  0.3185
 6296TIP3   OH240378   5.834   6.097  14.258  0.7333  0.3013  0.0401
 6296TIP3    H140379   5.896   6.054  14.317 -1.7590  0.2883  2.8717
 6296TIP3    H240380   5.779   6.027  14.225 -0.3307  0.6903  0.8961
 6297TIP3   OH240381   2.427   5.003   2.038 -0.3484 -0.1247  0.0474
 6297TIP3    H140382   2.377   5.083   2.051 -0.4171 -0.1882  0.1711
 6297TIP3    H240383   2.373   4.934   2.075  0.7777  0.0673  2.2386
 6298TIP3   OH240384   0.014   5.168  15.965 -0.4762 -0.0368 -0.2773
 6298TIP3    H140385  -0.045   5.239  15.989 -0.7126  0.0993 -1.2086
 6298TIP3    H240386  -0.042   5.103  15.924 -0.2585 -0.7639  0.5384
 6299TIP3   OH240387   2.222   6.548   3.881 -0.6833 -0.3847  0.3184
 6299TIP3    H140388   2.268   6.627   3.910  0.0418 -0.1437 -1.3728
 6299TIP3    H240389   2.283   6.505   3.821 -1.8671 -1.1447 -0.3889
 6300TIP3   OH240390   1.338   4.697   2.603  0.4937  0.6384 -0.4290
 6300TIP3    H140391   1.307   4.718   2.692 -1.5926  1.2376 -1.2443
 6300TIP3    H240392   1.258   4.680   2.553  1.6769 -0.8380 -1.9487
 6301TIP3   OH240393   3.719   3.671  16.195  0.4553 -0.3893  0.1066
 6301TIP3    H140394   3.797   3.616  16.185 -0.0186 -0.9975 -0.2789
 6301TIP3    H240395   3.753   3.753  16.232  1.2339 -0.7567  0.2364
 6302TIP3   OH240396   6.754   3.433   2.893  0.0296 -0.4214 -0.2039
 6302TIP3    H140397   6.665   3.422   2.927  0.0475  1.2421  0.4425
 6302TIP3    H240398   6.799   3.352   2.917 -0.6328 -0.2903  1.6230
 6303TIP3   OH240399   5.182   2.403   6.613  0.6972  0.3631 -0.2693
 6303TIP3    H140400   5.188   2.308   6.605  2.0638  0.3391  0.7284
 6303TIP3    H240401   5.176   2.419   6.707 -1.7431  1.2032 -0.4903
 6304TIP3   OH240402   6.332   3.234  11.031 -0.0531 -0.4974 -0.5707
 6304TIP3    H140403   6.398   3.166  11.025 -0.6694 -1.2349  0.6268
 6304TIP3    H240404   6.381   3.316  11.021  0.8092 -1.0687 -1.1727
 6305TIP3   OH240405   3.269   3.465   5.736 -0.8568  0.3974  0.5459
 6305TIP3    H140406   3.342   3.519   5.707 -0.2622 -1.9006 -2.8621
 6305TIP3    H240407   3.210   3.525   5.781  0.7317  3.3714 -1.0630
 6306TIP3   OH240408   4.227   5.710  12.306  0.3684  0.4731  0.2010
 6306TIP3    H140409   4.156   5.666  12.353 -0.2796 -0.2095 -1.3626
 6306TIP3    H240410   4.307   5.668  12.337  0.2023  1.6093  2.3812
 6307TIP3   OH240411   0.275   1.908  13.875  0.2446 -0.3392 -0.2297
 6307TIP3    H140412   0.284   1.874  13.786 -0.8723  0.5013 -0.6801
 6307TIP3    H240413   0.269   1.829  13.930 -2.4415 -0.9463 -1.2618
 6308TIP3   OH240414   6.472   1.588   0.942  0.1454  0.4873 -0.0501
 6308TIP3    H140415   6.500   1.630   0.861  1.9064  2.5297  1.5212
 6308TIP3    H240416   6.523   1.507   0.947 -0.3884  0.0522 -1.1829
 6309TIP3   OH240417   2.656   4.345   4.949 -0.2139  0.4227  0.3191
 6309TIP3    H140418   2.605   4.367   5.028  0.1408  0.5704  0.5086
 6309TIP3    H240419   2.602   4.281   4.903 -2.5333  3.4611 -1.5653
 6310TIP3   OH240420   1.791   2.387   5.573 -0.1037 -0.0534 -0.1609
 6310TIP3    H140421   1.728   2.429   5.515  1.3276  1.1960 -0.8880
 6310TIP3    H240422   1.772   2.423   5.659 -0.6453  0.0072 -0.3036
 6311TIP3   OH240423   3.653   0.752   6.133 -0.2157 -0.8234 -0.4556
 6311TIP3    H140424   3.561   0.735   6.112 -0.2490  1.8491 -3.0430
 6311TIP3    H240425   3.662   0.847   6.131  2.8684 -1.0062 -1.6694
 6312TIP3   OH240426   0.800   2.753  14.213 -0.1245  0.5645  0.3153
 6312TIP3    H140427   0.864   2.692  14.176 -0.7352  0.6965 -1.0014
 6312TIP3    H240428   0.854   2.822  14.252  0.6058  1.3658 -1.9271
 6313TIP3   OH240429   5.519   1.423  13.812 -0.3044 -0.0375 -0.5415
 6313TIP3    H140430   5.549   1.334  13.834 -1.2393 -0.2458 -0.0620
 6313TIP3    H240431   5.598   1.467  13.781  0.5947 -0.4507  1.0493
 6314TIP3   OH240432   0.309   2.188  15.942  0.0312  0.7450 -0.2988
 6314TIP3    H140433   0.248   2.252  15.905 -1.1814 -0.8410 -1.1425
 6314TIP3    H240434   0.263   2.153  16.018 -0.5568 -1.0878 -1.4373
 6315TIP3   OH240435   6.092   2.741   4.696  0.4588  0.1981 -0.3794
 6315TIP3    H140436   6.185   2.760   4.709  0.3923  0.9821 -0.9765
 6315TIP3    H240437   6.047   2.795   4.760  0.3655  0.6251 -0.7995
 6316TIP3   OH240438   4.683   5.900   5.287 -0.2632  0.3256 -0.4034
 6316TIP3    H140439   4.714   5.913   5.198 -0.8400 -0.8342 -0.7881
 6316TIP3    H240440   4.762   5.889   5.339  0.0413 -0.2653 -0.9849
 6317TIP3   OH240441   3.259   0.231  10.776 -0.1862  0.2288  0.6654
 6317TIP3    H140442   3.175   0.233  10.823 -0.9405 -2.8065 -0.2813
 6317TIP3    H240443   3.252   0.302  10.712 -1.6742  0.5792  1.1704
 6318TIP3   OH240444   6.721   0.131   2.642  0.0009  0.3992 -0.1379
 6318TIP3    H140445   6.753   0.075   2.712  1.4795 -0.6910 -1.6055
 6318TIP3    H240446   6.657   0.189   2.684 -1.0913 -1.9142  1.5886
 6319TIP3   OH240447   2.839   2.043  12.539 -0.6039 -0.2978  0.1742
 6319TIP3    H140448   2.837   2.032  12.634  0.0526  1.9927  0.5121
 6319TIP3    H240449   2.748   2.033  12.511 -1.0655  0.6591  1.2744
 6320TIP3   OH240450   4.086   4.613   3.921  0.0976  0.1311 -0.2468
 6320TIP3    H140451   4.099   4.544   3.856 -0.7988 -0.6594  0.3867
 6320TIP3    H240452   4.151   4.595   3.989 -0.8387 -0.7806  0.4492
 6321TIP3   OH240453   4.869   0.749   0.572  0.5571 -0.2936  0.0191
 6321TIP3    H140454   4.923   0.825   0.549 -0.5509 -0.1167 -2.2047
 6321TIP3    H240455   4.931   0.676   0.573  1.3581  0.3755  0.6142
 6322TIP3   OH240456   4.665   5.741  17.126  0.5091 -0.2477 -0.3326
 6322TIP3    H140457   4.640   5.658  17.086 -0.1614 -0.1492 -0.1354
 6322TIP3    H240458   4.632   5.808  17.066  0.7649 -0.1209 -0.3323
 6323TIP3   OH240459   4.987   4.906  10.811 -0.1468 -0.4791 -0.5336
 6323TIP3    H140460   4.963   4.971  10.877 -1.8520 -2.2834  0.7582
 6323TIP3    H240461   4.971   4.822  10.854 -0.8048 -1.7491 -3.0596
 6324TIP3   OH240462   5.413   6.450   3.896 -0.1714 -0.5230 -0.2912
 6324TIP3    H140463   5.502   6.472   3.867  0.1077  0.3914  1.1496
 6324TIP3    H240464   5.357   6.513   3.850 -0.0096 -0.7219 -0.7610
 6325TIP3   OH240465   4.730   0.147  13.970 -0.0710  0.1453 -0.8993
 6325TIP3    H140466   4.692   0.145  13.883 -0.4525 -0.9746 -0.7301
 6325TIP3    H240467   4.657   0.172  14.027  0.1616  0.8115 -0.8870
 6326TIP3   OH240468   6.309   1.679   0.695  0.0756 -0.2016  0.4998
 6326TIP3    H140469   6.250   1.610   0.666 -2.7831  1.5571  1.6728
 6326TIP3    H240470   6.303   1.677   0.791  0.5185  1.1619  0.5839
 6327TIP3   OH240471   0.115   1.100  12.865  0.2348  0.1109  0.0151
 6327TIP3    H140472   0.180   1.046  12.911  1.2526  0.4920 -0.9328
 6327TIP3    H240473   0.160   1.128  12.785 -1.1324  0.3304 -0.6966
 6328TIP3   OH240474   3.699   5.028  15.807  0.2495 -0.0601  0.8564
 6328TIP3    H140475   3.745   4.990  15.732 -1.0390 -1.7651  0.8592
 6328TIP3    H240476   3.725   5.120  15.807  0.8963 -0.1821 -1.2094
 6329TIP3   OH240477   2.305   0.142   1.191 -0.1846 -0.8068 -0.2522
 6329TIP3    H140478   2.395   0.113   1.208 -0.1938  0.0847  1.4687
 6329TIP3    H240479   2.250   0.071   1.224 -0.1319 -0.5833  0.3288
 6330TIP3   OH240480   3.483   6.264   4.166  0.2008  0.1946  0.0289
 6330TIP3    H140481   3.487   6.182   4.215 -0.4068 -0.9575 -1.7471
 6330TIP3    H240482   3.528   6.245   4.083  0.5102  1.8225 -0.2169
 6331TIP3   OH240483   0.123   1.374   5.329  0.6703 -0.3836  0.2396
 6331TIP3    H140484   0.056   1.330   5.382  0.6053 -3.9975 -2.4764
 6331TIP3    H240485   0.081   1.454   5.298 -1.3493 -1.1077  0.9756
 6332TIP3   OH240486   3.066   0.268  10.956  0.3189 -0.3925 -0.3796
 6332TIP3    H140487   3.031   0.187  10.992  0.3669 -0.6535 -0.9155
 6332TIP3    H240488   3.077   0.325  11.032 -1.0054 -0.3966 -0.1491
 6333TIP3   OH240489   2.729   5.516   4.899  0.8232  0.2892  0.2280
 6333TIP3    H140490   2.734   5.442   4.838 -0.5999  0.4986 -0.1749
 6333TIP3    H240491   2.724   5.475   4.986  0.5745 -0.0859  0.0416
 6334TIP3   OH240492   4.249   4.855   4.036  0.0708 -0.2473  0.1062
 6334TIP3    H140493   4.283   4.936   3.997 -0.5067 -0.1353 -0.1896
 6334TIP3    H240494   4.323   4.796   4.039  0.2191 -0.1247 -0.8222
 6335TIP3   OH240495   1.610   2.741  11.484 -0.1618  0.1503  0.3026
 6335TIP3    H140496   1.568   2.800  11.422 -0.7186 -0.0371  0.5016
 6335TIP3    H240497   1.539   2.687  11.519  0.4318 -1.1106 -0.3775
 6336TIP3   OH240498   2.399   2.743   4.429  0.5207  0.3568 -0.3845
 6336TIP3    H140499   2.325   2.693   4.463  1.1367  0.6175  1.4245
 6336TIP3    H240500   2.377   2.758   4.337 -1.1794 -0.4480 -0.1493
 6337TIP3   OH240501   4.387   1.756  12.042  0.1488  0.1496 -0.0895
 6337TIP3    H140502   4.477   1.785  12.027  0.4683 -0.1943  1.0866
 6337TIP3    H240503   4.334   1.810  11.983  1.1622  0.0015 -1.1683
 6338TIP3   OH240504   4.949   5.857   5.869 -0.1049 -0.5105 -0.7373
 6338TIP3    H140505   4.934   5.833   5.961  0.8418 -2.0516 -0.9440
 6338TIP3    H240506   5.004   5.935   5.873 -0.2718 -0.4236  0.0033
 6339TIP3   OH240507   4.982   1.148  13.409 -0.3597  0.3119  0.6923
 6339TIP3    H140508   5.053   1.116  13.354 -1.6992  1.1782 -1.7138
 6339TIP3    H240509   4.909   1.089  13.390 -1.2626  1.4775  0.4213
 6340TIP3   OH240510   2.750   3.160   2.081 -0.2291 -0.0688 -0.6629
 6340TIP3    H140511   2.821   3.145   2.143  0.7566  0.8404 -1.5490
 6340TIP3    H240512   2.680   3.199   2.134  0.4236  0.2581 -0.0276
 6341TIP3   OH240513   5.568   1.154   0.155 -0.3963  0.0705  0.4093
 6341TIP3    H140514   5.571   1.063   0.186 -0.1674  0.0535  0.3451
 6341TIP3    H240515   5.505   1.153   0.083  1.2223 -0.5158 -1.0678
 6342TIP3   OH240516   0.492   2.527   3.250  0.0675 -0.0169 -0.0326
 6342TIP3    H140517   0.456   2.445   3.284  1.3780  0.3084  2.4266
 6342TIP3    H240518   0.570   2.500   3.201 -0.2925 -0.3431 -0.4221
 6343TIP3   OH240519   1.271   0.615  11.068  0.1902 -0.1430 -0.1627
 6343TIP3    H140520   1.346   0.631  11.011  0.5774  1.1931  0.6762
 6343TIP3    H240521   1.208   0.570  11.012  2.5926 -3.8995 -0.2131
 6344TIP3   OH240522   3.008   2.051   2.522  0.3008 -1.0893  0.7166
 6344TIP3    H140523   2.934   1.997   2.549 -0.6603 -0.4946 -0.6118
 6344TIP3    H240524   2.986   2.140   2.552 -0.2060 -0.6543 -0.8454
 6345TIP3   OH240525   6.015   6.705   2.377 -0.0925  0.4454  0.6398
 6345TIP3    H140526   5.942   6.701   2.316 -1.1314  1.6225  1.7444
 6345TIP3    H240527   6.090   6.669   2.329 -1.3786 -0.7650 -0.5301
 6346TIP3   OH240528   5.247   4.588  11.809  0.0827 -0.1892 -0.6521
 6346TIP3    H140529   5.343   4.588  11.807  0.0681 -1.2611 -1.6094
 6346TIP3    H240530   5.226   4.627  11.894  1.3590  0.2807 -0.5268
 6347TIP3   OH240531   1.787   2.096   3.366 -0.0731 -0.5591 -0.1179
 6347TIP3    H140532   1.745   2.182   3.364  1.5603  0.2597 -2.5789
 6347TIP3    H240533   1.714   2.034   3.368 -1.2821  0.8204  1.1065
 6348TIP3   OH240534   4.622   1.763   5.762  0.2889  0.2509 -0.2136
 6348TIP3    H140535   4.661   1.692   5.813  1.3840  1.1098  0.1841
 6348TIP3    H240536   4.534   1.731   5.740 -0.2839 -0.1304  2.2872
 6349TIP3   OH240537   5.954   5.614   5.064 -0.3955 -0.6966  0.0498
 6349TIP3    H140538   5.861   5.627   5.079 -0.6523 -1.1833 -1.0367
 6349TIP3    H240539   5.960   5.574   4.978  0.9392  1.8250 -1.1759
 6350TIP3   OH240540   3.662   6.659  16.067 -0.0358 -0.0365 -0.1837
 6350TIP3    H140541   3.609   6.622  16.138  0.0996 -1.3459 -0.7380
 6350TIP3    H240542   3.746   6.614  16.073  0.5080  0.9334 -0.2521
 6351TIP3   OH240543   5.486   3.619  13.125 -0.4039  0.0335  0.0351
 6351TIP3    H140544   5.552   3.623  13.195 -0.6927 -1.1434  0.3958
 6351TIP3    H240545   5.404   3.644  13.167 -0.5355 -0.4505  0.0794
 6352TIP3   OH240546   1.530   1.681   2.158 -0.1469  0.2653  0.0679
 6352TIP3    H140547   1.499   1.767   2.189  0.1576 -0.0351  1.2453
 6352TIP3    H240548   1.514   1.683   2.063 -0.5584  1.4474  0.1420
 6353TIP3   OH240549   0.800   3.340   4.936 -0.0388 -0.4017 -0.4673
 6353TIP3    H140550   0.732   3.398   4.900  2.5870  1.8599 -2.1593
 6353TIP3    H240551   0.818   3.277   4.866  1.2671  0.5650 -1.0348
 6354TIP3   OH240552   1.868   5.226  16.015  0.2047  0.3182  0.0262
 6354TIP3    H140553   1.796   5.163  16.007  1.1200 -0.6782 -0.7168
 6354TIP3    H240554   1.902   5.213  16.103  1.7034 -1.7740 -0.7758
 6355TIP3   OH240555   1.918   2.386  12.798  0.3536 -0.8801 -0.5717
 6355TIP3    H140556   1.896   2.479  12.800  0.1672 -0.9264 -0.3612
 6355TIP3    H240557   2.006   2.382  12.760 -0.4026 -0.7768 -2.4321
 6356TIP3   OH240558   4.754   0.546   6.229 -0.2115 -0.1541  0.3385
 6356TIP3    H140559   4.674   0.545   6.283  0.0431 -1.4588  0.7397
 6356TIP3    H240560   4.762   0.456   6.197 -0.7580  0.7394 -2.5478
 6357TIP3   OH240561   5.387   4.890  14.918  0.3924 -0.3975  0.6220
 6357TIP3    H140562   5.453   4.925  14.857 -2.4911  1.0225 -1.9837
 6357TIP3    H240563   5.382   4.956  14.987 -0.4374  1.1702 -0.8530
 6358TIP3   OH240564   0.911   2.681  14.538  0.1112  0.1903  0.3560
 6358TIP3    H140565   0.916   2.586  14.553 -1.0192  0.4262  2.6507
 6358TIP3    H240566   0.918   2.719  14.626 -3.8484  1.9967  0.0849
 6359TIP3   OH240567   3.218   0.821   3.420  0.1397 -0.3716 -0.2747
 6359TIP3    H140568   3.167   0.827   3.501  2.9744 -0.5318  1.7211
 6359TIP3    H240569   3.294   0.767   3.444  2.0463  1.1052 -2.4983
 6360TIP3   OH240570   3.491   1.716  13.186  0.5121 -0.0392  0.2292
 6360TIP3    H140571   3.519   1.757  13.268  2.1647 -0.7842  0.0814
 6360TIP3    H240572   3.401   1.747  13.173  0.5568  0.8643  1.8081
 6361TIP3   OH240573   4.379   0.830   0.691 -0.0202  0.0188  0.0836
 6361TIP3    H140574   4.469   0.828   0.723  0.0273 -1.6199 -0.0549
 6361TIP3    H240575   4.386   0.815   0.597 -0.4677 -1.1941  0.2231
 6362TIP3   OH240576   3.559   3.170  15.987  0.3913  0.1412 -0.3710
 6362TIP3    H140577   3.485   3.225  16.015 -0.4207  0.3067 -2.6124
 6362TIP3    H240578   3.606   3.151  16.068 -3.0865 -1.4747  1.5304
 6363TIP3   OH240579   1.918   4.528  11.511  0.6318  0.1329  0.3114
 6363TIP3    H140580   1.979   4.557  11.578 -0.1952  1.0406  0.7028
 6363TIP3    H240581   1.965   4.542  11.428  0.8239  1.1620  0.5842
 6364TIP3   OH240582   2.622   1.016   5.400 -0.2584  0.0506 -0.0625
 6364TIP3    H140583   2.635   1.108   5.377  1.6456 -0.4982 -1.4042
 6364TIP3    H240584   2.584   0.977   5.322 -0.0549 -0.5153  0.1186
 6365TIP3   OH240585   1.507   1.060   2.071  0.0988  0.5475 -0.0972
 6365TIP3    H140586   1.602   1.056   2.079 -0.0888 -1.8316  2.2615
 6365TIP3    H240587   1.480   0.969   2.059 -1.9210  1.1334 -0.3527
 6366TIP3   OH240588   4.457   3.150  12.032 -0.4498 -0.0414 -0.1426
 6366TIP3    H140589   4.509   3.221  12.068 -0.5270 -0.4945  0.9202
 6366TIP3    H240590   4.516   3.074  12.033 -1.0725 -0.5448  1.0152
 6367TIP3   OH240591   5.063   1.464  15.704 -0.7061  0.1342  0.5894
 6367TIP3    H140592   5.083   1.373  15.679 -1.6611 -0.5177  2.0558
 6367TIP3    H240593   5.090   1.516  15.629  1.7672 -1.1486  0.4756
 6368TIP3   OH240594   1.637   2.647   3.103  0.0580  0.5693 -0.8916
 6368TIP3    H140595   1.702   2.649   3.033  1.5921 -1.1074  0.3987
 6368TIP3    H240596   1.666   2.714   3.165 -0.0178  0.4961 -0.7778
 6369TIP3   OH240597   2.386   3.102   3.461 -0.1859  0.1384  0.8253
 6369TIP3    H140598   2.451   3.060   3.403 -0.3069 -0.9054  1.4187
 6369TIP3    H240599   2.307   3.050   3.449 -0.9437  1.4175  0.0932
 6370TIP3   OH240600   3.826   3.598   4.700  1.0075 -0.9596 -0.2538
 6370TIP3    H140601   3.815   3.536   4.773  0.8088  0.6709  1.1736
 6370TIP3    H240602   3.745   3.649   4.700  1.8130  0.3623 -0.3311
 6371TIP3   OH240603   1.418   2.299  11.772  0.6381 -0.3565 -0.0876
 6371TIP3    H140604   1.338   2.307  11.823  0.0042 -0.8659 -0.9772
 6371TIP3    H240605   1.397   2.338  11.687  1.7592  0.7233  0.1031
 6372TIP3   OH240606   1.268   0.851   2.782  0.3623  0.2219  0.1126
 6372TIP3    H140607   1.268   0.898   2.698 -0.6779 -0.4011 -0.2588
 6372TIP3    H240608   1.300   0.764   2.761 -1.3314 -0.4118  0.0535
 6373TIP3   OH240609   2.490   0.862   2.105 -0.1763  0.0670 -0.2235
 6373TIP3    H140610   2.489   0.789   2.043 -0.5018 -0.1642  0.0499
 6373TIP3    H240611   2.417   0.845   2.164 -0.4862  0.8055 -0.3763
 6374TIP3   OH240612   4.941   6.669  13.445 -0.2836 -0.0212  0.3315
 6374TIP3    H140613   5.009   6.654  13.379 -0.4001 -0.9964  0.4164
 6374TIP3    H240614   4.924   6.582  13.481 -2.5820 -0.0372 -0.6609
 6375TIP3   OH240615   2.613   3.025  15.337  0.6946  0.1303 -0.2077
 6375TIP3    H140616   2.551   3.076  15.284  1.6409  0.8881 -0.6162
 6375TIP3    H240617   2.567   3.010  15.419 -0.7415 -0.9131 -1.1456
 6376TIP3   OH240618   5.231   5.336  13.558 -0.0465  0.7398  0.5246
 6376TIP3    H140619   5.183   5.255  13.575  1.9560 -0.3757  1.2136
 6376TIP3    H240620   5.297   5.340  13.627  0.6334  2.3755 -0.1664
 6377TIP3   OH240621   3.368   6.767   1.813 -0.3687 -0.3020  0.3671
 6377TIP3    H140622   3.344   6.681   1.777  0.0987 -0.5668  0.6725
 6377TIP3    H240623   3.332   6.830   1.751 -0.9730 -0.7113  0.2893
 6378TIP3   OH240624   6.745   1.333  14.090  0.0271 -0.1145  0.2214
 6378TIP3    H140625   6.825   1.284  14.109  0.0163  0.1543  0.9714
 6378TIP3    H240626   6.731   1.320  13.996 -0.1327 -1.7688  0.4430
 6379TIP3   OH240627   2.261   6.000   4.235  0.1218  0.0199  0.4295
 6379TIP3    H140628   2.186   6.022   4.180 -0.2806  0.2833  1.0698
 6379TIP3    H240629   2.336   6.033   4.186  0.0217 -1.7230 -1.0166
 6380TIP3   OH240630   6.223   4.121  15.060  0.4553 -0.3898 -0.2308
 6380TIP3    H140631   6.223   4.028  15.082  0.1723 -0.3094  0.1250
 6380TIP3    H240632   6.315   4.143  15.047  0.7393 -0.2578  1.6910
 6381TIP3   OH240633   4.539   4.110  12.632  0.1528  0.7311 -0.2937
 6381TIP3    H140634   4.549   4.051  12.707  1.1509  0.0498 -0.9452
 6381TIP3    H240635   4.466   4.166  12.656 -0.3447 -0.2852  0.6598
 6382TIP3   OH240636   1.023   4.108  15.402 -0.4363 -0.5310 -0.3568
 6382TIP3    H140637   0.977   4.040  15.451 -0.5169 -0.2974 -0.1019
 6382TIP3    H240638   0.989   4.190  15.438 -1.0665 -0.3511 -1.3483
 6383TIP3   OH240639   3.069   4.495  14.320 -0.3203  0.4918 -0.6273
 6383TIP3    H140640   3.162   4.490  14.338 -0.6768  0.0149  1.3599
 6383TIP3    H240641   3.056   4.445  14.240  0.7626 -1.9062  0.6158
 6384TIP3   OH240642   0.522   3.886   3.662  0.0908  0.0799 -0.5630
 6384TIP3    H140643   0.549   3.844   3.744  1.8962  0.8512 -0.7281
 6384TIP3    H240644   0.481   3.968   3.690  0.2391  0.1018 -0.4074
 6385TIP3   OH240645   5.128   2.172   5.296 -0.2324 -0.0672  0.2550
 6385TIP3    H140646   5.124   2.113   5.220 -2.0082  0.5020 -0.1249
 6385TIP3    H240647   5.106   2.258   5.261  0.8357  0.5634  1.0899
 6386TIP3   OH240648   4.650   6.490  16.070 -0.5764  0.1784  0.5048
 6386TIP3    H140649   4.636   6.468  16.162 -0.6613 -1.0296  0.2109
 6386TIP3    H240650   4.563   6.481  16.030 -0.4218  0.1073  0.1815
 6387TIP3   OH240651   0.670   0.799  15.023  1.0912 -0.0874  0.3181
 6387TIP3    H140652   0.628   0.885  15.013  0.9786 -0.0138  1.3476
 6387TIP3    H240653   0.757   0.811  14.985  1.2786  0.6601  0.9400
 6388TIP3   OH240654   5.063   4.719   5.831 -0.2249  0.0911 -0.0684
 6388TIP3    H140655   5.099   4.632   5.849 -1.4592 -0.3957  0.1776
 6388TIP3    H240656   5.139   4.772   5.805  0.8508 -0.5614  1.5259
 6389TIP3   OH240657   6.062   0.760   2.912  0.3257  0.2837  0.1402
 6389TIP3    H140658   6.156   0.771   2.895  0.2438  0.3308 -0.2875
 6389TIP3    H240659   6.029   0.715   2.834  0.1874 -0.7088  0.7448
 6390TIP3   OH240660   5.086   0.122  12.111 -0.2843  0.2515  0.3253
 6390TIP3    H140661   4.998   0.086  12.101 -0.2559  0.2278  0.1652
 6390TIP3    H240662   5.073   0.217  12.114 -0.4227  0.2067  1.3730
 6391TIP3   OH240663   1.642   5.027   6.102 -0.5557  0.2679  0.1028
 6391TIP3    H140664   1.652   5.112   6.144 -0.9879  0.8774 -0.9857
 6391TIP3    H240665   1.591   5.045   6.023  0.9904 -0.6872 -1.1704
 6392TIP3   OH240666   6.416   5.500   0.230 -0.4514  0.2620 -0.2445
 6392TIP3    H140667   6.331   5.539   0.209 -1.4075 -1.7458 -0.3734
 6392TIP3    H240668   6.399   5.449   0.309  0.9332  0.7120  0.3661
 6393TIP3   OH240669   1.377   0.489  14.424 -0.3442 -0.0918 -0.0729
 6393TIP3    H140670   1.455   0.543  14.427  0.7407 -1.4169 -2.0857
 6393TIP3    H240671   1.316   0.531  14.484  1.8670  1.0200  1.5260
 6394TIP3   OH240672   3.807   6.601  11.368 -0.1589  0.1922  0.1035
 6394TIP3    H140673   3.851   6.640  11.293  0.6893 -0.2484  0.3630
 6394TIP3    H240674   3.748   6.670  11.400  0.3304  0.7832 -0.2585
 6395TIP3   OH240675   1.125   0.223   1.002 -0.5671 -0.0107  0.5079
 6395TIP3    H140676   1.093   0.284   0.936  1.3365  0.7164  0.2061
 6395TIP3    H240677   1.064   0.233   1.075 -1.4893  0.6982 -0.3237
 6396TIP3   OH240678   3.491   0.460   6.315  0.0807 -0.2059 -0.1323
 6396TIP3    H140679   3.504   0.422   6.402  0.9586  0.7693  0.1697
 6396TIP3    H240680   3.578   0.465   6.277  0.0777  1.9676  0.0395
 6397TIP3   OH240681   5.181   4.910   4.431  0.5894 -0.0832  0.3604
 6397TIP3    H140682   5.133   4.986   4.463 -3.6923 -1.8588 -1.0495
 6397TIP3    H240683   5.219   4.871   4.509 -1.0400  1.0768  1.8133
 6398TIP3   OH240684   0.318   5.455   1.538 -0.0100 -0.1465 -0.3530
 6398TIP3    H140685   0.389   5.509   1.573 -0.1088 -1.0852  1.4100
 6398TIP3    H240686   0.358   5.370   1.522 -0.8767 -0.9875  1.6050
 6399TIP3   OH240687   1.815   6.088   0.845  0.0000 -0.4157 -0.0597
 6399TIP3    H140688   1.788   6.003   0.878  1.1152 -0.2679  1.3494
 6399TIP3    H240689   1.862   6.069   0.763 -1.6306 -0.9256 -0.9095
 6400TIP3   OH240690   4.731   0.420  12.690  0.4275  0.5417  0.4817
 6400TIP3    H140691   4.737   0.405  12.785 -0.7378 -2.0313  0.2356
 6400TIP3    H240692   4.658   0.480  12.679 -0.3493 -0.2522  1.1705
 6401TIP3   OH240693   2.067   5.955   2.023  0.0641 -1.1095  0.0644
 6401TIP3    H140694   2.083   6.040   2.063 -0.4951 -1.1427  0.3667
 6401TIP3    H240695   2.052   5.974   1.931 -0.7075 -0.8011  0.2452
 6402TIP3   OH240696   4.258   5.074   4.938  0.0341 -0.0326  0.4154
 6402TIP3    H140697   4.200   5.025   4.997  0.9200 -1.1877  0.3608
 6402TIP3    H240698   4.340   5.083   4.986 -0.1103  1.4570  0.4271
 6403TIP3   OH240699   6.688   4.907  14.985  0.6569  0.1801  0.3525
 6403TIP3    H140700   6.704   4.812  14.981  1.5847  0.3540 -0.3655
 6403TIP3    H240701   6.765   4.942  15.030  0.4992  0.6257  0.2756
 6404TIP3   OH240702   0.696   4.122  16.162  0.0914 -0.2613 -0.0053
 6404TIP3    H140703   0.705   4.174  16.242  1.1513 -1.1828  0.4947
 6404TIP3    H240704   0.606   4.088  16.165  0.0475 -0.1036  0.6746
 6405TIP3   OH240705   5.842   1.236  12.874 -0.1012 -0.2564 -0.8448
 6405TIP3    H140706   5.759   1.281  12.858  0.7378  2.1360  0.9025
 6405TIP3    H240707   5.874   1.210  12.788 -1.5706  0.8208 -1.7418
 6406TIP3   OH240708   5.642   5.747  12.636  1.0373 -0.0734 -0.4496
 6406TIP3    H140709   5.583   5.673  12.651  2.8025 -1.4910 -0.1864
 6406TIP3    H240710   5.729   5.713  12.656  2.1898  1.4070 -2.5127
 6407TIP3   OH240711   0.328   3.451  12.890 -0.9335 -0.1936  0.3488
 6407TIP3    H140712   0.418   3.476  12.871 -0.9912 -0.1987  0.0629
 6407TIP3    H240713   0.289   3.436  12.804 -0.2640 -3.5425  0.4837
 6408TIP3   OH240714   5.756   6.611   2.592  0.0510 -0.0298  0.1798
 6408TIP3    H140715   5.676   6.588   2.545  0.8201  1.8227 -2.2338
 6408TIP3    H240716   5.781   6.531   2.637 -2.5264 -0.9732  0.1170
 6409TIP3   OH240717   5.490   4.758   6.299 -0.5510 -0.0983 -0.4268
 6409TIP3    H140718   5.486   4.809   6.380  2.7781  1.2800 -0.9588
 6409TIP3    H240719   5.469   4.821   6.230  1.2773  0.0505 -0.9062
 6410TIP3   OH240720   5.754   4.066   2.562  0.0969  0.1447 -0.1730
 6410TIP3    H140721   5.718   3.985   2.596 -0.5196 -0.2623 -1.6821
 6410TIP3    H240722   5.704   4.135   2.606 -1.3320 -0.3777 -0.9154
 6411TIP3   OH240723   4.805   5.786  15.184  0.3030 -0.1452  0.1458
 6411TIP3    H140724   4.851   5.821  15.260  1.1884  0.2176 -0.5447
 6411TIP3    H240725   4.740   5.726  15.221 -0.2173  1.0433  1.2758
 6412TIP3   OH240726   2.497   0.352  12.069  0.0009 -0.0771 -0.0621
 6412TIP3    H140727   2.537   0.411  12.133  0.6504  0.6346 -1.0882
 6412TIP3    H240728   2.412   0.392  12.051 -0.5011 -0.6875  0.8933
 6413TIP3   OH240729   0.263   4.263   2.884  0.4396 -0.1043  0.4373
 6413TIP3    H140730   0.338   4.317   2.860  0.2629  0.3434  0.8683
 6413TIP3    H240731   0.213   4.254   2.803 -0.6170  2.1264  0.7967
 6414TIP3   OH240732   4.517   0.591  12.739 -0.8536 -0.7956  0.1899
 6414TIP3    H140733   4.561   0.612  12.822 -1.1804  0.9687 -0.0565
 6414TIP3    H240734   4.453   0.661  12.727 -1.1934 -1.3274 -1.2916
 6415TIP3   OH240735   3.023   2.184   6.469  0.0220 -0.0714  0.4585
 6415TIP3    H140736   3.089   2.115   6.476  1.0116  0.8958  0.9143
 6415TIP3    H240737   2.955   2.158   6.531  1.3550  0.3936  2.1773
 6416TIP3   OH240738   5.853   3.156  15.585 -0.1816 -0.2908  0.0869
 6416TIP3    H140739   5.865   3.245  15.551  0.4714 -0.8142 -1.1097
 6416TIP3    H240740   5.938   3.115  15.574 -0.3067 -0.8838  1.2272
 6417TIP3   OH240741   2.108   1.141  13.681  0.3561  0.4952  0.1818
 6417TIP3    H140742   2.155   1.058  13.682 -2.8740 -1.5848 -2.0639
 6417TIP3    H240743   2.022   1.121  13.718 -0.0576  3.2271  0.9253
 6418TIP3   OH240744   0.904   2.899   2.134  0.3289 -0.5841  0.3763
 6418TIP3    H140745   0.864   2.974   2.177  1.3113 -0.0115  0.3248
 6418TIP3    H240746   0.908   2.923   2.042  1.8805 -0.0990  0.5391
 6419TIP3   OH240747   1.945   4.223   6.248  0.4684 -0.0341 -0.0326
 6419TIP3    H140748   1.891   4.156   6.207  1.8560 -1.1486 -0.1277
 6419TIP3    H240749   2.029   4.180   6.262  0.9401  1.2348  1.2833
 6420TIP3   OH240750   2.186   5.395   4.406 -0.0077 -0.1244 -0.0947
 6420TIP3    H140751   2.186   5.481   4.364 -1.9552 -0.2666 -0.4996
 6420TIP3    H240752   2.242   5.406   4.483 -2.3984  2.3861  1.4901
 6421TIP3   OH240753   6.519   4.828  12.336  0.7905  0.3273  0.3807
 6421TIP3    H140754   6.587   4.879  12.292  0.4524  1.7542  1.4686
 6421TIP3    H240755   6.567   4.770  12.394  1.1090  0.9935  0.7965
 6422TIP3   OH240756   5.844   3.869  14.785 -0.7050 -0.2566  0.1036
 6422TIP3    H140757   5.798   3.945  14.821 -2.8320 -1.0908 -0.7165
 6422TIP3    H240758   5.864   3.815  14.861 -0.5847  0.3793  0.5347
 6423TIP3   OH240759   6.325   6.144   4.885 -0.4727 -0.2626 -0.3386
 6423TIP3    H140760   6.275   6.226   4.891 -2.2930 -1.3939  2.1644
 6423TIP3    H240761   6.269   6.085   4.834  0.0412 -0.4316 -0.7079
 6424TIP3   OH240762   4.603   2.500  11.221  0.0851 -0.2332 -0.0561
 6424TIP3    H140763   4.524   2.522  11.172  0.2450  0.4851 -0.0040
 6424TIP3    H240764   4.608   2.405  11.217  0.4448 -0.1805 -1.9953
 6425TIP3   OH240765   4.449   4.981  15.518  0.5547 -0.5901 -0.6329
 6425TIP3    H140766   4.502   5.001  15.441  0.3482 -2.4433 -1.3292
 6425TIP3    H240767   4.384   5.050  15.522  1.7201  0.5736 -0.9877
 6426TIP3   OH240768   0.662   5.815  15.171  0.7051 -0.2128  0.0963
 6426TIP3    H140769   0.686   5.793  15.261  0.2893 -3.4674 -0.4810
 6426TIP3    H240770   0.729   5.877  15.143  0.8303  0.9225  2.6015
 6427TIP3   OH240771   5.305   3.713  16.853  0.2398 -1.2363  0.6304
 6427TIP3    H140772   5.384   3.699  16.801  1.0112  0.3374  1.2898
 6427TIP3    H240773   5.333   3.700  16.943 -0.4917 -1.5707  0.8171
 6428TIP3   OH240774   5.226   5.516  11.145 -0.5494 -0.0685  0.1424
 6428TIP3    H140775   5.228   5.479  11.233 -1.1290 -0.3813  0.0291
 6428TIP3    H240776   5.280   5.595  11.151 -0.7661  0.0332  0.8361
 6429TIP3   OH240777   3.328   1.696  12.853 -0.8110  0.2422 -0.6519
 6429TIP3    H140778   3.412   1.661  12.886  0.1294  0.6733 -2.4587
 6429TIP3    H240779   3.280   1.720  12.932  1.4003  1.4388  0.4372
 6430TIP3   OH240780   4.104   2.468  10.576  0.6672 -0.0727 -0.0769
 6430TIP3    H140781   4.155   2.393  10.545  0.4369 -0.4251  0.3939
 6430TIP3    H240782   4.025   2.429  10.613  0.3563  0.4309 -0.2028
 6431TIP3   OH240783   5.824   2.669   3.027  0.3019 -0.1919  0.3627
 6431TIP3    H140784   5.728   2.672   3.031  0.0927 -1.2977 -2.1349
 6431TIP3    H240785   5.848   2.735   2.961  0.9975 -1.7060 -0.9744
 6432TIP3   OH240786   1.755   6.168   4.755  0.0769 -0.5022 -0.2576
 6432TIP3    H140787   1.707   6.251   4.750 -0.1857 -0.6475 -0.1548
 6432TIP3    H240788   1.783   6.162   4.846 -0.0380 -0.5993 -0.2279
 6433TIP3   OH240789   3.719   6.409  14.422 -0.2386 -0.2833  0.2879
 6433TIP3    H140790   3.633   6.448  14.440 -0.8429 -1.2518 -0.3953
 6433TIP3    H240791   3.779   6.484  14.423 -0.9358  0.3087  1.6108
 6434TIP3   OH240792   4.072   2.788   4.540  0.5904  0.3402  0.1770
 6434TIP3    H140793   4.061   2.765   4.632  0.8032 -0.9215 -0.0964
 6434TIP3    H240794   4.164   2.769   4.521  0.3247 -0.2907 -0.5231
 6435TIP3   OH240795   4.190   1.891   3.802  0.2141  0.4810  0.2424
 6435TIP3    H140796   4.252   1.824   3.827 -0.5667 -0.3536 -0.0076
 6435TIP3    H240797   4.172   1.874   3.709  0.1133  1.1149  0.1404
 6436TIP3   OH240798   0.889   6.458  16.863 -0.2436 -0.3696 -0.1323
 6436TIP3    H140799   0.861   6.454  16.955  2.7770 -1.6012  0.8492
 6436TIP3    H240800   0.948   6.533  16.860 -0.5589 -0.1554 -1.1644
 6437TIP3   OH240801   0.458   1.542   2.875  0.4192  0.1761 -0.1902
 6437TIP3    H140802   0.514   1.619   2.866  3.5096 -1.5586  2.1336
 6437TIP3    H240803   0.479   1.487   2.800  0.1859  0.4409 -0.4517
 6438TIP3   OH240804   0.397   5.510   0.616  0.1731  0.9405  0.2138
 6438TIP3    H140805   0.479   5.480   0.655 -0.0829  0.5126  0.4271
 6438TIP3    H240806   0.330   5.454   0.655  0.0950 -0.8934 -2.3166
 6439TIP3   OH240807   3.731   2.019  15.129  0.1013  0.3180  0.4689
 6439TIP3    H140808   3.639   1.994  15.114  0.5277 -0.9043 -0.2072
 6439TIP3    H240809   3.738   2.027  15.224 -0.3160 -1.2077  0.6523
 6440TIP3   OH240810   5.709   5.507  14.582  0.4239 -0.3812  0.0574
 6440TIP3    H140811   5.654   5.447  14.633  0.4320  0.7197  1.4291
 6440TIP3    H240812   5.647   5.556  14.528  0.0657  0.5178  1.2423
 6441TIP3   OH240813   4.802   4.188  16.963  0.0581 -0.4742 -0.2225
 6441TIP3    H140814   4.836   4.168  16.876  3.7372 -0.1184  0.9768
 6441TIP3    H240815   4.783   4.103  17.002 -0.9547 -0.6613 -1.0706
 6442TIP3   OH240816   1.204   2.609   4.649 -0.0587 -0.4116 -0.9179
 6442TIP3    H140817   1.174   2.536   4.595 -0.1059  0.0274 -1.4934
 6442TIP3    H240818   1.175   2.687   4.603 -2.0707 -0.0117  0.8721
 6443TIP3   OH240819   0.565   4.883  12.263  0.0656  0.2574  0.1729
 6443TIP3    H140820   0.649   4.905  12.303 -0.1965  0.4006  0.6539
 6443TIP3    H240821   0.584   4.873  12.170  0.7109 -0.2185  0.3517
 6444TIP3   OH240822   1.497   2.655   2.673  0.4435 -0.3912 -0.3481
 6444TIP3    H140823   1.448   2.658   2.755  0.9749 -0.2004 -0.0336
 6444TIP3    H240824   1.582   2.693   2.694 -0.5397  2.9769 -1.8162
 6445TIP3   OH240825   3.608   4.056   4.075  0.5562 -0.4851 -0.7823
 6445TIP3    H140826   3.518   4.055   4.042  0.1180  2.5900 -0.0425
 6445TIP3    H240827   3.662   4.043   3.998 -0.4682 -2.0159 -1.3026
 6446TIP3   OH240828   5.992   3.769   2.943 -0.0321 -0.0515 -0.4572
 6446TIP3    H140829   5.971   3.760   3.036 -0.7335  0.0613 -0.5983
 6446TIP3    H240830   5.957   3.855   2.919  3.2023  1.5020 -0.0297
 6447TIP3   OH240831   6.776   5.013  16.447 -0.1413 -0.3030 -0.9241
 6447TIP3    H140832   6.794   5.084  16.385  1.6202  2.3445  2.2829
 6447TIP3    H240833   6.684   5.024  16.469  0.0307  0.8100 -0.7119
 6448TIP3   OH240834   6.010   3.010  13.339 -0.0917 -0.1463  0.0478
 6448TIP3    H140835   6.075   2.986  13.273 -0.4913 -0.2709 -0.3019
 6448TIP3    H240836   6.055   2.999  13.423 -0.2388 -2.0475 -0.0950
 6449TIP3   OH240837   5.301   2.167  16.729 -0.3681  0.5307  0.1049
 6449TIP3    H140838   5.223   2.222  16.739  0.0410  0.8758  1.7084
 6449TIP3    H240839   5.276   2.084  16.769  0.4835  1.0761  1.8589
 6450TIP3   OH240840   0.829   3.113   2.736 -0.2047 -0.2587 -0.7660
 6450TIP3    H140841   0.794   3.168   2.806 -1.1849  0.2108 -1.5993
 6450TIP3    H240842   0.883   3.173   2.683  1.5238 -0.8712  0.2344
 6451TIP3   OH240843   4.145   1.286   0.854  0.1493  0.0837  0.1114
 6451TIP3    H140844   4.201   1.213   0.826 -0.0307 -0.2756  0.6794
 6451TIP3    H240845   4.056   1.250   0.854 -0.0863  0.6412 -0.7425
 6452TIP3   OH240846   2.023   6.648   0.440  0.5164 -0.4307 -0.4903
 6452TIP3    H140847   2.001   6.704   0.365 -1.2199  0.6216  0.7294
 6452TIP3    H240848   1.938   6.621   0.475  1.2622 -3.8968 -0.9771
 6453TIP3   OH240849   0.692   2.377   2.390  0.6656 -0.3826  0.2359
 6453TIP3    H140850   0.768   2.431   2.369  0.9114 -0.5865  0.5874
 6453TIP3    H240851   0.715   2.335   2.473  0.6239 -1.2999 -0.2115
 6454TIP3   OH240852   5.697   0.125  16.983  0.2106  0.3324  0.3806
 6454TIP3    H140853   5.755   0.198  17.007  1.0023  0.0763 -0.6774
 6454TIP3    H240854   5.653   0.155  16.903 -1.0292  0.4599  1.0912
 6455TIP3   OH240855   0.155   0.060  12.319 -0.2376  0.0119 -0.4246
 6455TIP3    H140856   0.246   0.074  12.344  0.1604  1.9705 -2.6231
 6455TIP3    H240857   0.157  -0.015  12.260  0.1610  0.8196 -1.4504
 6456TIP3   OH240858   0.021   1.098  10.476  0.0780  0.2744 -0.0214
 6456TIP3    H140859  -0.038   1.048  10.532  0.3475 -0.0403 -0.0130
 6456TIP3    H240860   0.053   1.035  10.411  1.1352  0.1900  0.5459
 6457TIP3   OH240861   2.197   5.352   4.116  0.2010  0.1580  0.2420
 6457TIP3    H140862   2.167   5.262   4.108  0.1365  0.2059 -0.0884
 6457TIP3    H240863   2.238   5.357   4.203  2.6974 -0.9429 -0.7539
 6458TIP3   OH240864   0.170   2.275  17.161  0.0293 -0.1006  0.1910
 6458TIP3    H140865   0.107   2.322  17.215 -1.8776 -2.4193  0.1472
 6458TIP3    H240866   0.242   2.254  17.221 -1.0477 -0.7488  1.3055
 6459TIP3   OH240867   6.703   1.089   3.396  0.3832 -0.1650  0.4320
 6459TIP3    H140868   6.644   1.154   3.358  1.2344  0.3041 -0.1139
 6459TIP3    H240869   6.659   1.005   3.383 -0.4791  0.2468  0.6704
 6460TIP3   OH240870   3.241   4.943  11.261 -0.4055 -0.0880  0.4245
 6460TIP3    H140871   3.217   4.890  11.338  0.6378 -0.2695  0.6364
 6460TIP3    H240872   3.223   4.886  11.186  1.5365 -1.1130  0.6893
 6461TIP3   OH240873   5.230   1.263   3.921 -0.3798 -0.4714 -0.7469
 6461TIP3    H140874   5.299   1.231   3.980 -0.7063 -0.0396 -0.1114
 6461TIP3    H240875   5.253   1.227   3.835  0.7584 -0.1700 -0.5914
 6462TIP3   OH240876   1.522   3.014  12.841  0.2667 -0.3888 -0.0061
 6462TIP3    H140877   1.587   3.014  12.912 -0.4397 -2.5617  0.7343
 6462TIP3    H240878   1.465   3.088  12.860  0.4650 -0.5580  1.3578
 6463TIP3   OH240879   2.739   1.046  13.479  0.1626  0.0977  1.1548
 6463TIP3    H140880   2.707   1.115  13.537  2.5240  1.2663  1.2104
 6463TIP3    H240881   2.824   1.022  13.517 -0.0230 -1.9414  0.3887
 6464TIP3   OH240882   3.777   3.179  12.925 -0.3805 -0.5152  0.0448
 6464TIP3    H140883   3.776   3.112  12.857 -1.0365 -0.3333 -0.1323
 6464TIP3    H240884   3.738   3.256  12.884 -1.6837 -0.6808  0.8957
 6465TIP3   OH240885   0.627   0.821   2.706 -0.0070  0.2306  0.1953
 6465TIP3    H140886   0.706   0.858   2.744  0.4714  0.6700 -1.1864
 6465TIP3    H240887   0.627   0.730   2.735  0.0389  0.6766  1.6773
 6466TIP3   OH240888   0.705   1.738   1.696  0.3783  0.4332 -0.1996
 6466TIP3    H140889   0.635   1.691   1.651  0.6525  2.2545 -2.7087
 6466TIP3    H240890   0.771   1.672   1.715 -1.6726 -1.2354  1.7486
 6467TIP3   OH240891   0.180   1.213   4.953  0.0769 -0.0733  0.0103
 6467TIP3    H140892   0.132   1.287   4.915  0.3284  0.2399  0.3071
 6467TIP3    H240893   0.135   1.136   4.917 -1.2273  0.2012  0.9822
 6468TIP3   OH240894   4.471   1.201  12.399 -0.1515  0.1164 -0.1970
 6468TIP3    H140895   4.521   1.275  12.365  1.8741  0.0898  2.4375
 6468TIP3    H240896   4.398   1.240  12.446 -0.0478  0.3723 -0.2464
 6469TIP3   OH240897   3.223   6.040  13.811  0.2174 -0.4203  0.3204
 6469TIP3    H140898   3.221   6.130  13.778 -0.7055 -0.2512  0.8098
 6469TIP3    H240899   3.149   6.035  13.871  0.2597 -1.5140  0.2962
 6470TIP3   OH240900   6.031   1.002   5.704 -0.0047 -0.0579 -0.3767
 6470TIP3    H140901   6.032   1.094   5.731  1.3247  0.1327 -0.9803
 6470TIP3    H240902   6.118   0.969   5.730 -1.1030 -1.6956  1.5943
 6471TIP3   OH240903   6.626   6.060   0.790  0.6155  0.2289  0.2976
 6471TIP3    H140904   6.594   6.148   0.808 -0.5682 -0.1984  0.3445
 6471TIP3    H240905   6.686   6.071   0.716  1.7879  1.2997  1.3610
 6472TIP3   OH240906   0.209   4.602  14.786  0.0989 -0.7849  0.2211
 6472TIP3    H140907   0.153   4.527  14.767  0.0487 -0.4799 -0.9321
 6472TIP3    H240908   0.205   4.655  14.706  0.7681  0.0356  0.7224
 6473TIP3   OH240909   4.238   0.587  10.670  0.0865 -0.3698  0.1354
 6473TIP3    H140910   4.221   0.535  10.749  0.6323 -1.9206 -0.7369
 6473TIP3    H240911   4.154   0.592  10.626 -0.6376  1.9605  1.5926
 6474TIP3   OH240912   4.117   6.493   1.249 -0.3381  0.1770  0.8741
 6474TIP3    H140913   4.200   6.492   1.202 -0.5922 -0.7455  0.4049
 6474TIP3    H240914   4.141   6.510   1.341  0.4511 -0.8487  0.8746
 6475TIP3   OH240915   1.826   5.197  11.650  0.0197 -0.3462  0.0745
 6475TIP3    H140916   1.792   5.109  11.635 -0.2381 -0.3529  0.6910
 6475TIP3    H240917   1.906   5.184  11.700 -0.2714 -0.2063  0.5808
 6476TIP3   OH240918   3.268   2.438  13.569  0.3407  0.0212  0.0207
 6476TIP3    H140919   3.315   2.521  13.567  0.7570 -0.0832  2.1620
 6476TIP3    H240920   3.176   2.463  13.573  0.5013  0.5469  2.4095
 6477TIP3   OH240921   4.639   6.599  10.867  0.0331  0.9756 -0.4225
 6477TIP3    H140922   4.728   6.576  10.840 -0.0445 -1.0994  0.9049
 6477TIP3    H240923   4.597   6.627  10.786  0.5953 -2.3940 -2.0832
 6478TIP3   OH240924   1.751   6.081  13.995 -0.1426 -0.2362  0.1212
 6478TIP3    H140925   1.698   6.002  14.002  0.7887 -0.8440  0.3900
 6478TIP3    H240926   1.802   6.083  14.076 -0.8068  1.1318  0.5413
 6479TIP3   OH240927   1.646   6.311   5.563  0.7024  0.0136  0.0366
 6479TIP3    H140928   1.561   6.336   5.525  1.0143  0.5198 -0.3372
 6479TIP3    H240929   1.628   6.300   5.656  0.8837  3.3837  0.5704
 6480TIP3   OH240930   5.520   1.902  11.049  0.1682 -0.2436  0.3210
 6480TIP3    H140931   5.491   1.986  11.013 -1.8678 -0.2237  1.8292
 6480TIP3    H240932   5.614   1.899  11.031  0.6168  3.0473  1.5239
 6481TIP3   OH240933   3.073   2.860  14.540  0.0412  0.5771 -0.1572
 6481TIP3    H140934   2.981   2.875  14.521  0.1498  1.3179 -0.1412
 6481TIP3    H240935   3.083   2.886  14.631  0.5045  1.6768 -0.5048
 6482TIP3   OH240936   0.720   5.001  15.592  0.3260  0.2330  0.4085
 6482TIP3    H140937   0.647   4.992  15.653  0.2177  0.6061  0.3358
 6482TIP3    H240938   0.737   5.095  15.589  0.2152  0.2354 -0.2752
 6483TIP3   OH240939   0.202   3.189  15.897  0.0764  0.3721  0.0661
 6483TIP3    H140940   0.253   3.224  15.824  0.7527  0.7867  0.7226
 6483TIP3    H240941   0.171   3.266  15.944 -0.6601  0.1145  0.0147
 6484TIP3   OH240942   2.539   2.931  10.985 -0.0147  0.2550 -0.4654
 6484TIP3    H140943   2.562   3.024  10.985 -1.5214  0.6837  1.1484
 6484TIP3    H240944   2.444   2.929  10.994 -0.0581 -1.4592 -0.8531
 6485TIP3   OH240945   4.846   4.188   5.395 -0.3700  0.6244  0.0804
 6485TIP3    H140946   4.793   4.175   5.316  1.1703 -0.3680 -0.8344
 6485TIP3    H240947   4.901   4.264   5.374 -1.1336  1.4074  0.8692
 6486TIP3   OH240948   2.640   1.686  17.339  0.3767  0.0757 -0.3770
 6486TIP3    H140949   2.675   1.652  17.421  1.1145  0.0806 -0.6769
 6486TIP3    H240950   2.546   1.671  17.345  0.4654 -0.2597  0.3123
 6487TIP3   OH240951   6.699   4.523   5.204  0.1141  0.4795  0.5516
 6487TIP3    H140952   6.753   4.475   5.266 -0.1954  0.4776  0.8251
 6487TIP3    H240953   6.628   4.560   5.258 -0.7268 -0.3614  0.0406
 6488TIP3   OH240954   3.275   2.828   1.135 -0.1329  0.1568 -0.1131
 6488TIP3    H140955   3.189   2.822   1.176 -0.3246  2.1940 -0.1493
 6488TIP3    H240956   3.299   2.737   1.118 -3.0165 -0.4348 -1.6666
 6489TIP3   OH240957   5.831   5.261  13.391 -0.1819  0.0310  0.1125
 6489TIP3    H140958   5.924   5.283  13.384  0.3756 -2.2037 -0.4331
 6489TIP3    H240959   5.810   5.275  13.483  0.5348  1.1063  0.1288
 6490TIP3   OH240960   2.077   2.282   3.516  0.2182  0.0013 -0.1399
 6490TIP3    H140961   2.005   2.341   3.537 -0.1244 -0.7138  0.7855
 6490TIP3    H240962   2.082   2.284   3.420 -0.7425  0.4055 -0.1996
 6491TIP3   OH240963   2.511   6.060   3.301  0.1223  0.7564 -0.0013
 6491TIP3    H140964   2.509   5.976   3.254  0.3837  0.6846  0.1129
 6491TIP3    H240965   2.489   6.125   3.234  0.5976  0.6651 -0.2544
 6492TIP3   OH240966   3.831   0.454  12.877 -0.3730 -0.1771 -0.1694
 6492TIP3    H140967   3.761   0.507  12.915 -0.1045 -0.4714  0.7610
 6492TIP3    H240968   3.791   0.370  12.858 -0.6187  0.1111 -0.9783
 6493TIP3   OH240969   0.210   1.928  15.157 -0.2345 -0.2589 -0.3696
 6493TIP3    H140970   0.241   1.858  15.101  1.9771  0.9475 -0.7724
 6493TIP3    H240971   0.231   1.899  15.246 -0.6626 -0.7271 -0.4206
 6494TIP3   OH240972   0.487   3.544   4.140  0.0621  0.4258 -0.0203
 6494TIP3    H140973   0.574   3.580   4.120 -1.4201  2.8258 -2.8903
 6494TIP3    H240974   0.489   3.456   4.101  1.9211 -0.6770  2.2495
 6495TIP3   OH240975   0.236   4.618  15.148  0.1230 -1.0224 -0.4675
 6495TIP3    H140976   0.296   4.690  15.167 -0.6396 -0.4456 -0.1913
 6495TIP3    H240977   0.272   4.577  15.070 -0.1906  0.5278 -1.4590
 6496TIP3   OH240978   3.311   6.410  13.384  0.7382 -0.4300 -0.5831
 6496TIP3    H140979   3.312   6.324  13.342  0.7569 -0.7364  0.0327
 6496TIP3    H240980   3.269   6.395  13.468 -2.0618  0.7446 -1.6614
 6497TIP3   OH240981   2.816   5.857  15.634 -0.6631 -0.5667 -0.4411
 6497TIP3    H140982   2.903   5.817  15.641 -1.4812 -2.1786  1.3739
 6497TIP3    H240983   2.791   5.842  15.542  1.1987  0.5297 -1.1791
 6498TIP3   OH240984   0.807   2.011   3.789  0.1541 -0.0037 -0.2978
 6498TIP3    H140985   0.859   2.091   3.789 -0.6875  0.5588 -1.0061
 6498TIP3    H240986   0.783   1.998   3.697 -0.6089 -0.4787 -0.0391
 6499TIP3   OH240987   6.350   5.045   4.176 -0.1973  0.0169 -1.4376
 6499TIP3    H140988   6.422   4.984   4.190 -0.7121 -0.4127 -0.6042
 6499TIP3    H240989   6.285   4.995   4.127 -1.4251 -0.7543  0.8451
 6500TIP3   OH240990   1.182   0.073   4.777 -0.2090  0.5703 -0.5460
 6500TIP3    H140991   1.247   0.052   4.709 -1.5840 -1.2997 -1.3757
 6500TIP3    H240992   1.173  -0.007   4.828  0.1355  1.6738  1.3560
 6501TIP3   OH240993   5.584   2.785  15.442  0.0112  0.1632 -0.3352
 6501TIP3    H140994   5.585   2.838  15.362  3.6418  0.6443 -0.1574
 6501TIP3    H240995   5.571   2.847  15.513  1.9084  0.5632 -0.2879
 6502TIP3   OH240996   3.165   0.536   3.933 -0.2896 -0.0979 -0.1162
 6502TIP3    H140997   3.140   0.484   4.010  2.4126 -0.8046  0.3714
 6502TIP3    H240998   3.153   0.477   3.859 -0.3962 -0.3074  0.0662
 6503TIP3   OH240999   2.935   4.435   4.508  0.1727  0.3724 -0.7693
 6503TIP3    H141000   2.926   4.515   4.456 -0.9249  2.4898  2.4339
 6503TIP3    H241001   2.853   4.388   4.494 -0.1852  1.0034 -0.8133
 6504TIP3   OH241002   3.170   5.281  17.193  0.2940  0.0132  0.2420
 6504TIP3    H141003   3.131   5.297  17.279  0.3064 -0.0823  0.2638
 6504TIP3    H241004   3.262   5.263  17.211  0.5709  1.1953  0.1143
 6505TIP3   OH241005   6.227   1.566   5.382 -0.5433 -0.0673 -0.3806
 6505TIP3    H141006   6.196   1.538   5.297  0.0043 -1.8204 -0.0407
 6505TIP3    H241007   6.302   1.509   5.401  0.1494  1.1324  0.7139
 6506TIP3   OH241008   0.941   0.765  14.896 -0.2148  0.6425 -0.1060
 6506TIP3    H141009   0.980   0.749  14.982 -0.7665 -0.7905 -0.1017
 6506TIP3    H241010   0.934   0.679  14.855  0.1596  1.3084 -1.6600
 6507TIP3   OH241011   5.158   0.051   4.410 -0.0392 -0.2015 -0.1083
 6507TIP3    H141012   5.149   0.089   4.322 -0.8732  0.2415  0.1524
 6507TIP3    H241013   5.197  -0.035   4.395  0.6470  0.2187 -0.8317
 6508TIP3   OH241014   5.476   4.663   3.211  0.1461  0.1790 -0.2220
 6508TIP3    H141015   5.525   4.721   3.270 -0.1654  0.3868 -0.1675
 6508TIP3    H241016   5.529   4.583   3.207 -0.2570 -0.1669  1.0170
 6509TIP3   OH241017   2.718   3.804   4.696 -0.1641  0.0032  0.1380
 6509TIP3    H141018   2.695   3.711   4.696  1.5219 -0.4516  0.1257
 6509TIP3    H241019   2.766   3.817   4.778 -0.4146  0.8736  0.1512
 6510TIP3   OH241020   5.261   4.147  11.299 -0.0353 -0.0284 -0.5004
 6510TIP3    H141021   5.244   4.090  11.225 -0.0921 -1.9055  0.8862
 6510TIP3    H241022   5.329   4.207  11.269  0.7344 -1.4528 -1.7232
 6511TIP3   OH241023   4.087   3.623  15.782  0.3729  0.3348 -0.0132
 6511TIP3    H141024   4.021   3.556  15.767 -0.5798  1.4479 -0.9232
 6511TIP3    H241025   4.134   3.592  15.860 -0.2371 -1.2112 -0.2127
 6512TIP3   OH241026   0.904   6.178   4.889  0.0458 -0.0283  0.4689
 6512TIP3    H141027   0.986   6.132   4.908 -1.0957 -1.5558  1.9696
 6512TIP3    H241028   0.892   6.238   4.963  0.4207  1.1429 -0.3916
 6513TIP3   OH241029   0.324   4.657  13.142  0.5075 -0.4881 -0.5357
 6513TIP3    H141030   0.342   4.658  13.236 -1.0209 -0.4537 -0.2042
 6513TIP3    H241031   0.406   4.684  13.101  1.0450  0.0262  0.8142
 6514TIP3   OH241032   1.819   4.891   6.248 -0.6617 -0.2274 -0.0443
 6514TIP3    H141033   1.772   4.940   6.181  0.3493 -1.0158 -1.3954
 6514TIP3    H241034   1.779   4.917   6.330 -3.3321 -0.7165 -1.0957
 6515TIP3   OH241035   4.901   0.381  14.649  0.4668  0.1114  0.3060
 6515TIP3    H141036   4.975   0.413  14.701  0.0017  0.4601  0.7739
 6515TIP3    H241037   4.907   0.429  14.567 -0.1067  1.2912  0.9261
 6516TIP3   OH241038   1.776   2.432  15.269  0.1478 -0.2305 -0.1904
 6516TIP3    H141039   1.771   2.395  15.181 -0.0782  1.9066 -1.1264
 6516TIP3    H241040   1.782   2.356  15.327 -0.1184 -1.6892 -2.0111
 6517TIP3   OH241041   0.044   3.024   1.109  0.0633 -0.4261 -0.6339
 6517TIP3    H141042  -0.025   3.088   1.130 -1.8023 -1.8181 -2.1924
 6517TIP3    H241043   0.083   3.003   1.194 -1.9263 -0.1113  0.4281
 6518TIP3   OH241044   4.917   2.964   0.318  0.4079  0.2186 -0.2376
 6518TIP3    H141045   4.966   3.000   0.392  1.6298  1.3555 -1.5367
 6518TIP3    H241046   4.971   2.892   0.285 -0.5860 -0.9051  0.5125
 6519TIP3   OH241047   4.864   3.727   3.556  0.2274  0.5547 -0.2488
 6519TIP3    H141048   4.896   3.808   3.597  0.2370  0.6782 -0.5020
 6519TIP3    H241049   4.875   3.661   3.624  0.3568  0.7372 -0.0890
 6520TIP3   OH241050   1.534   6.725   2.275 -0.1718 -0.1297  0.6370
 6520TIP3    H141051   1.625   6.718   2.246 -0.4977 -1.3948 -0.1614
 6520TIP3    H241052   1.526   6.663   2.347 -0.0270  1.1322  1.7840
 6521TIP3   OH241053   2.825   3.195  13.996 -0.2884  0.2411  0.6049
 6521TIP3    H141054   2.912   3.233  13.989  0.0954 -0.5158  1.0976
 6521TIP3    H241055   2.833   3.130  14.066 -0.9760 -0.5701 -0.0462
 6522TIP3   OH241056   0.149   5.019   4.686 -0.2806 -0.2837 -0.3376
 6522TIP3    H141057   0.212   4.982   4.748  0.5729  1.7941  0.1101
 6522TIP3    H241058   0.163   5.113   4.691 -2.2666  0.1256 -1.5179
 6523TIP3   OH241059   1.384   3.620   6.769 -0.0660 -0.2269 -0.2520
 6523TIP3    H141060   1.423   3.703   6.739 -0.5244  0.6429  1.4506
 6523TIP3    H241061   1.357   3.637   6.859  0.6637 -2.5291  0.4677
 6524TIP3   OH241062   4.721   0.637   1.173  0.1570 -0.1952  0.1731
 6524TIP3    H141063   4.636   0.678   1.188 -0.0053  0.0174 -1.1628
 6524TIP3    H241064   4.700   0.555   1.128  0.6935  0.5482 -1.5248
 6525TIP3   OH241065   5.346   4.093  15.520  0.9822 -0.2231 -0.1637
 6525TIP3    H141066   5.331   4.181  15.485  2.5217  0.2653  0.2788
 6525TIP3    H241067   5.300   4.034  15.461  0.1936  0.8577 -0.6549
 6526TIP3   OH241068   5.640   4.715  17.163  0.3497 -0.2912 -0.1130
 6526TIP3    H141069   5.662   4.724  17.256  0.5281  0.3630 -0.2151
 6526TIP3    H241070   5.695   4.779  17.119 -0.5982  0.2507 -0.5388
 6527TIP3   OH241071   6.551   1.495  16.573  0.1207  0.1652  0.2013
 6527TIP3    H141072   6.576   1.458  16.488  1.5329  0.4435  0.4679
 6527TIP3    H241073   6.634   1.515  16.616 -0.5390 -0.8529  2.0551
 6528TIP3   OH241074   3.454   2.562   0.318  0.2523 -0.6921 -0.2373
 6528TIP3    H141075   3.399   2.606   0.383  0.3984  0.0397 -0.5934
 6528TIP3    H241076   3.476   2.478   0.358 -2.4400 -1.7139 -0.7595
 6529TIP3   OH241077   1.956   6.639   5.998 -0.3234 -0.7115 -0.0493
 6529TIP3    H141078   1.932   6.626   5.906  1.2923 -0.2897 -0.5630
 6529TIP3    H241079   1.876   6.673   6.039 -0.5749  0.8444 -1.6971
 6530TIP3   OH241080   1.994   5.581  11.806  0.1773  0.7322 -0.1611
 6530TIP3    H141081   2.055   5.533  11.862  2.6741  3.7538 -0.0135
 6530TIP3    H241082   2.001   5.538  11.720  1.2744  0.0142  0.2662
 6531TIP3   OH241083   4.883   4.208  15.918 -0.7131  0.1800 -0.1370
 6531TIP3    H141084   4.856   4.300  15.927 -0.7496  0.4217 -2.1699
 6531TIP3    H241085   4.977   4.212  15.901 -0.9494 -0.0220 -1.6323
 6532TIP3   OH241086   0.300   5.260  12.702 -0.1234  0.1694 -0.0378
 6532TIP3    H141087   0.277   5.277  12.611 -1.3035 -1.5741 -0.1069
 6532TIP3    H241088   0.391   5.291  12.710  0.2135 -0.2167 -1.9508
 6533TIP3   OH241089   3.618   6.613  13.736 -0.4611  0.7423 -0.6021
 6533TIP3    H141090   3.600   6.626  13.643  0.9631  0.8079 -0.9010
 6533TIP3    H241091   3.680   6.539  13.738  0.7806  1.7564  0.1390
 6534TIP3   OH241092   3.939   2.660  10.819  0.1034 -0.3614  0.0200
 6534TIP3    H141093   3.933   2.565  10.824  2.1504 -0.6654 -1.8019
 6534TIP3    H241094   3.852   2.689  10.791 -0.2216 -1.7935 -0.5057
 6535TIP3   OH241095   1.926   1.250  14.731  0.2733  0.1591 -0.1523
 6535TIP3    H141096   1.972   1.265  14.814 -1.5766  0.5202  0.8754
 6535TIP3    H241097   1.855   1.315  14.732  0.1233  0.0599 -1.9647
 6536TIP3   OH241098   3.380   5.721   4.742  0.0066 -0.4974 -0.5320
 6536TIP3    H141099   3.336   5.746   4.824 -0.0768  1.4558 -1.1137
 6536TIP3    H241100   3.456   5.670   4.770 -0.6697 -0.8585  0.6937
 6537TIP3   OH241101   3.602   1.858   4.464 -0.3732 -0.3455  0.6150
 6537TIP3    H141102   3.550   1.915   4.408  0.1843 -0.9214 -0.5345
 6537TIP3    H241103   3.602   1.773   4.418 -0.2007 -0.9330  1.6748
 6538TIP3   OH241104   0.443   2.001   0.111  0.1135  0.2342  0.5321
 6538TIP3    H141105   0.375   1.936   0.093 -0.8298  1.5617 -0.8536
 6538TIP3    H241106   0.443   2.010   0.206 -0.8946 -0.5615  0.6236
 6539TIP3   OH241107   6.567   6.754   2.054 -0.2724  0.0870 -0.6028
 6539TIP3    H141108   6.539   6.805   1.979 -0.7388 -0.0899 -0.5496
 6539TIP3    H241109   6.529   6.799   2.130  1.5643  1.2558 -0.2933
 6540TIP3   OH241110   6.510   2.291  13.657  0.2560  0.5193  0.4580
 6540TIP3    H141111   6.419   2.307  13.631  0.4898  0.0159 -0.6951
 6540TIP3    H241112   6.562   2.317  13.581  1.0615  0.3723  0.9434
 6541TIP3   OH241113   0.062   5.430   5.023 -0.1958  0.1137  0.0058
 6541TIP3    H141114   0.102   5.503   4.976 -0.1334  0.8762  1.1997
 6541TIP3    H241115   0.088   5.443   5.115  2.9114 -3.3635 -0.1134
 6542TIP3   OH241116   4.277   5.209  13.572 -0.7605  0.8247  0.1717
 6542TIP3    H141117   4.193   5.210  13.618  0.5063  0.3665  2.6134
 6542TIP3    H241118   4.339   5.174  13.635  1.4178  1.7098 -1.3679
 6543TIP3   OH241119   3.678   3.028  11.944 -0.4613  0.0135 -0.4994
 6543TIP3    H141120   3.602   2.986  11.904 -0.1298  0.0210 -1.1496
 6543TIP3    H241121   3.703   3.096  11.882  0.4527 -0.3895 -0.5877
 6544TIP3   OH241122   5.508   4.931  12.750 -0.2861  0.2186 -0.0696
 6544TIP3    H141123   5.522   4.925  12.655 -1.7539  1.8602 -0.4365
 6544TIP3    H241124   5.519   4.841  12.781 -2.1863 -0.8576 -2.1775
 6545TIP3   OH241125   4.226   3.627   1.285 -0.2391 -0.1846  0.0640
 6545TIP3    H141126   4.256   3.711   1.251  4.3853 -0.6605  2.1997
 6545TIP3    H241127   4.245   3.631   1.379 -1.4236 -3.0047  0.5156
 6546TIP3   OH241128   0.768   4.676  11.559  0.1576 -0.1087 -0.1125
 6546TIP3    H141129   0.772   4.584  11.535 -1.4749 -0.6014  1.3072
 6546TIP3    H241130   0.708   4.715  11.495  1.2415  0.1028 -1.0222
 6547TIP3   OH241131   5.638   5.769  17.296 -0.5816 -0.2173 -0.0328
 6547TIP3    H141132   5.715   5.755  17.351  0.3696 -0.5697 -1.4004
 6547TIP3    H241133   5.568   5.720  17.339 -0.0022 -0.0613  1.1217
 6548TIP3   OH241134   0.559   1.784  13.919 -0.1262  0.1447 -0.4038
 6548TIP3    H141135   0.600   1.701  13.894  1.9271  0.9201  0.2364
 6548TIP3    H241136   0.497   1.801  13.848  0.1869 -1.3978 -1.1037
 6549TIP3   OH241137   1.200   4.086  15.877  0.0776  0.9058  0.0598
 6549TIP3    H141138   1.268   4.077  15.944  0.2613  1.1497 -0.0924
 6549TIP3    H241139   1.150   4.163  15.903  1.1772  2.0150 -0.9677
 6550TIP3   OH241140   5.821   4.678  10.417 -0.2548 -0.1414  0.0662
 6550TIP3    H141141   5.834   4.603  10.474  1.1504 -1.1300 -1.4602
 6550TIP3    H241142   5.732   4.668  10.383 -0.0844 -1.1267 -0.1117
 6551TIP3   OH241143   5.318   1.336   4.222  0.1412  0.3568 -0.5152
 6551TIP3    H141144   5.347   1.287   4.300 -2.4946  0.9020  0.9241
 6551TIP3    H241145   5.396   1.338   4.166  2.4032  0.4899  2.3464
 6552TIP3   OH241146   0.053   1.688  17.290  0.2083  0.2433 -0.0627
 6552TIP3    H141147   0.117   1.646  17.347  0.8649  0.4980 -0.6074
 6552TIP3    H241148  -0.025   1.632  17.297  0.4637 -0.0356  0.6425
 6553TIP3   OH241149   0.800   5.142   4.484  0.4573  0.2094 -0.7890
 6553TIP3    H141150   0.778   5.219   4.433 -0.2860  0.2408 -0.4280
 6553TIP3    H241151   0.895   5.133   4.474  1.0385  2.7047  1.2819
 6554TIP3   OH241152   5.788   1.414   3.217 -0.4881 -0.3708 -0.3540
 6554TIP3    H141153   5.773   1.380   3.305  0.4586 -0.1927 -0.1204
 6554TIP3    H241154   5.880   1.441   3.216 -0.2626 -1.0840 -1.6311
 6555TIP3   OH241155   0.325   0.562  12.590 -0.7944 -0.1472  0.8072
 6555TIP3    H141156   0.352   0.472  12.569 -0.2346 -0.0924  1.2897
 6555TIP3    H241157   0.339   0.610  12.508  1.5795  0.1072  1.2922
 6556TIP3   OH241158   1.007   6.801  14.884  0.3772 -0.2773 -0.7492
 6556TIP3    H141159   1.032   6.874  14.940  0.1367  0.4653 -1.5735
 6556TIP3    H241160   0.950   6.841  14.818  1.2465 -0.9568 -1.9628
 6557TIP3   OH241161   4.938   1.414  12.062  0.5804  0.1507  0.5178
 6557TIP3    H141162   4.888   1.337  12.033  0.3875  1.0931 -1.8442
 6557TIP3    H241163   4.878   1.460  12.120 -0.2998 -0.1468 -0.1263
 6558TIP3   OH241164   3.705   0.160   1.035 -0.6467  0.0827 -0.0078
 6558TIP3    H141165   3.654   0.115   1.102  0.7357  1.2560  1.9056
 6558TIP3    H241166   3.744   0.235   1.079 -0.1871  1.2937 -2.2880
 6559TIP3   OH241167   1.438   3.166   5.068  0.0056 -0.2805 -0.2463
 6559TIP3    H141168   1.443   3.137   4.977 -0.4573 -2.5453  0.3931
 6559TIP3    H241169   1.355   3.213   5.074  0.9720  1.6854 -1.4174
 6560TIP3   OH241170   4.729   6.094  11.256 -0.6338 -0.0409  0.1271
 6560TIP3    H141171   4.649   6.147  11.248 -0.9525 -0.5966 -0.4954
 6560TIP3    H241172   4.755   6.077  11.166  0.3099  0.3002  0.3278
 6561TIP3   OH241173   0.621   4.892   2.863 -0.0712 -0.3304  0.7477
 6561TIP3    H141174   0.529   4.917   2.854 -0.3743 -0.8570  2.1115
 6561TIP3    H241175   0.661   4.966   2.910  0.1275 -0.2695  0.4871
 6562TIP3   OH241176   5.746   1.903  13.175  0.6449  0.1846 -0.5236
 6562TIP3    H141177   5.667   1.937  13.132 -0.1509  0.7921  1.3226
 6562TIP3    H241178   5.818   1.937  13.122 -0.2476  1.8700 -0.7118
 6563TIP3   OH241179   1.285   6.084  11.673  0.2201 -0.1097  0.5696
 6563TIP3    H141180   1.273   6.077  11.578  2.8976  3.5514 -0.2538
 6563TIP3    H241181   1.210   6.136  11.702  0.6816  0.8961 -0.0035
 6564TIP3   OH241182   5.728   1.726  15.182 -0.6363  0.0506  0.4532
 6564TIP3    H141183   5.656   1.753  15.238 -0.8371  0.1353  0.1521
 6564TIP3    H241184   5.804   1.724  15.240 -0.3975  2.2172  0.3097
 6565TIP3   OH241185   3.642   6.480  16.490 -0.4462  0.1238 -0.2722
 6565TIP3    H141186   3.658   6.550  16.553 -0.0270 -0.3131  0.1196
 6565TIP3    H241187   3.598   6.412  16.541  2.3921 -1.4304  0.3188
 6566TIP3   OH241188   5.818   0.825   0.277  0.3615 -0.0077  0.3799
 6566TIP3    H141189   5.769   0.906   0.264 -1.0166 -0.9758 -0.6364
 6566TIP3    H241190   5.828   0.788   0.189  2.4810 -0.1279  0.6081
 6567TIP3   OH241191   4.694   2.933   6.348 -0.1044 -0.0131  0.6072
 6567TIP3    H141192   4.677   2.872   6.420  3.3310 -1.7984  0.1219
 6567TIP3    H241193   4.682   3.020   6.386 -1.9056 -0.9117  2.2533
 6568TIP3   OH241194   0.527   3.656  11.349  0.1248  0.3697 -0.2167
 6568TIP3    H141195   0.576   3.579  11.378  0.3928  0.4126 -0.5436
 6568TIP3    H241196   0.512   3.641  11.256  1.3693  1.3322 -0.5973
 6569TIP3   OH241197   5.024   1.220   0.129 -0.1521  0.7024  0.2748
 6569TIP3    H141198   5.086   1.215   0.055  0.0289 -0.8054  0.4890
 6569TIP3    H241199   5.055   1.294   0.180  1.7381 -0.1901  0.5505
 6570TIP3   OH241200   2.135   5.031   3.136  1.0635 -0.6489 -0.0521
 6570TIP3    H141201   2.130   5.100   3.071  1.4867 -0.2495  0.3344
 6570TIP3    H241202   2.226   5.032   3.166  1.3005 -1.9101 -0.6252
 6571TIP3   OH241203   1.263   5.040  17.230 -0.4429 -0.2067  0.2414
 6571TIP3    H141204   1.307   5.083  17.303 -1.1646 -2.2858  2.0182
 6571TIP3    H241205   1.171   5.064  17.239 -0.1551  2.0776 -1.9549
 6572TIP3   OH241206   4.264   0.674  15.832 -0.1682  0.4467 -0.3433
 6572TIP3    H141207   4.344   0.727  15.832  0.4768 -0.5025 -0.6477
 6572TIP3    H241208   4.294   0.584  15.828 -1.2524  0.0338  0.2603
 6573TIP3   OH241209   1.496   4.187  12.082 -0.3116  0.2477 -0.3498
 6573TIP3    H141210   1.569   4.128  12.100 -0.3847  0.4798  0.7859
 6573TIP3    H241211   1.498   4.199  11.988  2.5787  2.1342 -0.1622
 6574TIP3   OH241212   6.195   1.715   1.982 -0.7587 -0.1976 -0.3168
 6574TIP3    H141213   6.259   1.644   1.985  0.1999  0.6407 -0.2926
 6574TIP3    H241214   6.208   1.763   2.063  0.4118  1.4927 -1.4377
 6575TIP3   OH241215   4.941   6.553   4.038  0.1354 -0.1638 -0.5262
 6575TIP3    H141216   4.936   6.637   3.993 -0.2609  0.0672 -0.0486
 6575TIP3    H241217   4.859   6.509   4.015  0.1196 -0.2164 -0.3642
 6576TIP3   OH241218   2.415   4.311  14.747  0.2948  0.4048 -0.2590
 6576TIP3    H141219   2.456   4.360  14.676 -0.4437  0.8360 -0.3991
 6576TIP3    H241220   2.336   4.273  14.707  0.0425  0.3862  0.2478
 6577TIP3   OH241221   3.505   1.906  15.747  0.0106  0.3359 -0.2126
 6577TIP3    H141222   3.454   1.930  15.670 -0.6905 -1.9799 -0.5475
 6577TIP3    H241223   3.532   1.816  15.731 -0.2494 -0.2595  2.2752
 6578TIP3   OH241224   0.657   5.882  16.236 -0.3957  0.0418 -0.1113
 6578TIP3    H141225   0.640   5.946  16.305  1.2027 -0.5046  0.8539
 6578TIP3    H241226   0.576   5.833  16.227 -0.3484 -0.5243  2.1004
 6579TIP3   OH241227   0.755   1.991  16.127 -0.2365  0.2501 -0.4342
 6579TIP3    H141228   0.717   2.078  16.137 -0.0048  0.2882  0.1416
 6579TIP3    H241229   0.804   1.976  16.208 -0.4060 -0.4832 -0.4543
 6580TIP3   OH241230   3.147   2.542  12.172 -0.3972  0.2684 -0.2782
 6580TIP3    H141231   3.242   2.540  12.160 -0.5091 -1.5226 -1.1616
 6580TIP3    H241232   3.112   2.494  12.097 -2.0601  1.4857 -0.3378
 6581TIP3   OH241233   1.055   0.279   5.807  0.3984 -0.1089 -0.2543
 6581TIP3    H141234   1.013   0.198   5.779 -0.2591  0.1455 -0.0241
 6581TIP3    H241235   1.134   0.251   5.851 -0.4316 -0.7012  0.9017
 6582TIP3   OH241236   5.570   3.742   4.681  0.2651  0.4037  0.5532
 6582TIP3    H141237   5.600   3.651   4.680  0.6450  0.5094  1.3606
 6582TIP3    H241238   5.568   3.768   4.589  0.3239 -0.3666  0.3314
 6583TIP3   OH241239   3.020   3.006   3.846 -0.2713 -0.7132 -0.0828
 6583TIP3    H141240   3.056   2.980   3.761 -0.2048  0.5867 -0.4678
 6583TIP3    H241241   3.068   2.951   3.909  2.9634  1.3635 -0.4965
 6584TIP3   OH241242   2.243   5.234  16.250 -0.8305  0.2426  0.6683
 6584TIP3    H141243   2.190   5.163  16.213 -1.1294 -0.4029  2.2628
 6584TIP3    H241244   2.178   5.294  16.288 -0.5258  0.8680  0.2228
 6585TIP3   OH241245   2.853   1.652   3.284  0.3537 -0.2943 -0.1863
 6585TIP3    H141246   2.946   1.673   3.277  0.1529  0.1274 -2.3832
 6585TIP3    H241247   2.850   1.576   3.341  2.0251 -0.2156  0.0604
 6586TIP3   OH241248   3.187   6.282   2.981 -0.3394 -0.0801 -0.4921
 6586TIP3    H141249   3.242   6.268   2.904  1.6734 -1.4326  1.0351
 6586TIP3    H241250   3.223   6.361   3.022 -0.6579 -0.0036 -0.3560
 6587TIP3   OH241251   0.821   5.795   5.904  0.5945  0.2323 -0.2462
 6587TIP3    H141252   0.905   5.782   5.859  0.4425 -0.1071 -0.4353
 6587TIP3    H241253   0.802   5.711   5.945 -0.4543 -0.2250 -1.5793
 6588TIP3   OH241254   0.508   1.629  15.753  0.1199  0.4646  0.3085
 6588TIP3    H141255   0.545   1.688  15.819  0.3963 -0.8922  1.4247
 6588TIP3    H241256   0.570   1.630  15.681 -0.0907  1.8308  0.1233
 6589TIP3   OH241257   6.304   3.755   6.571  0.1005 -0.3210  0.3137
 6589TIP3    H141258   6.217   3.722   6.552  0.3952 -0.2234 -1.3152
 6589TIP3    H241259   6.306   3.763   6.667 -0.9969 -2.1225  0.5306
 6590TIP3   OH241260   5.764   2.819   2.606  0.2269 -0.1481 -0.4571
 6590TIP3    H141261   5.756   2.726   2.585  0.7040 -0.7357  1.7591
 6590TIP3    H241262   5.852   2.828   2.643 -0.5674  0.7419  1.3409
 6591TIP3   OH241263   3.842   5.652  17.260 -0.2771 -0.1486 -0.4380
 6591TIP3    H141264   3.936   5.650  17.278 -0.0142 -1.4672 -1.7880
 6591TIP3    H241265   3.829   5.731  17.208  0.2053 -0.3172 -0.8205
 6592TIP3   OH241266   1.411   0.330   0.491  0.1526  0.6737  0.0167
 6592TIP3    H141267   1.404   0.251   0.436  0.4876  1.5819 -1.4049
 6592TIP3    H241268   1.367   0.307   0.572 -2.0297 -0.1542 -1.3084
 6593TIP3   OH241269   0.307   6.479   5.365  0.1184 -0.5833 -0.5282
 6593TIP3    H141270   0.240   6.415   5.339 -2.0855  1.3915 -0.0144
 6593TIP3    H241271   0.333   6.521   5.284 -0.5573 -0.1907 -0.5514
 6594TIP3   OH241272   5.683   4.691  10.733  0.2196 -0.0398 -0.4073
 6594TIP3    H141273   5.631   4.638  10.674 -1.4862 -0.8655  1.7022
 6594TIP3    H241274   5.741   4.741  10.676 -1.4653 -0.6047 -2.7529
 6595TIP3   OH241275   2.883   6.058  13.721  0.2812  0.4151 -0.1801
 6595TIP3    H141276   2.917   6.147  13.733  1.2746  0.0464 -0.1830
 6595TIP3    H241277   2.927   6.025  13.643  0.0356 -0.1360 -0.0923
 6596TIP3   OH241278   4.405   2.347   1.489  0.3008 -0.0950 -0.1339
 6596TIP3    H141279   4.406   2.289   1.413  0.3925 -1.7909  1.0991
 6596TIP3    H241280   4.486   2.326   1.536 -0.9624 -1.0077  1.7586
 6597TIP3   OH241281   5.648   1.532   1.000  0.0693  0.0986 -0.2496
 6597TIP3    H141282   5.605   1.447   0.993 -0.5810  0.0813  2.8531
 6597TIP3    H241283   5.579   1.596   0.982  0.0836  0.0227 -0.5907
 6598TIP3   OH241284   4.458   5.246   4.134 -0.6884  0.0197  0.0781
 6598TIP3    H141285   4.431   5.191   4.207 -2.7718  0.8867  0.0301
 6598TIP3    H241286   4.518   5.310   4.173 -0.8105 -0.2908  0.7851
 6599TIP3   OH241287   0.624   2.616  15.103  0.6189  1.0465 -0.7926
 6599TIP3    H141288   0.710   2.607  15.061 -0.4261  1.1054 -3.1154
 6599TIP3    H241289   0.611   2.710  15.110  1.3400  1.0516  0.9966
 6600TIP3   OH241290   1.079   6.414  14.402  0.2504  0.3891  0.3356
 6600TIP3    H141291   1.032   6.423  14.318  0.4065  0.1651  0.2240
 6600TIP3    H241292   1.028   6.467  14.463 -1.7885 -2.0638  0.9112
 6601TIP3   OH241293   2.691   2.136  15.572 -0.0144  0.2668 -0.1714
 6601TIP3    H141294   2.779   2.109  15.544  1.3505  2.6034  1.4136
 6601TIP3    H241295   2.645   2.155  15.490  1.1039 -0.6232 -1.0448
 6602TIP3   OH241296   0.479   3.347   5.133 -0.1433 -0.2023  0.1178
 6602TIP3    H141297   0.495   3.420   5.073 -0.1863 -0.2958 -0.0072
 6602TIP3    H241298   0.495   3.269   5.081  0.3145 -0.2790  0.3657
 6603TIP3   OH241299   2.773   0.414  16.506 -0.2848 -0.3919  0.2858
 6603TIP3    H141300   2.785   0.503  16.471  1.1280 -0.4806  0.4955
 6603TIP3    H241301   2.775   0.358  16.429 -0.7080 -0.2835  0.1949
 6604TIP3   OH241302   5.658   3.437  15.943 -0.2261  0.2809  0.0254
 6604TIP3    H141303   5.747   3.438  15.906  0.1730  1.7697  0.9471
 6604TIP3    H241304   5.614   3.366  15.897  0.7046  1.0718 -2.2121
 6605TIP3   OH241305   3.931   1.793   1.185 -0.0293 -0.1503  0.2823
 6605TIP3    H141306   3.871   1.721   1.161  0.3556  0.3950 -2.7442
 6605TIP3    H241307   3.919   1.803   1.279 -2.3551 -2.1636  0.3246
 6606TIP3   OH241308   4.249   0.287   4.884  0.0929 -0.5174  0.0216
 6606TIP3    H141309   4.241   0.328   4.970 -0.3838 -0.4121 -0.0675
 6606TIP3    H241310   4.162   0.297   4.845  0.6268  0.5387 -0.9625
 6607TIP3   OH241311   6.385   5.574  16.200 -0.3432 -0.5041 -0.4218
 6607TIP3    H141312   6.371   5.496  16.146  0.8499  0.7449 -2.6779
 6607TIP3    H241313   6.356   5.647  16.146 -2.5142  0.6268  2.0790
 6608TIP3   OH241314   4.792   6.201   1.925 -0.0079  0.0440 -0.4787
 6608TIP3    H141315   4.738   6.130   1.961 -1.1676  0.4530 -1.3592
 6608TIP3    H241316   4.832   6.241   2.002  0.2729 -1.2342  0.0729
 6609TIP3   OH241317   6.135   3.297  14.163  0.4650 -0.4361 -0.2889
 6609TIP3    H141318   6.041   3.315  14.161  0.5628  0.0788 -1.2086
 6609TIP3    H241319   6.168   3.340  14.084  1.5594 -0.1185  0.3305
 6610TIP3   OH241320   4.084   2.124   2.291  0.3986  0.0876  0.0651
 6610TIP3    H141321   4.135   2.043   2.302  0.7865  0.2011 -0.7811
 6610TIP3    H241322   4.081   2.163   2.378  1.5029 -0.0878  0.1943
 6611TIP3   OH241323   3.359   3.178  13.408 -0.4428  0.4750 -0.2128
 6611TIP3    H141324   3.276   3.165  13.455  0.3538 -1.3818  0.7806
 6611TIP3    H241325   3.393   3.260  13.443  0.3064 -1.0287  2.8718
 6612TIP3   OH241326   2.856   5.475   0.750  0.3162 -0.7333 -0.3251
 6612TIP3    H141327   2.945   5.457   0.721  0.3024  1.1409 -1.7777
 6612TIP3    H241328   2.843   5.568   0.729 -1.6211 -0.6939  0.8286
 6613TIP3   OH241329   6.710   5.823  13.723  0.0850  0.1686 -0.4564
 6613TIP3    H141330   6.731   5.840  13.815 -1.5103 -2.7558  0.5559
 6613TIP3    H241331   6.771   5.879  13.674 -0.5225  3.5772  2.2930
 6614TIP3   OH241332   0.585   1.028   5.712  0.0959 -0.2425 -0.1479
 6614TIP3    H141333   0.588   1.123   5.725  2.2748 -0.2606 -0.1627
 6614TIP3    H241334   0.675   0.998   5.728 -0.4821 -2.2807 -0.3751
 6615TIP3   OH241335   2.407   3.331  16.367 -0.1545  0.4517  0.3964
 6615TIP3    H141336   2.340   3.330  16.299  2.4357 -2.0780 -2.4267
 6615TIP3    H241337   2.455   3.413  16.353 -0.8103  0.8623  0.5016
 6616TIP3   OH241338   0.403   3.741   2.461  0.1336 -0.0123 -0.5636
 6616TIP3    H141339   0.408   3.818   2.518  0.5051  0.1829 -0.8553
 6616TIP3    H241340   0.436   3.771   2.377 -1.3431 -0.0238 -1.1830
 6617TIP3   OH241341   3.954   0.452  10.676  0.2357  0.5829  0.1871
 6617TIP3    H141342   3.925   0.504  10.750 -0.4294 -0.3374  0.5899
 6617TIP3    H241343   3.904   0.485  10.602 -0.9903 -0.1821  0.6465
 6618TIP3   OH241344   1.336   4.222   5.901  0.4852 -0.3996  0.0883
 6618TIP3    H141345   1.316   4.239   5.809  0.3785 -2.1977 -0.2488
 6618TIP3    H241346   1.255   4.246   5.947 -1.1060 -3.5100 -0.8108
 6619TIP3   OH241347   4.525   3.804  14.839 -0.3473  0.2783  0.0236
 6619TIP3    H141348   4.444   3.848  14.866  0.5794  1.9497  0.1680
 6619TIP3    H241349   4.562   3.771  14.921 -1.1180 -0.9647 -0.1020
 6620TIP3   OH241350   0.765   3.001  15.262 -0.0942 -0.0836  0.2350
 6620TIP3    H141351   0.829   2.952  15.314 -0.1986 -0.8923 -0.3707
 6620TIP3    H241352   0.792   3.092  15.270  0.6160 -0.3280  0.7000
 6621TIP3   OH241353   1.285   2.924   2.835 -0.4262 -0.9440 -0.1855
 6621TIP3    H141354   1.252   2.938   2.747  0.1627  2.9358  0.0250
 6621TIP3    H241355   1.218   2.961   2.892  0.1629 -1.4104  0.8317
 6622TIP3   OH241356   5.167   0.152  13.696  0.2447 -0.0832  0.3712
 6622TIP3    H141357   5.225   0.215  13.738 -0.8309  0.5007  1.0398
 6622TIP3    H241358   5.221   0.110  13.629  1.5769  0.0297  1.3337
 6623TIP3   OH241359   0.507   4.042   4.341  0.1231 -0.4207  0.4229
 6623TIP3    H141360   0.457   3.960   4.339  0.5469 -0.6919 -1.6171
 6623TIP3    H241361   0.582   4.025   4.284  0.7266  1.0951  0.7143
 6624TIP3   OH241362   0.667   0.939  17.267 -0.0939  1.0127  0.0313
 6624TIP3    H141363   0.714   0.964  17.347 -0.3497 -1.4656  1.0337
 6624TIP3    H241364   0.715   0.984  17.197  1.0159  2.1232  1.4225
 6625TIP3   OH241365   2.188   4.640  14.767  0.1010 -0.0566 -0.1710
 6625TIP3    H141366   2.134   4.602  14.837  3.2286 -4.2647  0.3708
 6625TIP3    H241367   2.275   4.647  14.806  1.3230  0.2558 -2.7798
 6626TIP3   OH241368   6.257   1.889   3.218 -0.1194  0.3867 -0.0161
 6626TIP3    H141369   6.345   1.863   3.248  0.5027  2.0218 -0.3360
 6626TIP3    H241370   6.200   1.868   3.292  0.5247 -0.6909  0.2078
 6627TIP3   OH241371   2.430   3.769  16.572  0.3228  0.0981  0.6816
 6627TIP3    H141372   2.409   3.717  16.650 -4.7324  0.6561 -0.0111
 6627TIP3    H241373   2.456   3.854  16.607 -0.7075 -0.0121  1.7924
 6628TIP3   OH241374   2.215   1.646  12.183 -0.1322  0.4113 -0.4271
 6628TIP3    H141375   2.145   1.590  12.216 -0.3657 -0.2626 -1.9776
 6628TIP3    H241376   2.173   1.731  12.168 -0.1621  0.5468  0.3680
 6629TIP3   OH241377   1.167   6.642   2.900  0.0384  0.0469 -0.2202
 6629TIP3    H141378   1.074   6.665   2.901  0.2139  0.8499  1.8766
 6629TIP3    H241379   1.168   6.550   2.873 -1.3610  0.0069 -0.2108
 6630TIP3   OH241380   2.488   1.256   0.337 -0.0417  0.7302  0.2737
 6630TIP3    H141381   2.498   1.163   0.356  0.3929  0.7772  0.2925
 6630TIP3    H241382   2.447   1.293   0.415  0.4897  0.6871  0.5746
 6631TIP3   OH241383   4.363   3.719   5.164  0.1264 -0.6460 -0.7400
 6631TIP3    H141384   4.324   3.657   5.103 -0.5083 -0.3375 -0.6468
 6631TIP3    H241385   4.422   3.772   5.110 -0.5260 -0.2943 -1.1087
 6632TIP3   OH241386   2.335   3.664  16.167  0.6335 -0.1682 -0.1355
 6632TIP3    H141387   2.335   3.569  16.164 -0.3180 -0.2002  0.4303
 6632TIP3    H241388   2.280   3.691  16.093 -2.5561 -0.2299  2.0132
 6633TIP3   OH241389   4.518   3.151   0.049 -0.1740 -0.0843 -0.1274
 6633TIP3    H141390   4.439   3.106   0.021 -0.2850  0.7299 -1.1786
 6633TIP3    H241391   4.505   3.242   0.022 -0.0082  0.6468  2.0345
 6634TIP3   OH241392   3.480   1.962  15.060 -0.3320 -0.5374  0.1712
 6634TIP3    H141393   3.484   1.936  14.968  1.1119 -0.4269  0.1826
 6634TIP3    H241394   3.395   2.005  15.069 -0.3332 -0.2028 -1.2062
 6635TIP3   OH241395   0.988   1.582  12.523  0.1745  0.4458  0.2128
 6635TIP3    H141396   0.931   1.659  12.516 -1.3983 -0.4643  2.0932
 6635TIP3    H241397   1.013   1.579  12.615  2.1974  0.0212 -0.3105
 6636TIP3   OH241398   0.856   0.506   1.044 -0.0485 -0.5523  0.4745
 6636TIP3    H141399   0.783   0.495   1.105  0.4446 -1.0642  0.9944
 6636TIP3    H241400   0.934   0.511   1.101  0.1492  2.2236  0.0823
 6637TIP3   OH241401   2.717   4.749   3.498  0.0395  0.3167 -0.0744
 6637TIP3    H141402   2.764   4.725   3.578  0.9008 -1.0390 -0.9343
 6637TIP3    H241403   2.660   4.674   3.480  1.0244 -0.1458 -1.5363
 6638TIP3   OH241404   1.697   5.344  12.762 -0.2441  0.0226  0.1533
 6638TIP3    H141405   1.638   5.268  12.766 -0.3186  0.0565 -0.2686
 6638TIP3    H241406   1.678   5.385  12.678 -0.8519  1.0404  0.7616
 6639TIP3   OH241407   2.811   1.515  14.631  0.0563 -0.8266 -0.1050
 6639TIP3    H141408   2.902   1.487  14.627  0.3565  0.0659  0.1816
 6639TIP3    H241409   2.784   1.521  14.539  0.7537  0.3188 -0.2595
 6640TIP3   OH241410   0.110   5.792  12.133  0.1332 -0.2627  0.0514
 6640TIP3    H141411   0.162   5.723  12.092  2.9374  0.2076  2.5197
 6640TIP3    H241412   0.173   5.844  12.182 -2.4006  1.8258  1.3301
 6641TIP3   OH241413   0.743   6.328  12.703 -0.3777 -0.5058 -0.4963
 6641TIP3    H141414   0.779   6.324  12.614 -2.3480 -2.7817 -1.3103
 6641TIP3    H241415   0.814   6.297  12.759  1.4020  2.3415 -0.9932
 6642TIP3   OH241416   1.158   5.861  12.098 -0.0392 -0.4017  0.0494
 6642TIP3    H141417   1.170   5.952  12.124  0.3363 -0.3734 -0.2207
 6642TIP3    H241418   1.246   5.830  12.078 -0.4637  0.2389 -3.4074
 6643TIP3   OH241419   3.580   6.634  14.551  0.3716  0.0965 -0.6119
 6643TIP3    H141420   3.505   6.584  14.519  0.6553 -0.3217 -0.6336
 6643TIP3    H241421   3.552   6.725  14.546 -0.3919 -0.0916  0.0578
 6644TIP3   OH241422   0.561   6.176  15.881  0.5695 -0.4646  0.1640
 6644TIP3    H141423   0.491   6.112  15.893 -2.1160  2.1857 -0.0316
 6644TIP3    H241424   0.623   6.158  15.951  0.7526 -4.0647 -0.7274
 6645TIP3   OH241425   0.375   5.878   0.913 -0.3087  0.4106 -0.2139
 6645TIP3    H141426   0.357   5.820   0.839  1.1152  0.4678 -0.6229
 6645TIP3    H241427   0.429   5.827   0.972  0.0800  0.9673 -0.0764
 6646TIP3   OH241428   1.779   3.624   0.104 -0.6560  0.2277  0.1607
 6646TIP3    H141429   1.765   3.703   0.155 -0.7329  0.9884 -1.0128
 6646TIP3    H241430   1.744   3.553   0.160  1.7942  0.6264  2.3696
 6647TIP3   OH241431   2.747   2.339   2.404  0.2887  0.4267 -0.2467
 6647TIP3    H141432   2.708   2.259   2.368  1.8225 -0.0778 -0.8911
 6647TIP3    H241433   2.842   2.322   2.401  0.5528  1.1907  2.1556
 6648TIP3   OH241434   3.113   1.800  11.898  0.1039  0.0474  0.2977
 6648TIP3    H141435   3.048   1.732  11.880 -1.2463  0.5912  2.6213
 6648TIP3    H241436   3.152   1.819  11.813 -2.3887 -0.7149 -1.1380
 6649TIP3   OH241437   2.607   4.863   0.642  0.2203 -0.0649 -0.6765
 6649TIP3    H141438   2.548   4.827   0.576 -0.0058 -0.2190 -0.3959
 6649TIP3    H241439   2.652   4.935   0.598 -1.8576  1.6017 -0.2811
 6650TIP3   OH241440   0.068   2.467   2.941  0.5011  0.4334  0.2911
 6650TIP3    H141441   0.077   2.391   2.883  1.1623 -1.5464  2.8320
 6650TIP3    H241442  -0.017   2.456   2.982 -0.4780  2.4528 -1.0135
 6651TIP3   OH241443   1.297   1.874  15.390 -0.5693 -0.0609  0.4912
 6651TIP3    H141444   1.352   1.822  15.449 -0.6760 -0.7954 -0.0556
 6651TIP3    H241445   1.346   1.876  15.307 -1.1384 -0.3246  0.1413
 6652TIP3   OH241446   1.300   3.944  12.055 -0.6037  0.1683 -0.6735
 6652TIP3    H141447   1.314   4.034  12.085  0.4850 -0.1537 -0.1913
 6652TIP3    H241448   1.222   3.915  12.103  1.1087 -0.3510  1.9643
 6653TIP3   OH241449   6.397   3.641   3.802  0.0982  0.5671  0.1324
 6653TIP3    H141450   6.384   3.715   3.742  2.2748 -0.1217 -1.2961
 6653TIP3    H241451   6.483   3.656   3.840  0.9233 -1.5567 -0.7493
 6654TIP3   OH241452   6.245   4.365   0.689 -0.3338 -0.6429  0.0326
 6654TIP3    H141453   6.197   4.350   0.608 -0.1662 -2.2348  0.1789
 6654TIP3    H241454   6.268   4.457   0.688 -0.1761 -0.6730 -1.8133
 6655TIP3   OH241455   2.324   5.637   4.027  0.2026 -0.2317 -0.2398
 6655TIP3    H141456   2.313   5.653   4.120 -2.1788  2.2821 -0.8121
 6655TIP3    H241457   2.266   5.563   4.008 -0.0914 -0.0937  0.1181
 6656TIP3   OH241458   1.374   3.752  11.533  0.2501 -0.2313  0.1447
 6656TIP3    H141459   1.344   3.726  11.446  0.0222  2.7490 -0.8015
 6656TIP3    H241460   1.299   3.735  11.590 -0.3031 -0.4684 -0.6270
 6657TIP3   OH241461   6.421   3.123   4.938 -0.3602  0.4521 -0.2899
 6657TIP3    H141462   6.486   3.188   4.910 -1.2822  1.5803  0.0674
 6657TIP3    H241463   6.450   3.095   5.024 -0.4634  1.1473 -0.0175
 6658TIP3   OH241464   4.759   0.050  13.076 -0.5653 -0.7220  0.1402
 6658TIP3    H141465   4.805   0.087  13.152  0.7650 -0.8394 -0.5748
 6658TIP3    H241466   4.727  -0.035  13.107 -1.2699 -0.1685  0.9755
 6659TIP3   OH241467   4.572   6.399   3.071 -0.0038  0.4207  0.1943
 6659TIP3    H141468   4.504   6.354   3.022  1.1940  0.1469 -1.2876
 6659TIP3    H241469   4.583   6.347   3.151  1.5846 -2.2555 -1.6012
 6660TIP3   OH241470   2.899   6.556   6.465 -0.4583 -0.4294 -0.2763
 6660TIP3    H141471   2.861   6.640   6.490 -0.3082 -0.5652  0.4223
 6660TIP3    H241472   2.831   6.491   6.486  0.3618 -0.7393  1.5593
 6661TIP3   OH241473   2.228   2.516  12.907 -0.1584  0.3087  0.2772
 6661TIP3    H141474   2.314   2.539  12.941  0.3970 -0.0080 -0.8835
 6661TIP3    H241475   2.188   2.464  12.977  1.2664 -1.0028  0.1592
 6662TIP3   OH241476   6.500   0.973  11.107 -0.0733  0.2490  0.0069
 6662TIP3    H141477   6.411   0.974  11.142  0.2678  0.4065  0.8930
 6662TIP3    H241478   6.505   1.052  11.053 -1.1597 -0.9083 -1.8883
 6663TIP3   OH241479   1.059   4.278   6.536 -0.3071  0.1837  0.1896
 6663TIP3    H141480   1.139   4.228   6.550 -0.3650  0.2692  0.8889
 6663TIP3    H241481   0.992   4.229   6.586 -0.6104  0.3065 -0.0952
 6664TIP3   OH241482   3.841   1.970  13.480 -0.4006  0.0080  0.1983
 6664TIP3    H141483   3.838   1.952  13.574  0.8972 -0.7591  0.1171
 6664TIP3    H241484   3.792   2.052  13.470  0.1658  0.5611  1.6563
 6665TIP3   OH241485   1.781   6.782  13.510  0.1643 -0.0108  0.2906
 6665TIP3    H141486   1.749   6.694  13.526  0.2261 -0.2650 -0.8676
 6665TIP3    H241487   1.702   6.834  13.497  0.1224 -0.5682 -2.2208
 6666TIP3   OH241488   4.973   2.863  15.892 -0.1121  0.1303 -0.1686
 6666TIP3    H141489   4.961   2.956  15.873 -0.5202 -0.0294 -0.7066
 6666TIP3    H241490   5.060   2.857  15.932 -0.2823  0.8046  0.3132
 6667TIP3   OH241491   0.429   3.386  14.020 -0.9491  0.9300 -0.1131
 6667TIP3    H141492   0.495   3.390  13.951 -0.2244 -0.4391  0.4835
 6667TIP3    H241493   0.466   3.329  14.087 -2.3587  0.8654  0.6540
 6668TIP3   OH241494   1.398   6.022  11.116 -0.1058 -0.3815  0.0689
 6668TIP3    H141495   1.490   6.017  11.142 -0.5615 -1.0795  1.6880
 6668TIP3    H241496   1.400   6.056  11.026  1.5732  2.4314  1.0388
 6669TIP3   OH241497   6.201   6.643   5.078 -0.6650 -0.1663  0.4716
 6669TIP3    H141498   6.210   6.736   5.058 -1.9179 -0.2523 -0.5878
 6669TIP3    H241499   6.289   6.615   5.104 -0.0127  1.0400 -0.3843
 6670TIP3   OH241500   3.844   6.562  16.989  0.3659 -0.6315  0.3337
 6670TIP3    H141501   3.787   6.500  16.945 -1.3921  0.2092  1.3099
 6670TIP3    H241502   3.876   6.620  16.919 -0.2708 -0.8987 -0.1799
 6671TIP3   OH241503   3.437   2.400  15.725  0.1758  0.5681 -0.0270
 6671TIP3    H141504   3.354   2.362  15.753 -0.7192  1.0543 -1.8808
 6671TIP3    H241505   3.449   2.369  15.636  2.7867 -0.7364  0.6685
 6672TIP3   OH241506   4.163   4.937  16.885 -0.4418 -0.3334  0.2345
 6672TIP3    H141507   4.107   4.917  16.959 -0.9754  1.9125  0.5061
 6672TIP3    H241508   4.105   4.939  16.809  0.1679 -3.0660 -0.4254
 6673TIP3   OH241509   2.644   3.495   2.894 -0.2402  0.5825 -0.1497
 6673TIP3    H141510   2.672   3.529   2.979  0.4208 -0.0167 -0.1200
 6673TIP3    H241511   2.679   3.558   2.830  1.5618 -0.3500 -0.1410
 6674TIP3   OH241512   1.174   0.201  12.312  0.1032 -0.0094  0.0962
 6674TIP3    H141513   1.150   0.208  12.219 -2.0161 -2.4509  0.3478
 6674TIP3    H241514   1.148   0.285  12.349 -0.9856  0.2474 -1.1625
 6675TIP3   OH241515   1.012   0.701  13.935 -0.2748  0.2229  0.4378
 6675TIP3    H141516   0.983   0.618  13.897 -0.1776  0.1079  0.6124
 6675TIP3    H241517   1.064   0.742  13.866  1.4967 -0.8400  1.0680
 6676TIP3   OH241518   3.039   3.576   7.093 -0.1955  0.3603 -0.4987
 6676TIP3    H141519   3.099   3.545   7.025  1.0058 -0.0524  0.7236
 6676TIP3    H241520   3.011   3.662   7.062  1.1002  0.6067 -1.0595
 6677TIP3   OH241521   4.304   4.040  11.683 -0.0633 -0.5677 -0.2262
 6677TIP3    H141522   4.281   4.132  11.697 -1.6031 -0.6462 -1.8651
 6677TIP3    H241523   4.239   3.991  11.733 -1.7272 -0.7525 -2.4191
 6678TIP3   OH241524   5.810   4.698   0.579 -0.1489 -0.2822 -0.3037
 6678TIP3    H141525   5.721   4.663   0.566 -0.7681  0.3310  1.9557
 6678TIP3    H241526   5.834   4.669   0.667  1.4444  0.5317 -0.4509
 6679TIP3   OH241527   5.765   4.271  15.112  0.2500  0.1163 -0.5358
 6679TIP3    H141528   5.854   4.277  15.076  1.2712 -0.4803  1.7075
 6679TIP3    H241529   5.755   4.179  15.135 -2.8476 -0.9935 -4.9801
 6680TIP3   OH241530   2.429   2.420  14.640 -0.2329  0.1722  0.1240
 6680TIP3    H141531   2.481   2.472  14.702 -0.0538  1.0007 -0.6982
 6680TIP3    H241532   2.467   2.439  14.554  0.1006 -1.6626 -0.1693
 6681TIP3   OH241533   6.105   2.939   5.337 -0.0751 -0.3821 -0.1038
 6681TIP3    H141534   6.125   3.012   5.396  1.1837 -0.2462 -0.6784
 6681TIP3    H241535   6.184   2.886   5.335 -1.8759 -3.5514  2.6624
 6682TIP3   OH241536   5.739   3.434   5.785 -0.5680 -0.7553 -0.1745
 6682TIP3    H141537   5.734   3.406   5.877 -0.4332  1.3893  0.5281
 6682TIP3    H241538   5.760   3.354   5.737 -1.9947 -2.2176  1.4775
 6683TIP3   OH241539   2.387   2.140  16.984 -0.4932 -0.5697 -0.4545
 6683TIP3    H141540   2.476   2.108  17.002 -0.0736  0.7416 -0.0584
 6683TIP3    H241541   2.371   2.116  16.893  0.1073 -1.1684 -0.4174
 6684TIP3   OH241542   1.993   0.653  12.448  0.0987 -0.6206  0.5655
 6684TIP3    H141543   1.991   0.588  12.377  0.0998  0.1469 -0.1503
 6684TIP3    H241544   2.086   0.672  12.461  0.0292  0.6281 -0.5454
 6685TIP3   OH241545   4.221   4.081   0.363  0.0877 -0.0801 -0.6864
 6685TIP3    H141546   4.283   4.148   0.392  0.6260 -0.1799 -1.5678
 6685TIP3    H241547   4.193   4.111   0.276 -0.3383 -0.5553 -0.7165
 6686TIP3   OH241548   6.318   0.443   3.917  0.3063 -0.0977  0.7515
 6686TIP3    H141549   6.390   0.460   3.977  1.5626 -1.0043 -0.4482
 6686TIP3    H241550   6.289   0.354   3.939  0.4075 -0.2235  0.3800
 6687TIP3   OH241551   3.625   2.711  12.067  0.3559 -0.2603  1.2659
 6687TIP3    H141552   3.620   2.636  12.008 -2.1274 -1.0092  2.2983
 6687TIP3    H241553   3.578   2.780  12.022  1.7728  0.4050  0.7562
 6688TIP3   OH241554   3.496   5.656  14.351 -0.7206 -0.0905  0.2555
 6688TIP3    H141555   3.568   5.614  14.396  0.1948 -0.2220 -1.2491
 6688TIP3    H241556   3.433   5.585  14.335 -0.7614 -0.1676  0.7397
 6689TIP3   OH241557   5.449   4.123  14.931  0.5304  0.4544  0.0978
 6689TIP3    H141558   5.442   4.218  14.933 -0.4139  0.4405  3.1593
 6689TIP3    H241559   5.538   4.105  14.900  0.4851  2.2461 -1.2251
 6690TIP3   OH241560   1.271   0.202  16.433 -0.0474 -0.4274  0.1371
 6690TIP3    H141561   1.275   0.170  16.523  2.7161 -0.7823 -0.0030
 6690TIP3    H241562   1.292   0.296  16.441  1.4839 -0.7067 -0.1607
 6691TIP3   OH241563   0.134   6.533  14.463 -0.3684 -0.0109  0.6383
 6691TIP3    H141564   0.172   6.559  14.379  2.4140 -2.3988  0.9779
 6691TIP3    H241565   0.124   6.614  14.512  2.0534  1.0324 -0.4676
 6692TIP3   OH241566   1.199   3.405   0.681  0.5275  0.1073  0.1922
 6692TIP3    H141567   1.161   3.457   0.751  0.5478  0.8174 -0.3212
 6692TIP3    H241568   1.132   3.340   0.660  1.5101 -1.9264  2.7093
 6693TIP3   OH241569   1.871   4.163   0.247 -0.0586  0.3934  0.2512
 6693TIP3    H141570   1.949   4.214   0.266  0.3812  0.0300 -0.5085
 6693TIP3    H241571   1.800   4.227   0.244  0.2311  0.7447  0.8160
 6694TIP3   OH241572   5.807   5.844   1.328  0.2981  0.1538  0.3381
 6694TIP3    H141573   5.862   5.883   1.260  1.5697 -1.2387  0.5233
 6694TIP3    H241574   5.866   5.787   1.377 -0.8194  0.3342  1.9793
 6695TIP3   OH241575   4.582   1.438   1.755  0.7120 -0.0093 -0.0856
 6695TIP3    H141576   4.600   1.360   1.807  0.9390  0.2081  0.1633
 6695TIP3    H241577   4.512   1.483   1.801  0.5591 -0.0829 -0.2463
 6696TIP3   OH241578   6.130   1.647   3.047 -0.2095  0.2436  0.0509
 6696TIP3    H141579   6.219   1.614   3.062  0.5283  1.6702 -0.9218
 6696TIP3    H241580   6.127   1.666   2.953 -1.7513 -0.2853 -0.0459
 6697TIP3   OH241581   1.685   3.408   0.268 -0.0942  0.1621 -0.1574
 6697TIP3    H141582   1.593   3.383   0.264 -0.2552  0.4059  1.3716
 6697TIP3    H241583   1.709   3.396   0.360  1.4182  0.0678 -0.5338
 6698TIP3   OH241584   1.669   3.243   4.288  0.2689  0.1005  0.1522
 6698TIP3    H141585   1.680   3.157   4.329 -0.1155 -0.8194 -1.5790
 6698TIP3    H241586   1.689   3.305   4.358  0.7855 -1.3844  1.3929
 6699TIP3   OH241587   0.455   5.714  14.548 -0.8731 -0.2269 -0.0764
 6699TIP3    H141588   0.546   5.684  14.554 -1.4878 -2.1490  0.3327
 6699TIP3    H241589   0.452   5.766  14.468  0.2309 -1.4834 -0.9761
 6700TIP3   OH241590   5.976   2.784  14.024 -0.5323  0.4074 -0.5307
 6700TIP3    H141591   5.901   2.725  14.014  0.1663 -0.4326 -1.0006
 6700TIP3    H241592   6.052   2.725  14.027  0.2467  1.2984 -1.7298
 6701TIP3   OH241593   3.511   0.116  15.891 -0.5272  0.4426  0.1217
 6701TIP3    H141594   3.537   0.036  15.845  0.4253  0.5913  0.3695
 6701TIP3    H241595   3.424   0.136  15.857 -0.8681 -0.8058  0.2028
 6702TIP3   OH241596   3.715   6.103  11.108 -0.9014  0.0344  0.5559
 6702TIP3    H141597   3.648   6.165  11.137 -1.7381 -0.2415 -0.6835
 6702TIP3    H241598   3.796   6.154  11.106 -1.0195  0.3296  2.2416
 6703TIP3   OH241599   1.243   0.301  12.886  0.1077  0.1313 -0.0133
 6703TIP3    H141600   1.317   0.319  12.829 -0.3226  1.1048 -0.2776
 6703TIP3    H241601   1.234   0.379  12.941 -0.9176  0.1745 -0.2154
 6704TIP3   OH241602   5.615   0.851   1.495  0.5086 -0.5565  0.1663
 6704TIP3    H141603   5.548   0.874   1.559  0.8719  1.8210 -0.2094
 6704TIP3    H241604   5.697   0.883   1.534  0.8122  0.4090 -1.1884
 6705TIP3   OH241605   3.426   4.941  14.204  0.0330 -0.4204  0.4719
 6705TIP3    H141606   3.506   4.952  14.255 -1.1049 -0.0811  2.2973
 6705TIP3    H241607   3.406   4.848  14.209 -0.3733 -0.3039  1.1578
 6706TIP3   OH241608   5.540   6.449  12.551 -0.4547 -0.2848 -0.4331
 6706TIP3    H141609   5.581   6.377  12.600 -1.0454 -0.4784 -0.2168
 6706TIP3    H241610   5.473   6.483  12.610  0.3800  1.0146 -0.1867
 6707TIP3   OH241611   1.985   0.946  15.758 -0.0589 -0.4309  0.7004
 6707TIP3    H141612   1.897   0.958  15.721  0.4595  2.3052  0.1337
 6707TIP3    H241613   2.031   0.894  15.692  0.4233  3.1779 -2.1358
 6708TIP3   OH241614   0.486   3.187  16.499 -0.7122  0.4276  0.4275
 6708TIP3    H141615   0.547   3.143  16.559 -1.2637 -0.8969  0.0641
 6708TIP3    H241616   0.411   3.128  16.493 -1.3019  1.2248 -0.4426
 6709TIP3   OH241617   2.573   4.164  13.803  0.5406  0.5491  0.3225
 6709TIP3    H141618   2.551   4.250  13.767 -1.1747 -0.3669 -0.9602
 6709TIP3    H241619   2.658   4.143  13.765 -0.5254  0.2899 -2.0711
 6710TIP3   OH241620   6.752   4.728  14.631 -0.6179  0.0762 -0.1634
 6710TIP3    H141621   6.763   4.679  14.550  1.1871 -1.4767  0.9306
 6710TIP3    H241622   6.769   4.819  14.607 -2.2362 -0.0222 -1.8930
 6711TIP3   OH241623   4.371   3.384   6.472  0.0271  0.1453  0.1043
 6711TIP3    H141624   4.306   3.354   6.535  0.1785  1.5486  0.9693
 6711TIP3    H241625   4.393   3.306   6.420 -2.5738 -0.2950 -0.4485
 6712TIP3   OH241626   1.953   5.440  14.311 -0.4855 -0.0590  0.0851
 6712TIP3    H141627   1.926   5.483  14.393 -2.4397 -0.7446 -0.1264
 6712TIP3    H241628   1.999   5.507  14.262 -0.7183  0.8459  1.0745
 6713TIP3   OH241629   6.600   3.728  13.465 -0.0133  0.3054 -0.1409
 6713TIP3    H141630   6.537   3.678  13.517 -1.0074  0.8377 -0.8150
 6713TIP3    H241631   6.679   3.730  13.519 -0.3501 -0.9293  0.4335
 6714TIP3   OH241632   2.006   4.856  16.907  0.4376 -0.3031  0.0868
 6714TIP3    H141633   2.011   4.878  16.814 -0.4197  1.2634  0.3679
 6714TIP3    H241634   1.929   4.799  16.914  0.5154 -0.4391 -0.1614
 6715TIP3   OH241635   5.452   4.051  15.968 -0.0502 -0.0578 -0.4702
 6715TIP3    H141636   5.393   4.020  15.900 -0.2742  0.2477 -0.4185
 6715TIP3    H241637   5.430   3.998  16.045 -0.0120 -0.1865 -0.5478
 6716TIP3   OH241638   4.827   4.674   3.460 -0.0106  0.6969  0.1038
 6716TIP3    H141639   4.866   4.750   3.416  0.7280  0.4064  0.2466
 6716TIP3    H241640   4.747   4.709   3.500 -0.9094  0.8847 -1.7352
 6717TIP3   OH241641   6.085   5.288  17.354 -0.1087 -0.5275  0.5449
 6717TIP3    H141642   6.155   5.347  17.326  0.1379 -0.2555  1.6896
 6717TIP3    H241643   6.088   5.217  17.290  0.0600  0.3379 -0.4375
 6718TIP3   OH241644   6.242   4.061   1.758 -0.5785 -0.0991 -0.1010
 6718TIP3    H141645   6.262   4.041   1.667 -0.3626 -0.6396  0.0631
 6718TIP3    H241646   6.214   3.978   1.796 -0.7553  0.1400  0.3030
 6719TIP3   OH241647   2.262   6.704   4.341  0.1917  0.1170  0.6565
 6719TIP3    H141648   2.252   6.799   4.336  0.8023  0.1611  0.0923
 6719TIP3    H241649   2.354   6.691   4.365  1.4456 -0.3352 -3.5731
 6720TIP3   OH241650   0.845   0.431  12.085  0.4343 -0.1059 -0.1403
 6720TIP3    H141651   0.798   0.498  12.034 -0.6757  0.2240  1.2380
 6720TIP3    H241652   0.776   0.387  12.134  1.4663 -0.3285  1.1515
 6721TIP3   OH241653   2.655   3.680   5.584  0.4089 -0.1318 -0.2311
 6721TIP3    H141654   2.727   3.619   5.569 -0.9754 -1.9375  0.0898
 6721TIP3    H241655   2.598   3.668   5.508 -0.2759  0.1773  0.2248
 6722TIP3   OH241656   3.526   4.763  14.849 -0.2535 -0.5775  0.0310
 6722TIP3    H141657   3.580   4.710  14.908  0.1454  1.4231  1.5736
 6722TIP3    H241658   3.589   4.812  14.797 -0.5646  0.2578  0.4178
 6723TIP3   OH241659   6.149   3.396   0.216 -0.5137 -0.1997 -0.0425
 6723TIP3    H141660   6.148   3.348   0.298 -1.0339 -0.5092 -0.2299
 6723TIP3    H241661   6.228   3.450   0.221 -1.4221  1.0891  1.4047
 6724TIP3   OH241662   3.240   4.655   1.407 -0.8409 -0.5970  0.0402
 6724TIP3    H141663   3.323   4.612   1.389 -0.2287  0.5996 -0.1452
 6724TIP3    H241664   3.173   4.598   1.369  0.0208 -0.8148 -1.1994
 6725TIP3   OH241665   2.595   5.275  13.008  0.2125 -0.7029  0.5360
 6725TIP3    H141666   2.516   5.272  12.955 -0.1206 -0.9656  1.0430
 6725TIP3    H241667   2.569   5.318  13.089  0.6218 -0.6739  0.6579
 6726TIP3   OH241668   5.591   1.935  14.810 -0.6793 -0.5795 -0.0752
 6726TIP3    H141669   5.596   1.954  14.904  1.2908 -2.4406  0.2705
 6726TIP3    H241670   5.681   1.940  14.779 -0.9652 -2.2622 -1.3649
 6727TIP3   OH241671   4.227   0.967   5.231 -0.0454  0.1212  0.1843
 6727TIP3    H141672   4.215   0.878   5.199  0.9258  0.1390 -0.2636
 6727TIP3    H241673   4.214   0.961   5.326  1.9154 -0.8965  0.4407
 6728TIP3   OH241674   1.524   5.953  11.582  0.0735 -0.3466 -0.2844
 6728TIP3    H141675   1.579   5.999  11.645  1.7210 -1.7824 -0.5988
 6728TIP3    H241676   1.435   5.981  11.603  0.8399  1.5281  0.6882
 6729TIP3   OH241677   4.700   1.902  11.052 -0.4063  0.3554 -0.3804
 6729TIP3    H141678   4.771   1.965  11.062  1.0354 -1.2085 -0.2414
 6729TIP3    H241679   4.657   1.901  11.137  0.6931 -0.0881  0.2033
 6730TIP3   OH241680   6.626   3.833  12.585 -0.3778 -0.2104 -0.3751
 6730TIP3    H141681   6.692   3.853  12.652 -1.7002 -0.5711  1.0995
 6730TIP3    H241682   6.581   3.916  12.570 -0.7921 -0.3603  0.0086
 6731TIP3   OH241683   2.152   2.953   6.433  0.6201  0.3050  0.2987
 6731TIP3    H141684   2.180   2.898   6.506  0.2331 -0.8339 -0.3746
 6731TIP3    H241685   2.087   3.012   6.470  2.4655  1.7172  1.4806
 6732TIP3   OH241686   6.262   6.121   2.357  0.0020 -0.6517 -0.4443
 6732TIP3    H141687   6.237   6.188   2.294  0.1669  0.1128  0.2890
 6732TIP3    H241688   6.190   6.057   2.353  0.3716 -1.0151 -1.9394
 6733TIP3   OH241689   6.293   1.446  14.348  0.1144  0.6082 -0.1491
 6733TIP3    H141690   6.333   1.379  14.403 -0.2372  0.0479 -0.5584
 6733TIP3    H241691   6.366   1.500  14.318  0.6274 -0.6454 -1.2312
 6734TIP3   OH241692   3.416   3.044   5.360 -0.6762  1.0267 -0.4930
 6734TIP3    H141693   3.449   2.968   5.312 -1.5714  1.0304 -1.1421
 6734TIP3    H241694   3.490   3.074   5.412 -1.1247 -2.2952  2.4297
 6735TIP3   OH241695   3.720   5.372  11.597  0.4069 -0.2095  0.6417
 6735TIP3    H141696   3.798   5.325  11.626 -0.6441 -2.1482  0.5470
 6735TIP3    H241697   3.742   5.403  11.510  0.6667 -1.8800  0.0701
 6736TIP3   OH241698   1.601   0.759  16.622  0.0715 -0.1538 -0.4715
 6736TIP3    H141699   1.664   0.697  16.659 -1.6927 -0.1995  2.8103
 6736TIP3    H241700   1.533   0.703  16.585 -1.2068 -0.3143  1.9272
 6737TIP3   OH241701   4.935   0.170  13.258  0.0091  0.4370  0.0423
 6737TIP3    H141702   4.927   0.263  13.237 -0.8306  0.4982  0.5646
 6737TIP3    H241703   4.949   0.168  13.353 -0.9974  0.0065  0.1930
 6738TIP3   OH241704   0.475   5.896  13.008  0.5732  0.1868 -0.1115
 6738TIP3    H141705   0.428   5.906  12.925 -0.3006  1.6081  0.5159
 6738TIP3    H241706   0.424   5.947  13.071  1.1950 -0.8752  1.3262
 6739TIP3   OH241707   1.649   5.498   0.476 -0.0260  0.2310  0.1509
 6739TIP3    H141708   1.682   5.585   0.456  0.2454 -0.2497 -1.6179
 6739TIP3    H241709   1.676   5.444   0.401  1.0358 -1.7007  1.8082
 6740TIP3   OH241710   6.284   0.458  16.117  0.0724 -0.4572 -0.0938
 6740TIP3    H141711   6.239   0.535  16.083 -0.1127 -0.3828  0.3172
 6740TIP3    H241712   6.370   0.459  16.074  0.7498  0.9447  1.1995
 6741TIP3   OH241713   1.502   3.266   1.881 -0.3710  0.2372 -0.9310
 6741TIP3    H141714   1.585   3.307   1.858  1.0566 -0.6979  2.0877
 6741TIP3    H241715   1.484   3.297   1.970 -2.7078 -0.4617 -1.0984
 6742TIP3   OH241716   6.494   5.736  12.259  0.2823 -0.4418  0.2141
 6742TIP3    H141717   6.451   5.788  12.190 -1.4387 -1.2641  0.6212
 6742TIP3    H241718   6.498   5.647  12.223 -1.0615 -0.9776  1.3277
 6743TIP3   OH241719   4.695   2.140   3.072  0.2891 -0.1053 -0.2689
 6743TIP3    H141720   4.671   2.144   2.979 -0.4959 -1.8840 -0.1869
 6743TIP3    H241721   4.785   2.105   3.071  0.2470 -0.2133 -0.3585
 6744TIP3   OH241722   3.343   1.704   1.397  0.3257 -0.3667  0.2072
 6744TIP3    H141723   3.345   1.798   1.378  0.2286 -0.5763 -0.9165
 6744TIP3    H241724   3.414   1.668   1.344  0.5557 -0.8992  0.8605
 6745TIP3   OH241725   6.333   2.720   3.674 -0.1451 -0.5948  0.6500
 6745TIP3    H141726   6.296   2.798   3.715 -0.0941  1.0966 -2.2773
 6745TIP3    H241727   6.318   2.732   3.580  0.0246 -4.0620  0.0296
 6746TIP3   OH241728   2.405   1.773   3.685 -0.0645 -0.3579  0.1712
 6746TIP3    H141729   2.392   1.829   3.762  0.5410  0.9728 -0.6592
 6746TIP3    H241730   2.477   1.814   3.638 -0.1773 -1.3710 -0.9201
 6747TIP3   OH241731   2.210   0.887  11.274 -0.5634  0.2293  0.0635
 6747TIP3    H141732   2.159   0.955  11.320  0.3919  0.6203  0.5717
 6747TIP3    H241733   2.171   0.805  11.303 -0.4894  0.5039  0.9800
 6748TIP3   OH241734   5.604   1.830  16.082  0.2993 -0.1180 -0.0868
 6748TIP3    H141735   5.646   1.905  16.124  1.8572 -1.4807  0.9216
 6748TIP3    H241736   5.595   1.856  15.991 -0.4070  1.7758  0.4726
 6749TIP3   OH241737   0.684   0.349   4.075 -0.0832 -0.4238  0.0243
 6749TIP3    H141738   0.686   0.406   3.998 -0.2271 -1.2094 -0.5705
 6749TIP3    H241739   0.739   0.394   4.140  0.7977 -0.2198 -0.8515
 6750TIP3   OH241740   6.693   0.146  13.426  0.2176  0.1037 -0.1721
 6750TIP3    H141741   6.684   0.165  13.520  0.0810  0.9816 -0.3556
 6750TIP3    H241742   6.737   0.061  13.423  2.1018  0.9872  0.7088
 6751TIP3   OH241743   2.192   6.785   6.068 -0.0763  0.0503  0.0121
 6751TIP3    H141744   2.108   6.740   6.074  0.1954 -0.3867  0.7363
 6751TIP3    H241745   2.213   6.808   6.159 -0.5383  2.3023 -0.4043
 6752TIP3   OH241746   2.864   6.624  11.194 -0.0735  0.0083 -0.1660
 6752TIP3    H141747   2.926   6.610  11.122 -0.4484  0.0543 -0.5062
 6752TIP3    H241748   2.827   6.537  11.211  0.4022 -0.0951  0.3306
 6753TIP3   OH241749   5.993   0.672   1.960 -0.5090 -0.3983  0.6403
 6753TIP3    H141750   5.910   0.665   1.913 -1.0619 -0.2147  1.5719
 6753TIP3    H241751   6.034   0.750   1.923 -0.6188 -0.6414 -0.0130
 6754TIP3   OH241752   0.063   2.259  12.799 -0.6499 -0.4766  0.2138
 6754TIP3    H141753   0.065   2.208  12.718 -1.0275  0.9309 -0.7155
 6754TIP3    H241754   0.032   2.197  12.866 -0.0693 -1.7337 -0.6418
 6755TIP3   OH241755   3.272   2.243   4.738  0.3928  0.2304 -0.0000
 6755TIP3    H141756   3.196   2.281   4.693  0.4855  0.6636  0.2031
 6755TIP3    H241757   3.328   2.210   4.667 -0.0830 -0.2907 -0.1418
 6756TIP3   OH241758   4.629   6.418  12.932 -0.4410  1.0180  0.0947
 6756TIP3    H141759   4.642   6.329  12.900 -0.8919  1.1580 -0.4896
 6756TIP3    H241760   4.656   6.474  12.859 -0.7041  1.3523  0.2533
 6757TIP3   OH241761   3.241   3.201  15.472 -0.3718  0.0900 -0.1353
 6757TIP3    H141762   3.199   3.129  15.519  1.0097 -1.4127 -1.1052
 6757TIP3    H241763   3.256   3.167  15.384  0.5797  1.4740 -0.5387
 6758TIP3   OH241764   6.177   2.242   3.512  0.0466  0.4006  0.5565
 6758TIP3    H141765   6.104   2.282   3.561  0.3004  1.8694 -0.2099
 6758TIP3    H241766   6.135   2.196   3.440 -0.1391  3.4552 -1.4915
 6759TIP3   OH241767   3.752   1.180  15.774  0.4832  0.3102  0.2393
 6759TIP3    H141768   3.669   1.143  15.804  1.1121  0.1401  1.8426
 6759TIP3    H241769   3.792   1.110  15.722 -1.2041  1.0611 -2.2750
 6760TIP3   OH241770   0.062   6.406   0.374 -0.2467  0.2891 -0.2135
 6760TIP3    H141771   0.110   6.340   0.325  0.2451  1.9703 -2.1168
 6760TIP3    H241772   0.061   6.374   0.464  0.5034 -1.9661 -0.9579
 6761TIP3   OH241773   5.500   1.968   2.618 -0.2235 -0.5599  0.4876
 6761TIP3    H141774   5.564   1.988   2.687  0.5609  1.8241 -0.8176
 6761TIP3    H241775   5.553   1.955   2.539 -1.2692  1.3284 -0.5915
 6762TIP3   OH241776   4.829   4.509   6.512 -0.5876 -0.1399  0.0283
 6762TIP3    H141777   4.884   4.588   6.514  0.3315 -0.7287 -1.0192
 6762TIP3    H241778   4.891   4.437   6.502 -1.5830 -0.7313 -2.9272
 6763TIP3   OH241779   3.287   3.777   2.878 -0.1155  0.8786  0.0856
 6763TIP3    H141780   3.249   3.854   2.920  0.3238  0.9355  0.3875
 6763TIP3    H241781   3.358   3.812   2.824 -2.1426  1.1139 -2.6839
 6764TIP3   OH241782   3.231   2.151  11.679 -0.1418 -0.2213  0.1036
 6764TIP3    H141783   3.215   2.195  11.595  1.0998  1.0161  0.4728
 6764TIP3    H241784   3.171   2.193  11.740  2.1888  2.3709  0.8481
 6765TIP3   OH241785   2.926   1.318  11.278  1.0034  0.7297 -0.4424
 6765TIP3    H141786   3.007   1.267  11.286  1.2737  1.0588 -1.0140
 6765TIP3    H241787   2.939   1.371  11.199  0.5144  1.3014 -0.1416
 6766TIP3   OH241788   1.505   6.171  13.176 -0.2633 -0.1032 -0.1713
 6766TIP3    H141789   1.573   6.123  13.223  1.5735 -0.0201 -2.5797
 6766TIP3    H241790   1.436   6.106  13.162 -0.7512 -0.1912  2.3037
 6767TIP3   OH241791   2.719   5.765  15.107 -0.1340 -0.5684 -0.3307
 6767TIP3    H141792   2.764   5.736  15.186 -0.3961  0.7363  0.3316
 6767TIP3    H241793   2.721   5.861  15.112  1.4362 -0.3565 -2.7991
 6768TIP3   OH241794   0.869   4.792   1.989  0.1582  0.0541  0.4173
 6768TIP3    H141795   0.947   4.769   1.938  0.4502  1.1712  0.3249
 6768TIP3    H241796   0.895   4.871   2.037 -0.9882  0.5775  0.2040
 6769TIP3   OH241797   4.595   3.323   2.752 -0.2898  0.4437  0.6442
 6769TIP3    H141798   4.612   3.414   2.729  0.0298  0.3361  0.4443
 6769TIP3    H241799   4.528   3.295   2.689  0.2684  0.2770  0.1200
 6770TIP3   OH241800   5.092   0.805  16.240 -0.5466 -0.1510 -0.0790
 6770TIP3    H141801   5.049   0.775  16.160 -0.1440 -0.6493 -0.1156
 6770TIP3    H241802   5.154   0.735  16.261 -0.9616 -0.2358  0.9165
 6771TIP3   OH241803   2.077   5.073   5.666 -0.1496  0.5013 -0.5836
 6771TIP3    H141804   1.993   5.089   5.623 -1.4196 -0.3695  1.4221
 6771TIP3    H241805   2.093   5.154   5.716  0.4010  0.8001 -1.2291
 6772TIP3   OH241806   5.739   5.811   4.461  0.1666  0.3308  0.0514
 6772TIP3    H141807   5.683   5.788   4.386  0.3398  2.0326 -0.6608
 6772TIP3    H241808   5.702   5.894   4.494 -1.4241 -1.5431  3.4847
 6773TIP3   OH241809   3.235   0.289  13.104 -0.1058 -0.6446  0.1093
 6773TIP3    H141810   3.264   0.200  13.087  0.3930 -0.7287  1.2721
 6773TIP3    H241811   3.150   0.279  13.147  0.5469 -0.6398  1.4455
 6774TIP3   OH241812   6.370   5.436   2.541 -0.2542  0.4429  0.5204
 6774TIP3    H141813   6.371   5.352   2.587  0.7245 -0.5608 -1.2271
 6774TIP3    H241814   6.313   5.421   2.466  1.2790  0.7515 -0.7597
 6775TIP3   OH241815   2.545   6.006   5.074 -0.1055 -0.1750 -0.1497
 6775TIP3    H141816   2.549   6.015   5.169 -0.7534 -2.4341  0.1615
 6775TIP3    H241817   2.543   5.911   5.059 -1.4259  0.1104 -2.3402
 6776TIP3   OH241818   4.418   3.444   6.099 -0.2277 -0.3519 -0.4975
 6776TIP3    H141819   4.349   3.480   6.043 -2.1269 -2.7953  0.0622
 6776TIP3    H241820   4.379   3.443   6.187  0.9335 -0.8021  0.0301
 6777TIP3   OH241821   5.331   4.998   0.048  0.0303 -0.3101 -0.2968
 6777TIP3    H141822   5.402   5.042  -0.000  0.6148 -2.1401 -1.1986
 6777TIP3    H241823   5.256   5.003  -0.011 -0.3376  0.7938  0.2523
 6778TIP3   OH241824   0.415   5.208   1.467 -0.1102  0.0284 -0.6238
 6778TIP3    H141825   0.511   5.200   1.460 -0.1400 -1.3222  0.0898
 6778TIP3    H241826   0.381   5.157   1.393 -0.2720 -0.7840 -0.0049
 6779TIP3   OH241827   2.251   0.199   2.061  0.3230  0.2690 -0.1622
 6779TIP3    H141828   2.252   0.292   2.082  0.6379  0.4387 -0.8809
 6779TIP3    H241829   2.340   0.169   2.081 -0.4670 -0.4963  2.5916
 6780TIP3   OH241830   1.310   6.439  13.987 -0.3189  0.2455  0.2208
 6780TIP3    H141831   1.350   6.508  13.935  1.4851  0.1952  1.4323
 6780TIP3    H241832   1.244   6.484  14.040 -1.2096  0.5161 -1.0972
 6781TIP3   OH241833   5.093   6.711  12.422  0.0905 -0.0089 -0.2838
 6781TIP3    H141834   5.089   6.662  12.505  1.3175  0.5267  0.1240
 6781TIP3    H241835   5.184   6.700  12.393  0.7040  2.7591  0.3151
 6782TIP3   OH241836   4.547   0.867   2.148  0.3882 -0.1320  0.3375
 6782TIP3    H141837   4.522   0.815   2.225  0.5637  0.3541  0.7269
 6782TIP3    H241838   4.641   0.852   2.139  0.2435 -0.7521 -0.2149
 6783TIP3   OH241839   1.182   3.331   5.454  0.1110  0.5596  0.5013
 6783TIP3    H141840   1.114   3.274   5.419 -0.9730  2.3436 -0.4538
 6783TIP3    H241841   1.138   3.384   5.521  0.9044  0.7813  0.8698
 6784TIP3   OH241842   4.243   2.876  17.196 -0.4017  0.2141 -0.2103
 6784TIP3    H141843   4.322   2.922  17.168  0.4500 -0.2225  1.3739
 6784TIP3    H241844   4.274   2.795  17.235 -1.5459  0.3727  1.1346
 6785TIP3   OH241845   3.995   2.867  15.674 -0.5104 -0.0052  0.1178
 6785TIP3    H141846   4.066   2.848  15.612  1.5685  3.7850  1.0251
 6785TIP3    H241847   3.936   2.925  15.626 -0.3043  0.8305  0.8552
 6786TIP3   OH241848   0.602   2.649  12.432 -0.6195  0.6004 -0.1148
 6786TIP3    H141849   0.589   2.744  12.438 -1.1138  0.4935  0.7019
 6786TIP3    H241850   0.514   2.612  12.439 -0.3214  0.0339  0.8454
 6787TIP3   OH241851   5.289   3.425   4.369 -0.3587  0.2234 -0.8038
 6787TIP3    H141852   5.233   3.354   4.339  0.3396 -1.4479  1.5346
 6787TIP3    H241853   5.378   3.397   4.345 -0.0673  0.2425  0.2176
 6788TIP3   OH241854   4.483   3.460  12.881  0.7462  0.1533 -0.2252
 6788TIP3    H141855   4.419   3.530  12.868 -1.9834 -1.4493  3.0269
 6788TIP3    H241856   4.534   3.487  12.958  0.7862 -0.6662  0.0522
 6789TIP3   OH241857   1.282   6.013  13.855 -0.2813 -0.6875  0.1882
 6789TIP3    H141858   1.316   6.012  13.945 -1.3420 -0.9381  0.6038
 6789TIP3    H241859   1.352   5.975  13.803  0.9178  0.7652  0.6937
 6790TIP3   OH241860   5.537   1.210  14.794  0.2445 -0.0966 -0.3898
 6790TIP3    H141861   5.585   1.285  14.756 -0.6109  0.4175 -0.4823
 6790TIP3    H241862   5.601   1.167  14.851  1.4340 -0.5998 -2.0107
 6791TIP3   OH241863   1.348   6.578   5.198  0.8177  0.3848  0.0464
 6791TIP3    H141864   1.271   6.631   5.218  0.1732 -0.3272 -0.5126
 6791TIP3    H241865   1.399   6.632   5.137 -0.2566  0.0362 -1.1927
 6792TIP3   OH241866   5.361   1.690   5.878  0.7006 -0.2169  0.6794
 6792TIP3    H141867   5.330   1.636   5.951  1.5586  1.0802  2.0643
 6792TIP3    H241868   5.456   1.682   5.881  0.7930  0.6756  0.3630
 6793TIP3   OH241869   3.354   2.117   5.425  0.3364 -0.2984  0.3507
 6793TIP3    H141870   3.378   2.118   5.332 -0.9965 -0.8777 -0.0275
 6793TIP3    H241871   3.318   2.204   5.441 -0.9862 -0.7280 -0.1403
 6794TIP3   OH241872   4.746   4.777   2.676  0.2880 -0.1380 -0.1573
 6794TIP3    H141873   4.708   4.823   2.601 -1.2483  1.1257  1.3012
 6794TIP3    H241874   4.813   4.838   2.710 -0.5898  0.3302  0.7906
 6795TIP3   OH241875   1.059   0.150   3.828 -0.1224 -0.6404 -0.1938
 6795TIP3    H141876   1.028   0.212   3.762  0.0405 -0.2630  0.0817
 6795TIP3    H241877   1.074   0.069   3.779  0.5333 -0.2068 -0.7243
 6796TIP3   OH241878   2.831   3.060  12.608 -0.4137  0.3572  0.2776
 6796TIP3    H141879   2.899   3.072  12.541 -0.3038  0.2028  0.3596
 6796TIP3    H241880   2.756   3.026  12.560  1.0408 -4.2550  0.7619
 6797TIP3   OH241881   2.215   5.339  14.634  0.1659 -0.2455 -0.5680
 6797TIP3    H141882   2.250   5.330  14.723 -2.6720  1.3579  0.8340
 6797TIP3    H241883   2.145   5.273  14.629 -2.3312  2.1637 -0.0585
 6798TIP3   OH241884   1.184   4.072   2.693 -0.2855 -0.0371  0.1231
 6798TIP3    H141885   1.214   4.024   2.770 -0.9761 -0.5735  0.0618
 6798TIP3    H241886   1.247   4.144   2.685 -0.2691  0.1030  1.2518
 6799TIP3   OH241887   0.352   2.773   0.821  0.5883  0.0078 -0.4108
 6799TIP3    H141888   0.402   2.692   0.808  0.1453 -0.3279 -0.0611
 6799TIP3    H241889   0.297   2.755   0.897  0.6802  0.7366 -0.1681
 6800TIP3   OH241890   1.288   0.942  11.341 -0.1819  0.4969 -0.3473
 6800TIP3    H141891   1.355   0.877  11.361 -2.5024 -1.5760  1.3175
 6800TIP3    H241892   1.327   1.026  11.365  1.6310 -0.6870  1.0690
 6801TIP3   OH241893   0.655   4.406   0.725 -0.0025  0.5478  0.2727
 6801TIP3    H141894   0.564   4.386   0.700  0.0317  1.4157 -0.6374
 6801TIP3    H241895   0.659   4.388   0.819 -0.5707 -1.4143 -0.0255
 6802TIP3   OH241896   5.908   3.479   3.137  0.3758  0.3728 -0.3162
 6802TIP3    H141897   5.954   3.540   3.195  0.6698  1.1803 -1.3751
 6802TIP3    H241898   5.830   3.527   3.110 -2.1140 -1.5541  2.7551
 6803TIP3   OH241899   2.213   5.547  13.272  0.2012 -0.2560 -0.0112
 6803TIP3    H141900   2.256   5.629  13.248 -1.1429 -0.0310 -1.8540
 6803TIP3    H241901   2.136   5.542  13.215  0.0953 -2.6601  0.2249
 6804TIP3   OH241902   3.517   2.754   4.162  0.1060 -0.5528 -0.9368
 6804TIP3    H141903   3.463   2.697   4.216 -0.2074  1.8862  1.5889
 6804TIP3    H241904   3.607   2.738   4.192 -0.2456  2.7342  2.7318
 6805TIP3   OH241905   6.776   0.032   0.025 -0.0519 -0.1122 -0.6673
 6805TIP3    H141906   6.835   0.016  -0.048  0.9910  0.1736  0.0841
 6805TIP3    H241907   6.690   0.005  -0.007  0.2245  0.7980 -2.2832
 6806TIP3   OH241908   5.990   3.596   6.136  0.5533  0.1555 -0.0934
 6806TIP3    H141909   6.015   3.531   6.202 -0.2001  0.2807  0.3222
 6806TIP3    H241910   5.957   3.545   6.062 -1.5244  0.0588  0.8298
 6807TIP3   OH241911   3.852   4.093  12.318  0.4425  0.0968  0.1647
 6807TIP3    H141912   3.779   4.066  12.262  0.6404 -0.6715  0.2671
 6807TIP3    H241913   3.930   4.065  12.271  0.6963  1.2073 -0.0956
 6808TIP3   OH241914   5.010   2.334   3.061 -0.0923 -0.1178  0.1355
 6808TIP3    H141915   5.009   2.339   3.157  1.0769 -1.6290  0.2499
 6808TIP3    H241916   5.076   2.399   3.035  1.2253 -1.2735  0.5048
 6809TIP3   OH241917   3.535   0.331  15.469 -0.6205 -0.2380  0.0069
 6809TIP3    H141918   3.459   0.314  15.525 -0.9859  0.2259 -0.3458
 6809TIP3    H241919   3.500   0.380  15.395 -0.0012 -0.1497 -0.2307
 6810TIP3   OH241920   5.761   5.447   4.512  0.4640  0.1016  0.2592
 6810TIP3    H141921   5.830   5.512   4.523 -0.1821  1.2153 -1.7305
 6810TIP3    H241922   5.681   5.493   4.541 -0.1499  0.6305 -2.0693
 6811TIP3   OH241923   5.273   0.430   4.573  0.5027 -0.2114 -0.1518
 6811TIP3    H141924   5.359   0.460   4.600 -0.4657  1.1850  1.5777
 6811TIP3    H241925   5.229   0.509   4.540 -0.8424 -0.3981  1.0740
 6812TIP3   OH241926   3.889   2.741   3.141  0.2931  0.4971 -0.5376
 6812TIP3    H141927   3.904   2.834   3.123 -0.5301  0.3699 -1.9822
 6812TIP3    H241928   3.827   2.740   3.214  0.1309  1.0812 -0.6642
 6813TIP3   OH241929   6.532   3.778   6.426 -0.1232  0.8603 -0.6295
 6813TIP3    H141930   6.577   3.834   6.489  0.3694  0.6275 -0.7710
 6813TIP3    H241931   6.446   3.764   6.465  0.0070  1.1091 -0.2386
 6814TIP3   OH241932   0.570   4.491  16.638  0.2835  0.1253  0.2281
 6814TIP3    H141933   0.482   4.470  16.607  0.3374  0.1295  0.0748
 6814TIP3    H241934   0.609   4.542  16.567  0.5759 -0.2703  0.1008
 6815TIP3   OH241935   6.307   2.543   1.746  0.0568  0.7306  0.2374
 6815TIP3    H141936   6.301   2.508   1.835  1.1646  0.1434  0.1010
 6815TIP3    H241937   6.336   2.634   1.758 -3.4185  1.9235  0.6220
 6816TIP3   OH241938   1.863   0.267   2.128  0.1771  0.8377  0.6009
 6816TIP3    H141939   1.926   0.339   2.127  1.4727 -0.2534 -0.7842
 6816TIP3    H241940   1.834   0.259   2.037  0.0580 -0.3656  0.7243
 6817TIP3   OH241941   3.923   5.316  16.037  0.3378  0.1894  0.3806
 6817TIP3    H141942   3.982   5.345  16.107  0.0449 -1.0132  1.1501
 6817TIP3    H241943   3.940   5.222  16.030  0.8388  0.3953 -1.6372
 6818TIP3   OH241944   6.729   4.813   2.741  0.3078 -0.4756 -0.4192
 6818TIP3    H141945   6.694   4.892   2.780  0.6009  0.1808 -1.4489
 6818TIP3    H241946   6.737   4.833   2.648 -0.6766 -2.0946 -0.8980
 6819TIP3   OH241947   0.908   2.094   0.069 -0.2149 -0.5476 -0.2317
 6819TIP3    H141948   0.827   2.054   0.038 -0.6548  0.9311 -1.0803
 6819TIP3    H241949   0.962   2.104  -0.010 -0.5054  1.3456 -0.2393
 6820TIP3   OH241950   3.682   6.377  11.233 -0.2043  0.0946  0.5507
 6820TIP3    H141951   3.641   6.425  11.162 -1.0159  0.5459  1.3077
 6820TIP3    H241952   3.721   6.445  11.289 -2.0235 -0.0036  2.0472
 6821TIP3   OH241953   0.254   3.754  16.396 -0.3795 -0.0350  0.2409
 6821TIP3    H141954   0.289   3.683  16.450  1.1925  0.3147 -0.2745
 6821TIP3    H241955   0.253   3.830  16.454  1.0017  0.2622 -0.0814
 6822TIP3   OH241956   2.242   2.896  15.862 -0.0659 -0.1395  0.2668
 6822TIP3    H141957   2.313   2.907  15.925  0.3379 -0.1812 -0.1719
 6822TIP3    H241958   2.200   2.814  15.888 -2.1984  1.5512  2.6839
 6823TIP3   OH241959   0.389   1.132   5.907  0.4106  0.1491  0.1368
 6823TIP3    H141960   0.428   1.080   5.836 -0.6212 -1.3750  0.6200
 6823TIP3    H241961   0.299   1.148   5.878 -0.1653 -0.8982  1.2692
 6824TIP3   OH241962   4.481   4.898  16.380 -0.1345 -0.1691  0.2848
 6824TIP3    H141963   4.523   4.945  16.452 -0.1221 -0.8380  0.7276
 6824TIP3    H241964   4.513   4.808  16.388  0.1011 -0.1872 -0.7468
 6825TIP3   OH241965   5.982   5.472  14.565  0.3496  0.0213 -0.4655
 6825TIP3    H141966   5.892   5.497  14.584  0.1902 -0.0800 -1.0602
 6825TIP3    H241967   5.977   5.380  14.539  0.5090  0.2306 -1.2711
 6826TIP3   OH241968   3.605   4.970  12.863  0.3420  0.2816  0.3591
 6826TIP3    H141969   3.558   5.046  12.831  0.8483  1.6179  2.5761
 6826TIP3    H241970   3.621   4.917  12.785  0.5262  2.7368 -1.3795
 6827TIP3   OH241971   2.373   0.899  14.559 -0.3298 -0.0485  0.6614
 6827TIP3    H141972   2.329   0.929  14.638  1.3620  2.1064  0.9024
 6827TIP3    H241973   2.303   0.888  14.495 -1.3987  1.7110  1.4584
 6828TIP3   OH241974   4.627   5.867   3.691 -0.0788 -0.3649  0.1364
 6828TIP3    H141975   4.597   5.830   3.773  1.2587 -1.4320  0.1665
 6828TIP3    H241976   4.699   5.926   3.715 -0.1338 -0.1444 -0.2136
 6829TIP3   OH241977   4.076   6.070   5.773  0.0471  0.1818  0.1434
 6829TIP3    H141978   4.018   6.123   5.827 -0.9456 -1.2546  0.5510
 6829TIP3    H241979   4.091   6.122   5.694 -0.1183  1.4422  0.9150
 6830TIP3   OH241980   4.928   0.659  15.303 -0.0834  0.1560  0.2661
 6830TIP3    H141981   4.914   0.744  15.344  1.3999  0.8541 -0.5984
 6830TIP3    H241982   4.998   0.619  15.354  0.6095  0.3268 -0.5165
 6831TIP3   OH241983   1.306   4.904  11.337  0.2980  0.3271 -0.1489
 6831TIP3    H141984   1.277   4.961  11.265  0.3603  1.2598  0.5355
 6831TIP3    H241985   1.362   4.961  11.390  0.2794 -0.3573  0.6110
 6832TIP3   OH241986   6.441   3.517   6.638  0.4883  0.2825 -0.5050
 6832TIP3    H141987   6.378   3.485   6.573  1.8040 -2.0619 -0.7472
 6832TIP3    H241988   6.425   3.611   6.642 -2.6800 -0.1209 -0.8807
 6833TIP3   OH241989   1.148   1.092  13.999 -0.2065 -0.2764  0.3309
 6833TIP3    H141990   1.226   1.038  14.013  0.3573  0.1704 -0.8755
 6833TIP3    H241991   1.111   1.105  14.086 -0.0169 -2.0822  0.7123
 6834TIP3   OH241992   4.607   0.035  16.695  0.0642  0.7430  0.3063
 6834TIP3    H141993   4.613   0.017  16.789 -1.0315 -0.4104  0.1832
 6834TIP3    H241994   4.513   0.047  16.679  0.2818  1.4181 -0.5693
 6835TIP3   OH241995   3.822   3.869   5.893  0.5159 -0.4805  0.0652
 6835TIP3    H141996   3.779   3.912   5.819  1.8037  0.7046 -0.0361
 6835TIP3    H241997   3.775   3.902   5.970 -0.0014 -0.7166 -0.1440
 6836TIP3   OH241998   1.293   0.091   4.062  0.3447 -0.1645 -0.1547
 6836TIP3    H141999   1.260   0.093   4.152 -0.5046  0.5356 -0.4702
 6836TIP3    H242000   1.293  -0.002   4.039 -1.1395 -0.2215 -0.0280
 6837TIP3   OH242001   6.214   6.293   0.008 -0.2940 -0.0974  0.8442
 6837TIP3    H142002   6.133   6.331  -0.027  0.8157 -0.1340 -2.0266
 6837TIP3    H242003   6.246   6.358   0.070 -0.8345  1.5039 -0.4753
 6838TIP3   OH242004   2.768   3.396   6.115 -0.3630  0.3758 -0.5139
 6838TIP3    H142005   2.814   3.469   6.155 -2.0544  0.4688  1.3634
 6838TIP3    H242006   2.828   3.321   6.127  0.0588  0.8321  0.3098
 6839TIP3   OH242007   4.348   6.439   1.071  0.2046 -0.0975 -0.4002
 6839TIP3    H142008   4.371   6.466   0.983 -1.6579  1.8625 -0.3577
 6839TIP3    H242009   4.407   6.488   1.128  0.1564  0.0870 -0.5075
 6840TIP3   OH242010   2.486   0.556  16.541 -0.4473 -0.2214  0.5944
 6840TIP3    H142011   2.495   0.557  16.636 -2.1459  0.8878  0.7836
 6840TIP3    H242012   2.490   0.463  16.517  1.1192 -0.4388  1.5915
 6841TIP3   OH242013   2.704   4.560   5.616 -0.0693  0.3738 -0.4951
 6841TIP3    H142014   2.693   4.591   5.705 -0.0314  1.8002 -0.9644
 6841TIP3    H242015   2.777   4.498   5.620 -1.0149 -0.7180  0.6945
 6842TIP3   OH242016   3.972   3.038   4.553  0.3064  0.4686 -0.1907
 6842TIP3    H142017   3.987   3.046   4.647  0.3486 -1.4056  0.0038
 6842TIP3    H242018   4.017   2.956   4.529 -2.1261 -0.6303 -1.2772
 6843TIP3   OH242019   5.088   0.495   3.976  0.4585 -0.5222  0.4136
 6843TIP3    H142020   5.169   0.505   4.025  0.5899  0.2169  0.0568
 6843TIP3    H242021   5.031   0.445   4.034  0.8917 -0.3537  0.9904
 6844TIP3   OH242022   5.858   4.361  13.959  0.0084 -0.3237 -0.3221
 6844TIP3    H142023   5.772   4.318  13.961 -0.0662 -0.1453  0.4378
 6844TIP3    H242024   5.891   4.354  14.048  0.6065 -0.0240 -0.5139
 6845TIP3   OH242025   5.417   1.840  15.052  0.7178  0.1659  0.6682
 6845TIP3    H142026   5.508   1.867  15.040 -0.2854  2.7975 -2.9044
 6845TIP3    H242027   5.403   1.773  14.986 -0.0474  0.0543  0.9333
 6846TIP3   OH242028   2.247   2.092  12.452  0.0431  0.3812  0.2201
 6846TIP3    H142029   2.228   2.075  12.360  2.4328 -1.9120  0.0200
 6846TIP3    H242030   2.171   2.058  12.499 -0.4307 -0.0445 -0.8165
 6847TIP3   OH242031   0.376   0.807   2.258 -0.0001  0.3850  0.1441
 6847TIP3    H142032   0.429   0.810   2.338 -0.8610 -3.2389  1.0430
 6847TIP3    H242033   0.295   0.853   2.281  0.5344  1.0957  0.6451
 6848TIP3   OH242034   0.085   6.192  14.783  0.3216 -0.4006 -0.4943
 6848TIP3    H142035   0.043   6.248  14.718  0.4704 -1.0331 -1.1543
 6848TIP3    H242036   0.178   6.214  14.778  0.0077  2.1946  2.1258
 6849TIP3   OH242037   1.784   4.021  15.289  0.1827  0.8183  0.5993
 6849TIP3    H142038   1.844   4.094  15.307 -0.7219  1.4496  1.1602
 6849TIP3    H242039   1.706   4.063  15.252  0.6131 -0.1264 -1.4920
 6850TIP3   OH242040   2.752   4.430   3.322 -0.4219 -0.2288 -0.2589
 6850TIP3    H142041   2.702   4.447   3.242  0.1655  0.3213 -0.5137
 6850TIP3    H242042   2.837   4.471   3.307 -0.6698  0.8732  1.0970
 6851TIP3   OH242043   5.069   3.317   3.827 -0.2999  0.4666  0.9260
 6851TIP3    H142044   5.118   3.236   3.844  0.2172  0.6750  0.4678
 6851TIP3    H242045   4.981   3.298   3.858 -0.1078 -0.1689  1.1125
 6852TIP3   OH242046   5.817   2.162   0.293  0.5829 -0.3671 -0.5765
 6852TIP3    H142047   5.783   2.241   0.334  1.6378 -0.2092  0.0107
 6852TIP3    H242048   5.909   2.158   0.320  1.1410 -0.6118 -2.3858
 6853TIP3   OH242049   3.860   4.405   3.891 -0.5174  1.0049  0.0306
 6853TIP3    H142050   3.935   4.455   3.922 -1.0585  1.4275  0.6855
 6853TIP3    H242051   3.833   4.352   3.966  0.4836 -0.8413 -0.8516
 6854TIP3   OH242052   3.569   4.224   1.728 -0.1471  0.0982  0.7004
 6854TIP3    H142053   3.539   4.281   1.657  0.5915  0.3899  0.6123
 6854TIP3    H242054   3.566   4.136   1.691 -1.1841  0.0805  0.7997
 6855TIP3   OH242055   4.915   2.613   4.245  0.3139 -0.3942 -0.0592
 6855TIP3    H142056   5.005   2.588   4.265  0.5946 -0.4729 -1.3281
 6855TIP3    H242057   4.899   2.690   4.300  0.7248 -1.0995  1.0777
 6856TIP3   OH242058   1.139   3.590  11.568 -0.3994  0.1779  0.0820
 6856TIP3    H142059   1.075   3.561  11.632 -0.2135  1.3201  0.7942
 6856TIP3    H242060   1.134   3.524  11.498 -2.4623  0.3347  0.0244
 6857TIP3   OH242061   2.809   0.201   1.493 -0.1095 -0.2255  0.3724
 6857TIP3    H142062   2.871   0.225   1.562  0.8702  0.4275 -0.7088
 6857TIP3    H242063   2.773   0.284   1.463  1.2803 -0.2537 -1.5350
 6858TIP3   OH242064   3.212   4.174   6.377 -0.2754  0.2125  0.2689
 6858TIP3    H142065   3.193   4.241   6.443 -2.4177  0.0147 -0.0666
 6858TIP3    H242066   3.288   4.207   6.330 -0.2320  1.5649  1.2139
 6859TIP3   OH242067   6.757   4.361   1.201  0.1270  0.4227  0.0592
 6859TIP3    H142068   6.835   4.325   1.243 -0.9188 -0.1134  1.6357
 6859TIP3    H242069   6.787   4.387   1.114  2.0939  0.4028  0.6782
 6860TIP3   OH242070   3.009   6.375   0.993  0.0118 -0.0850 -0.2715
 6860TIP3    H142071   2.947   6.335   0.931  1.2959  0.0598 -1.7040
 6860TIP3    H242072   3.003   6.469   0.975 -1.4479  0.2314  1.6220
 6861TIP3   OH242073   4.405   0.045  11.304 -0.4498  0.2561  0.0089
 6861TIP3    H142074   4.464   0.107  11.346 -0.8615  1.2977 -0.8819
 6861TIP3    H242075   4.331   0.099  11.274 -0.9616 -0.7133 -0.5307
 6862TIP3   OH242076   5.642   5.109   0.726  0.9315 -0.4156 -0.4636
 6862TIP3    H142077   5.629   5.204   0.734  1.4936 -0.3351 -0.4597
 6862TIP3    H242078   5.711   5.099   0.660  0.8503 -0.8247 -0.4908
 6863TIP3   OH242079   1.339   2.415  10.903 -0.1404 -0.3322  0.3457
 6863TIP3    H142080   1.365   2.383  10.989 -0.6005 -1.1827  0.1754
 6863TIP3    H242081   1.408   2.384  10.844  0.4588  0.7015  0.4664
 6864TIP3   OH242082   5.909   3.379   3.410  0.3859 -0.1580  0.3569
 6864TIP3    H142083   5.929   3.402   3.320  0.4453  0.6916  0.5804
 6864TIP3    H242084   5.962   3.438   3.463 -0.3556  0.0001  0.9465
 6865TIP3   OH242085   6.045   1.895  14.561 -0.5986  0.5675  0.5125
 6865TIP3    H142086   5.956   1.873  14.589 -0.9997 -0.1906 -1.2754
 6865TIP3    H242087   6.034   1.954  14.486  0.4314  1.1308  0.7733
 6866TIP3   OH242088   4.535   3.552   5.643 -0.5751  0.3350 -0.0739
 6866TIP3    H142089   4.512   3.593   5.560 -1.5824  0.4017  0.2285
 6866TIP3    H242090   4.550   3.625   5.703  1.4863  0.3282 -0.5094
 6867TIP3   OH242091   4.600   6.688  12.170 -0.2410 -0.5249 -0.1990
 6867TIP3    H142092   4.632   6.630  12.100 -0.3843 -0.5356 -0.2561
 6867TIP3    H242093   4.679   6.722  12.211 -0.1549 -0.8923 -0.0582
 6868TIP3   OH242094   1.589   2.649   6.273  0.0770 -0.6805  0.4481
 6868TIP3    H142095   1.503   2.608   6.262  0.4149 -1.6910  1.3543
 6868TIP3    H242096   1.613   2.677   6.184 -1.4888  0.3150  0.2940
 6869TIP3   OH242097   3.440   1.450   0.817  0.0384 -0.6175 -0.1640
 6869TIP3    H142098   3.477   1.406   0.740  1.0250 -1.4841  0.7607
 6869TIP3    H242099   3.485   1.409   0.891  1.9035  2.7161  0.7518
 6870TIP3   OH242100   6.532   3.881  14.146 -0.5881 -0.2982  0.1715
 6870TIP3    H142101   6.607   3.886  14.206  0.3278 -2.0371 -0.7299
 6870TIP3    H242102   6.455   3.890  14.202  0.2605 -0.6033  1.4375
 6871TIP3   OH242103   3.351   5.168   1.315  0.1684 -0.1472 -0.5420
 6871TIP3    H142104   3.339   5.073   1.309 -0.3785 -0.1562  0.4461
 6871TIP3    H242105   3.444   5.182   1.299  0.3800 -0.9131 -0.0188
 6872TIP3   OH242106   2.370   6.603   2.574 -0.0220  0.0603  0.0568
 6872TIP3    H142107   2.300   6.542   2.551  0.3128 -0.7716  1.1921
 6872TIP3    H242108   2.351   6.629   2.664 -0.7417  2.4654 -0.7194
 6873TIP3   OH242109   1.798   2.587   1.042  0.0154  0.0422 -0.6325
 6873TIP3    H142110   1.795   2.590   0.946 -2.0310  1.2088 -0.5983
 6873TIP3    H242111   1.762   2.672   1.069 -4.6066 -2.1312  1.1113
 6874TIP3   OH242112   4.334   2.821  13.606  0.3768  0.3272  0.5434
 6874TIP3    H142113   4.349   2.896  13.549  1.8532 -0.2611  0.0878
 6874TIP3    H242114   4.413   2.817  13.661  0.9081 -1.5752 -0.2815
 6875TIP3   OH242115   1.055   1.200   6.385 -0.2370  0.1888  0.1520
 6875TIP3    H142116   1.011   1.126   6.425  0.0771  0.1297  0.3960
 6875TIP3    H242117   1.006   1.277   6.415  0.1581  0.1687  0.8927
 6876TIP3   OH242118   3.030   5.060  15.616  0.3040 -0.1869 -0.0740
 6876TIP3    H142119   2.956   5.039  15.559 -0.5238  1.8928  0.1577
 6876TIP3    H242120   3.080   4.979  15.620 -1.8678 -1.6274 -0.3472
 6877TIP3   OH242121   5.892   3.215  14.544 -1.2175 -0.0889 -0.2309
 6877TIP3    H142122   5.873   3.273  14.617  1.1860 -1.7302  1.8833
 6877TIP3    H242123   5.835   3.140  14.557 -1.5142  0.0610 -0.6525
 6878TIP3   OH242124   2.391   4.971  10.758 -0.1696  0.2419 -0.4122
 6878TIP3    H142125   2.402   4.965  10.853  0.5518  0.0542 -0.5091
 6878TIP3    H242126   2.302   5.006  10.747 -0.4332 -0.1783  0.3197
 6879TIP3   OH242127   6.351   4.435  13.736 -0.5269  0.4046  0.2540
 6879TIP3    H142128   6.263   4.426  13.774 -0.6968 -0.7975 -0.3654
 6879TIP3    H242129   6.366   4.351  13.692  1.4474  0.0905  1.4216
 6880TIP3   OH242130   4.689   0.355  12.091 -0.0401 -0.1521 -0.0730
 6880TIP3    H142131   4.781   0.330  12.099  0.1943  0.5569 -0.4896
 6880TIP3    H242132   4.641   0.273  12.102  0.6904 -0.7236 -0.9827
 6881TIP3   OH242133   1.106   3.284  13.231 -0.4032  0.5006 -0.0496
 6881TIP3    H142134   1.146   3.338  13.300 -1.5815  1.4906 -0.1261
 6881TIP3    H242135   1.063   3.346  13.173 -1.9216 -0.5287 -0.0683
 6882TIP3   OH242136   4.356   6.749  17.208  0.3649  0.7406 -0.4458
 6882TIP3    H142137   4.344   6.819  17.144  1.2218  1.2428 -0.0789
 6882TIP3    H242138   4.268   6.715  17.224 -0.0329  1.5696 -0.8204
 6883TIP3   OH242139   0.536   5.976   2.144  0.2011  0.0798  0.1408
 6883TIP3    H142140   0.458   5.954   2.093  0.4880  0.1484 -0.3381
 6883TIP3    H242141   0.577   5.892   2.163 -1.1876 -0.1746  2.3929
 6884TIP3   OH242142   4.044   3.579   1.092 -0.0367  0.3997  0.2877
 6884TIP3    H142143   4.121   3.598   1.145  0.6675 -2.4042  0.4025
 6884TIP3    H242144   4.005   3.502   1.133 -0.2607 -1.0180 -2.3717
 6885TIP3   OH242145   4.307   2.866  12.907 -0.6146 -0.1754  0.0529
 6885TIP3    H142146   4.303   2.848  12.813 -1.1208 -1.2179  0.2671
 6885TIP3    H242147   4.392   2.832  12.934 -0.3767  0.3182 -0.0585
 6886TIP3   OH242148   5.501   6.520   2.486 -0.6306  0.6187 -0.4026
 6886TIP3    H142149   5.479   6.503   2.394  0.2414 -0.4836 -0.4221
 6886TIP3    H242150   5.473   6.442   2.533  1.8918 -0.2845 -0.2372
 6887TIP3   OH242151   2.851   0.435  14.153 -0.5920 -0.1011 -0.4451
 6887TIP3    H142152   2.770   0.383  14.145 -1.1289  0.5820  0.4225
 6887TIP3    H242153   2.876   0.452  14.062  0.1983 -2.7472 -0.8131
 6888TIP3   OH242154   0.987   3.814  15.043  0.4786 -0.1134  0.2430
 6888TIP3    H142155   0.926   3.742  15.034  1.3753 -0.6799 -1.8240
 6888TIP3    H242156   0.931   3.892  15.055 -0.5807 -0.7757 -0.2762
 6889TIP3   OH242157   4.072   6.566  16.263  0.0291  0.1223  0.2525
 6889TIP3    H142158   4.058   6.532  16.352 -0.7232  1.3480  0.6267
 6889TIP3    H242159   4.085   6.660  16.275 -1.4780  0.5348 -1.0331
 6890TIP3   OH242160   6.317   5.208   6.137  0.2090 -0.6279 -0.0065
 6890TIP3    H142161   6.340   5.264   6.212  2.4201  0.3157 -1.2980
 6890TIP3    H242162   6.348   5.121   6.162 -0.8011 -0.7511  0.9132
 6891TIP3   OH242163   6.543   2.437   1.617  0.7156  0.4231 -0.4871
 6891TIP3    H142164   6.554   2.369   1.685  0.2230  0.8945  0.0768
 6891TIP3    H242165   6.491   2.505   1.660 -0.2378  0.4059 -1.5779
 6892TIP3   OH242166   0.970   2.550  16.776  0.7464  0.4153 -0.1656
 6892TIP3    H142167   0.984   2.513  16.863  1.3762  0.1023 -0.3974
 6892TIP3    H242168   0.875   2.543  16.763  0.8961 -1.8071 -0.4931
 6893TIP3   OH242169   0.188   2.274   1.691 -0.0288  0.9489 -0.4826
 6893TIP3    H142170   0.189   2.325   1.610 -0.8292  2.2307  0.2900
 6893TIP3    H242171   0.098   2.244   1.699 -0.1064  1.3699  0.2631
 6894TIP3   OH242172   3.319   5.069  14.549  0.4620  0.0542 -0.4610
 6894TIP3    H142173   3.269   5.066  14.467 -0.6860  0.6265  0.2018
 6894TIP3    H242174   3.286   4.994  14.599 -0.8753  1.2986  0.6004
 6895TIP3   OH242175   2.216   4.203  14.567 -0.3971  0.4027 -0.1875
 6895TIP3    H142176   2.164   4.126  14.548 -0.3101  0.4165 -0.4977
 6895TIP3    H242177   2.302   4.184  14.529 -0.2496  0.4764  0.1086
 6896TIP3   OH242178   0.383   4.643   5.366  0.6333 -0.1817  0.4437
 6896TIP3    H142179   0.388   4.552   5.396  1.8045 -0.3757 -0.2952
 6896TIP3    H242180   0.377   4.694   5.447 -0.1307 -0.8992  0.8649
 6897TIP3   OH242181   3.310   0.067  11.021 -0.3118 -0.1079 -0.2026
 6897TIP3    H142182   3.237   0.073  10.959 -1.8430 -1.5757  1.3505
 6897TIP3    H242183   3.269   0.038  11.103  1.9984 -0.6621  0.8150
 6898TIP3   OH242184   2.252   5.824   4.693  0.3067  0.3749  0.0484
 6898TIP3    H142185   2.309   5.753   4.721 -0.0007  0.5286  1.1084
 6898TIP3    H242186   2.300   5.867   4.622  1.3942  0.3418  0.7385
 6899TIP3   OH242187   5.907   2.691  16.862  0.1240  0.0844 -0.8056
 6899TIP3    H142188   5.931   2.781  16.885 -1.6340  0.3166  0.3475
 6899TIP3    H242189   5.983   2.657  16.815  1.2755  1.8051 -0.2938
 6900TIP3   OH242190   4.738   2.365   4.777  0.1657 -0.4607 -0.5099
 6900TIP3    H142191   4.745   2.270   4.769  1.3557 -0.6612  1.9904
 6900TIP3    H242192   4.784   2.386   4.859  0.9188  2.4069 -1.5499
 6901TIP3   OH242193   1.013   5.579  14.333  0.0480 -0.1081  0.2739
 6901TIP3    H142194   1.094   5.558  14.287  0.0929 -1.8234  1.0282
 6901TIP3    H242195   0.968   5.495  14.341 -1.2595  0.6174  0.8854
 6902TIP3   OH242196   1.931   4.154  11.172 -0.0522  0.0139 -0.2198
 6902TIP3    H142197   1.921   4.066  11.136 -0.4798  0.7116 -1.9518
 6902TIP3    H242198   1.907   4.212  11.099  0.0625  1.5603  0.9170
 6903TIP3   OH242199   2.444   3.276  13.206 -0.0814 -0.8666  0.0125
 6903TIP3    H142200   2.421   3.235  13.123 -0.7324  2.0287 -1.3524
 6903TIP3    H242201   2.365   3.324  13.232  0.2482 -1.3603  2.1292
 6904TIP3   OH242202   0.178   0.442  14.248 -0.3358 -0.3593 -0.1715
 6904TIP3    H142203   0.149   0.363  14.292 -1.0195 -0.5740 -0.9887
 6904TIP3    H242204   0.208   0.499  14.318 -0.4758 -1.0755  0.4783
 6905TIP3   OH242205   3.079   0.415  16.793  0.3600 -0.4447  0.6860
 6905TIP3    H142206   3.143   0.350  16.824  1.2113  0.7949  1.6487
 6905TIP3    H242207   3.131   0.473  16.737 -0.3979 -0.5694 -0.1718
 6906TIP3   OH242208   1.628   2.449   6.480  0.1014 -0.1926  0.0988
 6906TIP3    H142209   1.714   2.473   6.515  0.6195 -1.1692 -0.4665
 6906TIP3    H242210   1.598   2.527   6.432  1.6010 -0.5092 -1.4426
 6907TIP3   OH242211   3.446   5.180  13.492  1.2264  0.2425 -0.0046
 6907TIP3    H142212   3.353   5.200  13.502  0.7951 -1.6220  0.1011
 6907TIP3    H242213   3.469   5.219  13.408  0.3037  0.6013 -0.1073
 6908TIP3   OH242214   5.170   2.802  15.194 -0.3025  0.2197  0.6313
 6908TIP3    H142215   5.265   2.792  15.185 -0.5019 -2.8389  0.7356
 6908TIP3    H242216   5.141   2.829  15.107  0.5434 -0.2073  0.1951
 6909TIP3   OH242217   5.375   5.643   3.368  0.0172  0.5135  0.8168
 6909TIP3    H142218   5.455   5.675   3.327 -0.0644 -0.2437  0.0324
 6909TIP3    H242219   5.344   5.716   3.422 -1.4681  2.7133 -2.6674
 6910TIP3   OH242220   2.084   4.110   3.868 -0.4402  0.2921  0.2543
 6910TIP3    H142221   2.172   4.141   3.890  0.3923 -2.6521  1.5444
 6910TIP3    H242222   2.026   4.173   3.911  1.1440 -0.8241  4.5650
 6911TIP3   OH242223   0.672   5.950  16.938 -0.3099  0.1645  0.1751
 6911TIP3    H142224   0.661   5.987  17.025  0.1226  0.3115  0.1652
 6911TIP3    H242225   0.652   5.857  16.949 -1.0756  0.3301  0.2632
 6912TIP3   OH242226   2.735   4.091   0.956  0.4379  0.1210 -0.0234
 6912TIP3    H142227   2.752   4.005   0.996  1.1485 -0.4332 -1.4640
 6912TIP3    H242228   2.797   4.096   0.884 -1.3033  0.7704 -1.5466
 6913TIP3   OH242229   1.840   0.598  15.269 -0.2642  0.6358  0.0725
 6913TIP3    H142230   1.819   0.636  15.354 -0.7387 -1.1130  0.7757
 6913TIP3    H242231   1.758   0.600  15.220 -0.4222  0.0306  0.3100
 6914TIP3   OH242232   3.511   1.085  13.472 -0.0625 -0.7900  0.1908
 6914TIP3    H142233   3.524   0.996  13.505 -0.1302 -0.9026 -0.0816
 6914TIP3    H242234   3.434   1.117  13.518 -0.1153 -0.9210  0.1923
 6915TIP3   OH242235   4.856   2.796  12.863  0.0076  0.3947 -0.6382
 6915TIP3    H142236   4.772   2.833  12.836 -0.2662  0.8660  0.7892
 6915TIP3    H242237   4.836   2.747  12.943  1.0741  0.4070 -0.3459
 6916TIP3   OH242238   1.791   4.402   5.981 -0.6668  0.2445 -0.9359
 6916TIP3    H142239   1.875   4.425   6.020 -1.1862 -0.7084  0.8474
 6916TIP3    H242240   1.727   4.453   6.031 -1.3043 -0.5479 -0.9217
 6917TIP3   OH242241   4.429   2.017  11.242  0.3099  0.0393  0.2561
 6917TIP3    H142242   4.480   1.950  11.286 -1.5871 -2.4060 -1.0194
 6917TIP3    H242243   4.366   1.969  11.188 -1.6872  2.8399 -0.1803
 6918TIP3   OH242244   2.529   6.276   0.870  0.3998 -0.4340  0.1993
 6918TIP3    H142245   2.582   6.337   0.921  2.1263  0.6074 -2.5855
 6918TIP3    H242246   2.456   6.328   0.838  1.2949 -0.0448 -1.2977
 6919TIP3   OH242247   0.475   2.665  16.221 -0.5537  0.4438  0.4133
 6919TIP3    H142248   0.541   2.730  16.195 -2.1336  1.5328 -1.1104
 6919TIP3    H242249   0.417   2.659  16.145  0.3936 -4.0359 -0.2097
 6920TIP3   OH242250   2.877   1.234  13.717  0.3501 -0.1573 -0.3516
 6920TIP3    H142251   2.800   1.205  13.767  0.4347  1.3726  0.7242
 6920TIP3    H242252   2.849   1.315  13.675  0.9607 -0.3192 -1.0982
 6921TIP3   OH242253   2.521   1.529   5.371 -0.0567  0.5465  1.2303
 6921TIP3    H142254   2.509   1.623   5.364 -0.0816  0.5548  1.3784
 6921TIP3    H242255   2.497   1.508   5.461 -0.6393  0.3044  1.0216
 6922TIP3   OH242256   6.016   5.398   2.409 -0.2031  0.6707 -0.5263
 6922TIP3    H142257   6.047   5.331   2.349  0.5096  1.9208 -1.6118
 6922TIP3    H242258   5.966   5.350   2.476  1.5353 -1.0748 -0.4025
 6923TIP3   OH242259   0.588   0.391  13.430  0.6224 -0.0289  0.2462
 6923TIP3    H142260   0.582   0.380  13.525 -2.9183  0.9064  0.2663
 6923TIP3    H242261   0.599   0.485  13.417  2.8290 -0.3115 -0.3195
 6924TIP3   OH242262   5.811   6.662   2.199 -0.0467 -0.3420  0.0788
 6924TIP3    H142263   5.815   6.667   2.103 -1.1074 -0.7088  0.0023
 6924TIP3    H242264   5.738   6.719   2.223  1.3396  1.2073  0.8347
 6925TIP3   OH242265   0.231   2.437   0.926  0.5465 -0.4799  0.2223
 6925TIP3    H142266   0.273   2.446   0.840 -0.4735 -1.0271 -0.3476
 6925TIP3    H242267   0.295   2.389   0.978  1.7050  0.9434  0.1681
 6926TIP3   OH242268   0.626   3.286   4.211 -0.1407  0.4046  0.2907
 6926TIP3    H142269   0.682   3.265   4.286  2.4255 -2.5949 -2.2050
 6926TIP3    H242270   0.676   3.351   4.162 -0.5398  0.3285 -0.2220
 6927TIP3   OH242271   2.982   3.113   2.225  0.1667  0.5768 -0.4715
 6927TIP3    H142272   2.999   3.024   2.196 -0.4590  0.1290  0.4738
 6927TIP3    H242273   2.961   3.104   2.318  3.5943  2.0980  0.6317
 6928TIP3   OH242274   4.913   6.191   5.714  0.1530 -0.4414 -0.4485
 6928TIP3    H142275   4.945   6.242   5.788  0.1745 -1.4042  0.2292
 6928TIP3    H242276   4.841   6.139   5.749 -2.3931  1.7787 -1.9703
 6929TIP3   OH242277   0.824   0.186  11.931 -0.1297 -0.1074 -0.3765
 6929TIP3    H142278   0.753   0.217  11.876 -1.2544 -3.1307 -0.7864
 6929TIP3    H242279   0.835   0.254  11.997 -1.2619  1.8542 -2.1103
 6930TIP3   OH242280   3.765   1.774  13.249  0.0835 -0.1377  0.3040
 6930TIP3    H142281   3.701   1.737  13.188 -0.4458  0.3869  0.5268
 6930TIP3    H242282   3.734   1.747  13.335 -0.2732  0.7495  0.4624
 6931TIP3   OH242283   5.854   2.315  14.255  0.3617 -0.5192  0.1842
 6931TIP3    H142284   5.779   2.367  14.284  0.3727 -0.4381  0.0685
 6931TIP3    H242285   5.831   2.287  14.167  0.0122 -1.3717  0.5359
 6932TIP3   OH242286   4.570   4.647  16.138  0.2035 -0.7602 -0.5830
 6932TIP3    H142287   4.482   4.653  16.176  0.0831 -0.5376 -0.8911
 6932TIP3    H242288   4.622   4.601  16.204 -0.3631 -1.6816 -0.7601
 6933TIP3   OH242289   4.112   3.962  13.277  0.2053  0.1188 -0.5161
 6933TIP3    H142290   4.116   3.935  13.369  1.7234  1.5788 -0.0861
 6933TIP3    H242291   4.103   4.058  13.281  0.8712  0.2616 -1.8772
 6934TIP3   OH242292   6.471   1.941   1.677 -0.0013 -0.6431 -0.7934
 6934TIP3    H142293   6.399   1.920   1.737  0.2416  0.5834 -0.0452
 6934TIP3    H242294   6.443   2.020   1.631  1.6010  1.0253  0.9013
 6935TIP3   OH242295   6.579   6.370   2.525  0.1274  0.3388  0.4288
 6935TIP3    H142296   6.645   6.437   2.546  0.0804  0.4362  0.2690
 6935TIP3    H242297   6.605   6.294   2.576  1.0472 -0.0135 -0.5341
 6936TIP3   OH242298   0.817   6.015   1.518 -0.0370  0.3221 -0.2307
 6936TIP3    H142299   0.755   6.074   1.562 -0.3634  0.4853 -0.8896
 6936TIP3    H242300   0.777   5.928   1.527  0.0103  0.3223 -0.0110
 6937TIP3   OH242301   5.783   4.907  14.323 -0.1045  0.1596 -0.6328
 6937TIP3    H142302   5.788   5.000  14.303 -0.0627  0.9297  2.4999
 6937TIP3    H242303   5.690   4.891  14.341  0.0710 -0.1003  0.0677
 6938TIP3   OH242304   5.477   6.315   0.347  0.2430  0.3738 -0.3009
 6938TIP3    H142305   5.409   6.260   0.308 -0.6936  0.7066  0.7948
 6938TIP3    H242306   5.429   6.371   0.408  1.6291 -0.0215  1.1873
 6939TIP3   OH242307   3.439   3.448  13.016  0.3436  0.1348  0.1128
 6939TIP3    H142308   3.360   3.495  12.992  0.7134  0.2344 -0.9311
 6939TIP3    H242309   3.508   3.515  13.016  0.3657  0.1396  1.4519
 6940TIP3   OH242310   4.735   4.250  10.664  0.1975  0.6784 -0.2884
 6940TIP3    H142311   4.706   4.296  10.584 -0.9696 -2.0327 -1.5538
 6940TIP3    H242312   4.808   4.196  10.635  1.5099  1.6035  1.1488
 6941TIP3   OH242313   2.081   0.574   4.515  0.6844  0.2304  0.4058
 6941TIP3    H142314   2.042   0.521   4.585 -0.5356  0.7491  0.1548
 6941TIP3    H242315   2.088   0.661   4.553 -3.0398  1.3654 -1.0045
 6942TIP3   OH242316   5.888   4.961   4.821 -0.1805  0.4469  0.2776
 6942TIP3    H142317   5.853   5.009   4.746  1.2555  1.3246  0.1243
 6942TIP3    H242318   5.926   5.029   4.877  1.3087 -0.4461  0.3935
 6943TIP3   OH242319   3.071   6.767   5.284 -0.2865  0.9517 -0.0428
 6943TIP3    H142320   3.014   6.724   5.348 -0.8825 -0.1372 -1.2475
 6943TIP3    H242321   3.124   6.697   5.248  0.4525  1.6428 -0.3348
 6944TIP3   OH242322   0.501   5.296   5.814 -0.0531 -0.5761 -0.1429
 6944TIP3    H142323   0.441   5.370   5.820  0.6913  0.0593 -0.4369
 6944TIP3    H242324   0.510   5.280   5.720  0.6011 -0.3680 -0.1181
 6945TIP3   OH242325   0.585   5.401  12.059  0.6319 -0.3316 -0.0757
 6945TIP3    H142326   0.546   5.403  11.972  0.7033  0.6636 -0.0892
 6945TIP3    H242327   0.510   5.400  12.119  0.5779  0.7555 -0.1173
 6946TIP3   OH242328   3.000   2.940  13.587  0.4036  0.0310 -0.3157
 6946TIP3    H142329   3.058   3.017  13.582  2.4826 -0.8860  3.9993
 6946TIP3    H242330   2.935   2.964  13.653 -0.1436 -1.2259 -0.3818
 6947TIP3   OH242331   3.945   1.922  13.080  0.0251  0.5186  0.3339
 6947TIP3    H142332   3.883   1.883  13.141 -0.2587 -0.6252 -0.6408
 6947TIP3    H242333   4.029   1.882  13.101 -0.2944 -0.7904 -0.7646
 6948TIP3   OH242334   6.802   5.199  16.936  0.1409 -0.1072  0.6263
 6948TIP3    H142335   6.714   5.162  16.924 -0.4244  1.1494  0.6792
 6948TIP3    H242336   6.827   5.231  16.850 -0.4386  1.5563  1.0351
 6949TIP3   OH242337   0.957   3.387  16.724 -0.1684  0.1433 -0.2276
 6949TIP3    H142338   1.052   3.398  16.713  0.6516 -2.9225  2.3771
 6949TIP3    H242339   0.934   3.314  16.666 -0.4046 -0.6864  0.8733
 6950TIP3   OH242340   0.450   4.153   1.229 -0.5162  0.5130  0.0401
 6950TIP3    H142341   0.511   4.148   1.156 -1.1005 -1.3953 -0.3831
 6950TIP3    H242342   0.489   4.098   1.297 -0.7998  0.9063  0.5306
 6951TIP3   OH242343   2.185   5.269  14.214 -0.3790 -0.5482 -0.4554
 6951TIP3    H142344   2.243   5.303  14.282  0.3681 -1.0219 -0.8473
 6951TIP3    H242345   2.112   5.331  14.212 -0.0982 -0.1804  0.3350
 6952TIP3   OH242346   1.670   4.231  14.363  0.1880 -0.0457  0.0861
 6952TIP3    H142347   1.685   4.325  14.350 -0.8655  0.0340 -0.6638
 6952TIP3    H242348   1.655   4.222  14.457 -0.4851  0.6723  0.0623
 6953TIP3   OH242349   3.002   1.093  15.987 -0.4560  0.1848  0.3813
 6953TIP3    H142350   2.926   1.150  15.999 -0.4824  0.3474 -0.4442
 6953TIP3    H242351   3.037   1.119  15.901  0.5056  0.0848  0.7360
 6954TIP3   OH242352   6.021   1.858  12.194  0.1770 -0.9655  0.1211
 6954TIP3    H142353   6.096   1.911  12.223 -0.4540 -0.0636  0.1362
 6954TIP3    H242354   5.944   1.910  12.217 -0.3938 -0.5859 -2.3928
 6955TIP3   OH242355   4.575   3.639   1.475  0.3444 -0.6317 -0.6408
 6955TIP3    H142356   4.555   3.554   1.435  1.6796 -2.3581  2.0135
 6955TIP3    H242357   4.670   3.648   1.464  0.2112  0.5650 -0.9091
 6956TIP3   OH242358   5.079   2.890  13.262 -0.3137  0.2672  0.2132
 6956TIP3    H142359   5.110   2.901  13.352 -0.5793 -0.9635  0.4723
 6956TIP3    H242360   5.157   2.896  13.208 -0.2270  1.6706  0.4419
 6957TIP3   OH242361   5.552   0.358  13.603 -0.9158 -0.7251 -0.2003
 6957TIP3    H142362   5.592   0.274  13.625 -0.5679 -0.5469 -0.1411
 6957TIP3    H242363   5.618   0.403  13.550 -1.3929 -0.7937 -0.8793
 6958TIP3   OH242364   3.456   0.337   0.881  0.4613 -0.5538 -0.4257
 6958TIP3    H142365   3.536   0.360   0.834  0.2240  1.1463 -0.0427
 6958TIP3    H242366   3.485   0.322   0.971  0.4834 -0.9450 -0.4948
 6959TIP3   OH242367   1.998   5.175  12.082  0.1354  0.2100  0.6935
 6959TIP3    H142368   1.937   5.129  12.024  1.3609 -0.5127 -0.0606
 6959TIP3    H242369   1.944   5.203  12.156 -1.0786 -0.5374  0.1243
 6960TIP3   OH242370   2.320   3.192   4.598 -0.1455  0.2699 -0.4150
 6960TIP3    H142371   2.285   3.281   4.587  1.5670  1.2173  1.2401
 6960TIP3    H242372   2.295   3.167   4.687 -0.9656 -1.1369 -0.9943
 6961TIP3   OH242373   0.245   0.126  15.720  0.1914 -0.1107  0.1510
 6961TIP3    H142374   0.261   0.052  15.778  1.9358  1.2716  1.5518
 6961TIP3    H242375   0.159   0.159  15.746  0.1814 -0.5913  0.7418
 6962TIP3   OH242376   5.029   3.660  16.422 -0.3114 -0.3519  0.1604
 6962TIP3    H142377   5.057   3.578  16.382  1.1868  0.5336 -0.6845
 6962TIP3    H242378   5.042   3.646  16.516  0.6930 -0.8094 -0.0328
 6963TIP3   OH242379   4.876   4.172  13.299  0.2946 -0.1593  0.0317
 6963TIP3    H142380   4.867   4.267  13.295 -0.3894 -0.0939  1.9932
 6963TIP3    H242381   4.902   4.146  13.211  0.5673  1.8468 -0.5161
 6964TIP3   OH242382   6.708   0.733   3.352  0.6510 -0.3814 -0.0083
 6964TIP3    H142383   6.789   0.752   3.399  0.6617 -2.8898  1.1613
 6964TIP3    H242384   6.655   0.685   3.415 -2.3608  2.2549 -0.3049
 6965TIP3   OH242385   5.889   2.446  14.540 -0.0360 -0.5114 -0.4055
 6965TIP3    H142386   5.946   2.385  14.586 -0.0439 -0.1054  0.1587
 6965TIP3    H242387   5.806   2.399  14.531  0.4387 -1.1794 -1.4104
 6966TIP3   OH242388   4.703   0.695   2.477  0.8053  0.0915 -0.6855
 6966TIP3    H142389   4.719   0.623   2.538 -0.0816  1.6189  1.4543
 6966TIP3    H242390   4.638   0.750   2.520 -1.5082  0.2048 -3.9362
 6967TIP3   OH242391   4.106   6.094  11.353 -0.5115 -0.7158  0.2903
 6967TIP3    H142392   4.154   6.175  11.370 -2.6831  0.2151  2.3777
 6967TIP3    H242393   4.087   6.098  11.259 -0.0483  0.8802  0.2274
 6968TIP3   OH242394   0.959   4.246   5.608  0.4710  0.7051  0.0215
 6968TIP3    H142395   1.027   4.243   5.541  1.1657  0.4188  0.7214
 6968TIP3    H242396   0.877   4.229   5.561  1.0404 -0.3719 -0.6137
 6969TIP3   OH242397   6.552   0.948   4.887  0.0718  0.3976  0.1152
 6969TIP3    H142398   6.573   1.032   4.926  0.5517  1.4167 -2.1744
 6969TIP3    H242399   6.496   0.970   4.812  2.8061 -0.9264 -2.5140
 6970TIP3   OH242400   5.265   5.061  16.407  0.3160 -0.1192  0.5162
 6970TIP3    H142401   5.180   5.043  16.447  0.3166 -1.4400 -0.0158
 6970TIP3    H242402   5.255   5.146  16.365 -1.2173 -0.8887 -0.7519
 6971TIP3   OH242403   4.992   2.638   4.563 -0.0306 -0.4630  0.1815
 6971TIP3    H142404   5.038   2.681   4.491  3.1416 -0.8284  1.7877
 6971TIP3    H242405   5.056   2.576   4.599 -1.9342 -1.2849  2.4421
 6972TIP3   OH242406   0.374   2.571  16.785 -0.1087 -0.2210  0.0774
 6972TIP3    H142407   0.391   2.611  16.699  2.0072  1.0323  1.0033
 6972TIP3    H242408   0.310   2.628  16.826 -0.4179 -0.3014 -0.2807
 6973TIP3   OH242409   1.642   3.628   5.632 -0.1176 -0.2980 -0.2006
 6973TIP3    H142410   1.700   3.578   5.689 -0.2014 -1.5839 -1.1865
 6973TIP3    H242411   1.560   3.636   5.680 -0.1767 -1.3413 -0.1168
 6974TIP3   OH242412   1.807   1.711   2.779 -0.3417 -0.7410  0.3383
 6974TIP3    H142413   1.787   1.795   2.818  1.1775 -0.0705 -0.2240
 6974TIP3    H242414   1.856   1.732   2.699  0.4660 -2.1498  0.4133
 6975TIP3   OH242415   1.486   0.401   5.059 -0.0552  0.3329 -0.4402
 6975TIP3    H142416   1.515   0.341   5.128  0.9891  2.1021  0.7243
 6975TIP3    H242417   1.567   0.423   5.012 -0.7224 -0.7155 -2.2028
 6976TIP3   OH242418   2.482   1.630   1.815 -0.2296  0.4521  0.0780
 6976TIP3    H142419   2.558   1.641   1.758 -0.0270 -0.6296  0.1230
 6976TIP3    H242420   2.466   1.718   1.851  0.6796  0.7928 -0.3251
 6977TIP3   OH242421   3.437   0.538   2.947  0.4363 -0.6114  0.6603
 6977TIP3    H142422   3.423   0.626   2.981  2.0177 -0.6271  1.4472
 6977TIP3    H242423   3.433   0.548   2.852  2.4190  0.6831  0.6695
 6978TIP3   OH242424   6.371   4.313  12.719 -0.4998 -0.3579 -0.1538
 6978TIP3    H142425   6.303   4.380  12.720 -0.4260 -0.2785  0.7575
 6978TIP3    H242426   6.347   4.254  12.790 -0.3250 -1.0643 -0.6714
 6979TIP3   OH242427   2.454   4.730   5.618 -0.4543 -0.7334  0.3209
 6979TIP3    H142428   2.451   4.662   5.551  1.6427  0.6290 -1.2920
 6979TIP3    H242429   2.544   4.726   5.652 -0.2236  1.2140  0.0954
 6980TIP3   OH242430   4.954   5.270   5.357  0.3540  0.1370 -0.2826
 6980TIP3    H142431   4.930   5.337   5.293  1.7477  0.8873 -0.0384
 6980TIP3    H242432   4.882   5.206   5.352 -1.1773  1.7727 -0.2960
 6981TIP3   OH242433   1.230   4.460  17.330  0.2959 -0.4231  0.0063
 6981TIP3    H142434   1.138   4.454  17.307  0.1693 -1.2229  0.6672
 6981TIP3    H242435   1.230   4.466  17.426  0.9898 -2.4585  0.1746
 6982TIP3   OH242436   2.531   5.672  11.770 -0.0399  0.1924 -0.1862
 6982TIP3    H142437   2.462   5.605  11.765  0.3999 -0.1820 -1.7480
 6982TIP3    H242438   2.594   5.635  11.832 -0.9582  0.2915  0.8431
 6983TIP3   OH242439   0.819   2.289   5.161 -0.8903 -0.8492  0.0049
 6983TIP3    H142440   0.818   2.194   5.172 -1.7974 -0.8464  0.0117
 6983TIP3    H242441   0.805   2.303   5.067  1.8282 -0.7536 -0.4734
 6984TIP3   OH242442   3.685   1.194   1.933 -0.3748  0.2000  0.9400
 6984TIP3    H142443   3.670   1.099   1.934 -1.4044  0.3470  0.8160
 6984TIP3    H242444   3.618   1.229   1.993  1.8743  0.6246  3.3908
 6985TIP3   OH242445   3.268   4.188  11.197  0.3707 -0.2985  0.2842
 6985TIP3    H142446   3.184   4.146  11.212 -0.0691  0.3186 -0.3716
 6985TIP3    H242447   3.270   4.205  11.102  1.7646 -1.4015  0.0805
 6986TIP3   OH242448   3.901   1.227  13.902 -0.0223 -0.1704  0.4948
 6986TIP3    H142449   3.908   1.319  13.925 -0.9990 -0.2722  1.2338
 6986TIP3    H242450   3.812   1.202  13.926 -0.5137 -0.7732 -1.7207
 6987TIP3   OH242451   5.992   2.588  16.027  0.0994 -0.1614  0.1450
 6987TIP3    H142452   5.905   2.623  16.046 -0.1492 -0.2281 -0.8457
 6987TIP3    H242453   6.025   2.641  15.955 -0.6032 -2.4043 -1.9392
 6988TIP3   OH242454   6.717   6.483   3.067  0.2005 -0.1033  0.0959
 6988TIP3    H142455   6.630   6.497   3.105 -0.9575  0.2101 -2.4384
 6988TIP3    H242456   6.725   6.388   3.060  1.0275 -0.2485  2.2432
 6989TIP3   OH242457   6.426   1.453   6.078 -0.5869  0.4245 -0.0461
 6989TIP3    H142458   6.516   1.461   6.046 -0.9113 -1.8601 -1.8697
 6989TIP3    H242459   6.428   1.487   6.167  1.1888  4.0301 -1.2422
 6990TIP3   OH242460   0.380   4.784  11.666  0.1548  0.2341  0.5098
 6990TIP3    H142461   0.331   4.736  11.733 -2.4469  0.9724 -0.7010
 6990TIP3    H242462   0.388   4.723  11.594 -1.2070  0.8339 -0.1965
 6991TIP3   OH242463   3.185   1.233  11.139 -0.6254  0.0174  0.0777
 6991TIP3    H142464   3.163   1.145  11.111 -1.3777  0.1977  0.0689
 6991TIP3    H242465   3.206   1.280  11.058  1.7074 -0.6308  0.2243
 6992TIP3   OH242466   2.177   1.704  12.640  0.0864 -0.2047 -0.0409
 6992TIP3    H142467   2.200   1.787  12.597 -1.1370  0.3935  0.4342
 6992TIP3    H242468   2.190   1.721  12.733  0.4182 -0.7518  0.0183
 6993TIP3   OH242469   0.374   2.319   0.248  0.2509  0.6199 -0.1382
 6993TIP3    H142470   0.323   2.393   0.282  1.8797  1.1878  1.1844
 6993TIP3    H242471   0.398   2.269   0.325  2.5291  0.9344 -0.5772
 6994TIP3   OH242472   3.189   0.896   1.876 -0.2296  0.3774  0.7377
 6994TIP3    H142473   3.128   0.862   1.810  0.0130 -1.0619  1.2269
 6994TIP3    H242474   3.226   0.974   1.836 -0.5993 -0.0884 -0.5606
 6995TIP3   OH242475   3.274   4.384   1.206 -0.0259 -0.2869 -0.3747
 6995TIP3    H142476   3.338   4.366   1.137  0.7907 -2.4155  0.8385
 6995TIP3    H242477   3.191   4.349   1.172  0.6779 -2.7548  0.2171
 6996TIP3   OH242478   0.745   4.620   5.407  0.2810 -0.3487 -0.1542
 6996TIP3    H142479   0.684   4.586   5.473  0.1931  0.0629 -0.0195
 6996TIP3    H242480   0.780   4.542   5.365  0.8393 -0.6479  0.8276
 6997TIP3   OH242481   3.675   3.645   5.898  0.4397 -0.0370 -0.0323
 6997TIP3    H142482   3.733   3.578   5.935 -0.8769 -0.1690  1.9564
 6997TIP3    H242483   3.735   3.711   5.863  1.7692 -1.7607 -1.2198
 6998TIP3   OH242484   6.110   1.116   4.492  0.0764  0.1937  0.3458
 6998TIP3    H142485   6.078   1.177   4.559 -1.0795  0.2049 -0.1754
 6998TIP3    H242486   6.034   1.062   4.472  0.6458 -0.3614 -0.3535
 6999TIP3   OH242487   0.097   2.961  13.131  0.2814  0.3203 -0.0330
 6999TIP3    H142488   0.095   2.932  13.222  0.9055  0.8063  0.1421
 6999TIP3    H242489   0.007   2.948  13.100 -0.3364  1.6391  1.1209
 7000TIP3   OH242490   3.152   0.495   1.912 -0.3716 -0.6483 -0.3323
 7000TIP3    H142491   3.118   0.482   2.000 -0.2855  2.7436  0.3328
 7000TIP3    H242492   3.074   0.510   1.858 -0.2974  1.2871  0.0331
 7001TIP3   OH242493   3.493   0.227  17.053 -0.0626  0.1753 -0.0236
 7001TIP3    H142494   3.443   0.275  16.987 -1.8074  1.6509  2.2021
 7001TIP3    H242495   3.439   0.151  17.073 -0.3293  0.5366  0.7115
 7002TIP3   OH242496   2.922   5.727  13.159  0.0325  0.4758 -0.0267
 7002TIP3    H142497   2.950   5.810  13.198  1.6423  0.8749 -1.8948
 7002TIP3    H242498   2.858   5.752  13.092 -2.4451 -0.1756  1.9471
 7003TIP3   OH242499   0.004   1.248  13.526 -0.2443 -0.2525  0.5800
 7003TIP3    H142500   0.022   1.289  13.442 -0.3895 -1.6225 -0.1430
 7003TIP3    H242501   0.013   1.319  13.590  1.2893  0.5047 -0.4270
 7004TIP3   OH242502   2.503   3.714  12.704 -0.1174  0.1160  0.0769
 7004TIP3    H142503   2.501   3.763  12.786 -0.2299  0.2445 -0.0035
 7004TIP3    H242504   2.559   3.767  12.646  1.9317 -1.1218  0.8133
 7005TIP3   OH242505   4.443   4.215  15.648 -0.0629  0.1874  0.3097
 7005TIP3    H142506   4.507   4.161  15.601  0.3154  0.9463 -0.0684
 7005TIP3    H242507   4.399   4.154  15.707  0.9985 -0.3547  0.5626
 7006TIP3   OH242508   3.421   6.396  13.104 -0.3067 -0.4643 -0.1462
 7006TIP3    H142509   3.451   6.425  13.017  0.0978 -1.4210 -0.3431
 7006TIP3    H242510   3.345   6.342  13.086 -0.7632  0.0646  0.1768
 7007TIP3   OH242511   5.279   0.963  17.379 -0.3527  0.4872  0.2070
 7007TIP3    H142512   5.251   1.054  17.373 -2.4435 -0.1202 -0.2317
 7007TIP3    H242513   5.284   0.934  17.288 -1.8485 -0.4023  0.3814
 7008TIP3   OH242514   1.311   2.213   1.289  0.1781  0.4542  0.1869
 7008TIP3    H142515   1.298   2.141   1.351  0.6850  0.0851 -0.1206
 7008TIP3    H242516   1.244   2.277   1.312  0.0999  0.1448  0.8521
 7009TIP3   OH242517   5.710   0.685   4.550 -0.3313 -0.4688 -0.0348
 7009TIP3    H142518   5.635   0.706   4.495 -0.5226 -0.8683  0.0704
 7009TIP3    H242519   5.702   0.591   4.567  1.4503 -1.0621 -1.9776
 7010TIP3   OH242520   4.144   5.746  12.680  0.8520  0.0641 -0.6118
 7010TIP3    H142521   4.097   5.819  12.639  1.2957 -0.3795 -1.9588
 7010TIP3    H242522   4.236   5.769  12.673  0.9872 -0.5354 -0.8585
 7011TIP3   OH242523   5.456   5.636  13.065  0.0551  0.0216  0.2324
 7011TIP3    H142524   5.428   5.678  12.984  1.1574  2.1033  0.8417
 7011TIP3    H242525   5.402   5.558  13.073  0.3777 -0.6322 -2.8432
 7012TIP3   OH242526   1.641   5.724   1.592  0.0337 -0.5765 -0.8409
 7012TIP3    H142527   1.600   5.795   1.641  0.5177 -0.9326  0.1139
 7012TIP3    H242528   1.663   5.659   1.659  1.0546 -0.9092 -1.4809
 7013TIP3   OH242529   4.751   5.956   0.289 -0.0291  0.2582  0.5551
 7013TIP3    H142530   4.773   6.003   0.209  0.4124 -0.6445  0.1287
 7013TIP3    H242531   4.717   5.872   0.258  1.8856 -0.8575  1.3125
 7014TIP3   OH242532   1.863   1.174   4.889 -0.0367 -0.2603 -0.1107
 7014TIP3    H142533   1.868   1.195   4.796 -0.3090 -2.6359 -0.7408
 7014TIP3    H242534   1.809   1.244   4.927 -0.3024  0.5044 -1.8215
 7015TIP3   OH242535   5.687   2.851  17.026  0.5911 -0.0544 -0.0671
 7015TIP3    H142536   5.618   2.787  17.044 -0.3331  1.3005  1.4816
 7015TIP3    H242537   5.642   2.927  16.990  1.5152  0.1840 -0.7599
 7016TIP3   OH242538   6.724   3.505   6.404 -0.3828  0.4717  0.3430
 7016TIP3    H142539   6.722   3.539   6.494 -0.0858  0.4736  0.3491
 7016TIP3    H242540   6.647   3.544   6.362 -0.8173  0.0518  0.7438
 7017TIP3   OH242541   0.837   0.095  13.998  0.8162  0.8119  0.1111
 7017TIP3    H142542   0.835   0.025  13.932  2.1826  1.2616 -0.4355
 7017TIP3    H242543   0.790   0.168  13.957 -1.9874 -0.2017  1.2691
 7018TIP3   OH242544   4.425   6.269  11.226 -0.3867  0.2347 -0.2579
 7018TIP3    H142545   4.389   6.291  11.312  1.4285 -0.5755  0.7616
 7018TIP3    H242546   4.462   6.352  11.194 -0.4845  0.3911  0.0263
 7019TIP3   OH242547   1.582   0.058   4.236 -0.1119 -0.5608  0.2235
 7019TIP3    H142548   1.508   0.007   4.270 -0.4926  0.5677  1.1291
 7019TIP3    H242549   1.576   0.048   4.141 -0.4377 -1.8274  0.3630
 7020TIP3   OH242550   1.911   1.339   3.922  0.0744  0.0486  0.0128
 7020TIP3    H142551   1.861   1.416   3.895 -0.2488  0.6457  2.1316
 7020TIP3    H242552   1.996   1.350   3.879 -0.3112  1.0357 -0.5508
 7021TIP3   OH242553   1.396   2.668  16.607 -0.7249  0.6140  0.4031
 7021TIP3    H142554   1.348   2.645  16.686  0.3549 -0.3732  0.7936
 7021TIP3    H242555   1.425   2.758  16.621  0.4998  0.0512  1.6873
 7022TIP3   OH242556   0.139   2.324  10.874 -0.2459 -0.5462  0.0559
 7022TIP3    H142557   0.163   2.395  10.815 -0.7525  0.5012  1.0667
 7022TIP3    H242558   0.057   2.289  10.840  0.1236 -0.8156 -0.5742
 7023TIP3   OH242559   6.219   4.665  15.294  0.0948 -0.0274 -0.0502
 7023TIP3    H142560   6.248   4.753  15.271  0.4071 -0.2129 -0.3699
 7023TIP3    H242561   6.232   4.658  15.388  2.5254 -0.6280 -0.3740
 7024TIP3   OH242562   2.930   5.950   6.267 -0.2802 -0.1469 -0.5349
 7024TIP3    H142563   3.017   5.991   6.264 -0.5616  0.3943 -2.1915
 7024TIP3    H242564   2.876   6.011   6.317 -0.1372  0.3764 -1.0180
 7025TIP3   OH242565   0.898   0.150   4.040  0.2614 -0.3464 -0.3144
 7025TIP3    H142566   0.821   0.195   4.006 -0.3057 -1.5363 -0.6505
 7025TIP3    H242567   0.963   0.158   3.970  0.4393  0.5864 -0.0632
 7026TIP3   OH242568   0.699   0.979  13.183  0.0852  0.1401 -0.2332
 7026TIP3    H142569   0.705   1.042  13.110  0.7854  0.6534  0.2540
 7026TIP3    H242570   0.723   1.030  13.260  0.9899 -0.7995  0.1293
 7027TIP3   OH242571   1.122   5.286   2.670 -0.1171 -0.1412 -0.1704
 7027TIP3    H142572   1.095   5.368   2.710 -1.4455 -0.5808 -0.1307
 7027TIP3    H242573   1.094   5.218   2.732  0.0744 -0.6815 -0.6652
 7028TIP3   OH242574   6.157   1.655   3.899 -0.3671  0.2694 -0.6592
 7028TIP3    H142575   6.086   1.718   3.888 -0.8560 -0.0128  0.6610
 7028TIP3    H242576   6.113   1.574   3.926  0.5306  0.5182  1.7457
 7029TIP3   OH242577   5.728   0.209   0.422 -0.0766 -0.1558  0.1542
 7029TIP3    H142578   5.775   0.292   0.412 -0.9771  0.1409 -2.2919
 7029TIP3    H242579   5.642   0.235   0.455 -0.5898 -0.0102 -1.2528
 7030TIP3   OH242580   4.526   6.671   0.953  0.4810  0.1052  0.0144
 7030TIP3    H142581   4.494   6.747   1.002 -0.1256 -0.3285  0.2974
 7030TIP3    H242582   4.594   6.634   1.009  0.1088 -0.1196  0.3209
 7031TIP3   OH242583   5.549   4.256   3.422  0.2440  0.1014 -0.6901
 7031TIP3    H142584   5.543   4.223   3.512 -0.1428  0.7088 -0.4840
 7031TIP3    H242585   5.581   4.345   3.432  0.5591  0.0426 -1.1859
 7032TIP3   OH242586   1.361   0.882   3.855 -0.3860  0.0142 -0.0555
 7032TIP3    H142587   1.319   0.922   3.931 -1.2129  1.0673 -1.0341
 7032TIP3    H242588   1.316   0.920   3.780  0.6396 -0.7456 -1.0866
 7033TIP3   OH242589   2.408   3.854   2.415  0.1693  0.1015  0.5294
 7033TIP3    H142590   2.487   3.893   2.451  0.4675  0.1193 -0.1356
 7033TIP3    H242591   2.439   3.787   2.355 -0.2939  0.7740 -0.4916
 7034TIP3   OH242592   1.146   1.808  16.531  0.2697 -0.0940 -0.3017
 7034TIP3    H142593   1.106   1.759  16.603  1.8795 -2.4325 -0.8984
 7034TIP3    H242594   1.193   1.879  16.574  0.6327 -1.0284  0.9175
 7035TIP3   OH242595   4.084   0.871   4.129  0.2168  0.3870  1.1593
 7035TIP3    H142596   4.122   0.840   4.047 -0.3990  0.5027  0.8177
 7035TIP3    H242597   4.012   0.810   4.146 -0.0914  0.7701  1.2419
 7036TIP3   OH242598   6.760   1.328   0.445  0.2338  0.1809 -0.1388
 7036TIP3    H142599   6.666   1.346   0.450  0.3079  0.6025 -0.3051
 7036TIP3    H242600   6.801   1.401   0.489  0.5720  0.8503 -1.5153
 7037TIP3   OH242601   4.315   4.425   6.084 -0.2065 -0.3796  0.5870
 7037TIP3    H142602   4.227   4.434   6.119 -0.8279  2.5292 -1.3720
 7037TIP3    H242603   4.314   4.343   6.035 -2.1230  0.0027 -0.0798
 7038TIP3   OH242604   2.503   4.453  12.765 -0.0078  0.7795  0.5618
 7038TIP3    H142605   2.549   4.378  12.728 -0.5550 -0.6916  2.6933
 7038TIP3    H242606   2.411   4.435  12.751 -0.1093  1.5832  0.1518
 7039TIP3   OH242607   5.689   2.324   3.207  0.1167  0.0773  0.0669
 7039TIP3    H142608   5.736   2.390   3.256  0.9666  0.0491 -0.6933
 7039TIP3    H242609   5.716   2.240   3.246 -0.7641  0.1416  0.8602
 7040TIP3   OH242610   1.132   4.376   5.974  0.8480 -0.0439  0.6012
 7040TIP3    H142611   1.113   4.434   6.048 -1.6152 -0.5844  0.4988
 7040TIP3    H242612   1.116   4.431   5.897 -1.5805 -0.7609  0.5038
 7041TIP3   OH242613   0.050   0.866  10.347 -0.2429 -0.0198 -0.4411
 7041TIP3    H142614   0.125   0.823  10.305 -0.8058 -0.7471 -0.7244
 7041TIP3    H242615   0.027   0.808  10.419 -0.4765  0.2538 -0.2961
 7042TIP3   OH242616   2.516   0.832   3.519  0.2786  0.3897 -0.8268
 7042TIP3    H142617   2.485   0.752   3.563  0.9654 -0.0689 -1.1511
 7042TIP3    H242618   2.600   0.851   3.561  1.2070 -0.3481 -2.2264
 7043TIP3   OH242619   1.888   1.854  13.664 -0.0293 -0.0284  0.4058
 7043TIP3    H142620   1.978   1.885  13.656 -0.4767  0.9529 -1.3227
 7043TIP3    H242621   1.864   1.825  13.576 -1.6915  0.6076  0.6051
 7044TIP3   OH242622   0.360   3.809   4.354  0.4895 -0.1290  0.3519
 7044TIP3    H142623   0.314   3.729   4.330 -0.1447  0.1609  0.5591
 7044TIP3    H242624   0.308   3.846   4.425  0.0580  1.1054 -0.5607
 7045TIP3   OH242625   1.160   5.289   3.793 -0.3918 -0.1581  0.1690
 7045TIP3    H142626   1.200   5.220   3.846 -2.6732 -1.1473  0.7031
 7045TIP3    H242627   1.201   5.278   3.707  1.2124 -0.4213  0.9170
 7046TIP3   OH242628   3.374   0.572   4.287  0.4988  0.7504  0.2297
 7046TIP3    H142629   3.395   0.501   4.347 -0.7048  0.5330  0.4208
 7046TIP3    H242630   3.321   0.633   4.339 -2.3774 -0.4453 -1.0724
 7047TIP3   OH242631   3.170   2.089  11.244 -0.8396  0.1017 -0.4198
 7047TIP3    H142632   3.247   2.070  11.190 -0.5299 -0.7201  0.2775
 7047TIP3    H242633   3.100   2.107  11.181 -0.5735 -1.1527 -1.1072
 7048TIP3   OH242634   5.231   2.319  14.206 -0.4380 -0.6781  0.1009
 7048TIP3    H142635   5.282   2.399  14.217 -1.6657  0.3091 -1.1514
 7048TIP3    H242636   5.266   2.279  14.126  1.2372 -2.2743  1.5410
 7049TIP3   OH242637   5.948   4.342  12.045 -0.0379 -0.4270  0.2602
 7049TIP3    H142638   5.994   4.410  12.094 -1.6589  1.6232 -0.8658
 7049TIP3    H242639   5.968   4.361  11.953  0.1023 -2.0034 -0.0605
 7050TIP3   OH242640   0.352   6.487  16.491  0.3832  0.2687 -0.1239
 7050TIP3    H142641   0.406   6.408  16.499  0.3430  0.1769 -0.7620
 7050TIP3    H242642   0.378   6.540  16.566  1.2260  0.1382 -0.3114
 7051TIP3   OH242643   6.171   6.189  12.847  0.1279 -0.5820  0.4001
 7051TIP3    H142644   6.156   6.172  12.754  3.2176  1.1068 -0.5411
 7051TIP3    H242645   6.169   6.102  12.888  2.1744 -1.8208 -1.9001
 7052TIP3   OH242646   4.584   5.015  14.689  0.1354  0.3328  0.1673
 7052TIP3    H142647   4.563   4.922  14.694  0.7193  0.0947 -1.4662
 7052TIP3    H242648   4.679   5.019  14.685  0.1041  0.9801 -0.1019
 7053TIP3   OH242649   5.435   2.166  17.383 -0.4762 -0.2138 -0.1582
 7053TIP3    H142650   5.383   2.086  17.390 -0.3413 -0.3632 -0.8223
 7053TIP3    H242651   5.513   2.149  17.435  0.1435 -1.0002 -1.2996
 7054TIP3   OH242652   2.984   5.472  10.710  0.1785  0.2173 -0.1055
 7054TIP3    H142653   3.062   5.521  10.682  0.9877 -0.3359  1.0851
 7054TIP3    H242654   2.952   5.519  10.787  0.5803 -0.7119  0.6534
 7055TIP3   OH242655   4.732   5.496  13.801 -0.2402  0.1873 -0.2141
 7055TIP3    H142656   4.814   5.451  13.780  0.5757  1.6353 -0.2025
 7055TIP3    H242657   4.665   5.444  13.757  0.9574  0.5561 -2.6527
 7056TIP3   OH242658   5.004   0.085   4.987 -0.1882  0.2989 -0.2717
 7056TIP3    H142659   5.025   0.030   5.063  0.5711  0.0878 -0.6231
 7056TIP3    H242660   4.941   0.149   5.020 -0.4106 -0.2357  0.3612
 7057TIP3   OH242661   6.024   3.764   4.841  0.0696 -0.3341 -0.2172
 7057TIP3    H142662   5.963   3.719   4.900  0.0691  0.4294  0.3769
 7057TIP3    H242663   6.096   3.702   4.830  0.0292 -0.5202  0.5180
 7058TIP3   OH242664   1.042   6.731  17.272  0.0315 -0.1493 -0.0955
 7058TIP3    H142665   0.948   6.730  17.287  0.2764 -0.7678  1.7214
 7058TIP3    H242666   1.060   6.818  17.236 -1.1100  0.3886  0.5720
 7059TIP3   OH242667   3.936   6.301   1.949 -0.2559  1.1331 -0.0043
 7059TIP3    H142668   3.955   6.306   2.043 -0.8489  0.5156  0.1542
 7059TIP3    H242669   4.022   6.306   1.907  0.0531  0.9548  0.5872
 7060TIP3   OH242670   2.416   5.034  14.882  0.5250 -0.7936  0.0889
 7060TIP3    H142671   2.493   4.995  14.841  1.8737  2.4121 -0.7229
 7060TIP3    H242672   2.431   5.023  14.976  2.4441  0.4509 -0.0158
 7061TIP3   OH242673   2.736   0.036   0.183 -0.4168  0.5253 -0.0899
 7061TIP3    H142674   2.761   0.020   0.092 -1.1871 -0.3315 -0.1748
 7061TIP3    H242675   2.818   0.036   0.231 -0.0322  0.5940 -0.7379
 7062TIP3   OH242676   0.999   2.886  17.353  0.1062  0.0570 -0.1043
 7062TIP3    H142677   1.017   2.852  17.265  0.5983  1.1342 -0.4436
 7062TIP3    H242678   1.049   2.967  17.358  0.5282 -0.2617  1.3928
 7063TIP3   OH242679   1.657   3.531  14.504 -0.5824 -0.0080 -0.1412
 7063TIP3    H142680   1.748   3.552  14.527  0.1606 -0.6996 -2.1937
 7063TIP3    H242681   1.653   3.546  14.410 -2.9297  1.0561  0.0787
 7064TIP3   OH242682   1.655   6.770   3.128  0.2737  0.2218 -0.0327
 7064TIP3    H142683   1.675   6.857   3.162 -0.1645 -0.0011  0.8171
 7064TIP3    H242684   1.574   6.781   3.079  0.2889  0.3085 -0.0391
 7065TIP3   OH242685   5.674   5.898  14.162  0.2165  0.0351  0.0641
 7065TIP3    H142686   5.657   5.896  14.068  0.1833 -2.7087  0.0271
 7065TIP3    H242687   5.589   5.882  14.202  0.2893  0.8546  0.5641
 7066TIP3   OH242688   5.205   0.264  13.002  0.2755  0.0348 -0.4248
 7066TIP3    H142689   5.189   0.189  12.944  0.8131 -0.4443  0.0175
 7066TIP3    H242690   5.240   0.332  12.945  0.3660 -0.2747 -0.7426
 7067TIP3   OH242691   6.125   3.880  13.095 -0.3649 -0.0276 -0.2553
 7067TIP3    H142692   6.197   3.883  13.158 -0.4189  0.8150 -0.2175
 7067TIP3    H242693   6.167   3.857  13.012 -0.2028 -0.5177 -0.0446
 7068TIP3   OH242694   2.849   2.965  13.831 -0.6505 -0.3493  0.5752
 7068TIP3    H142695   2.810   2.887  13.871 -1.0122 -0.1344  0.6487
 7068TIP3    H242696   2.856   3.027  13.903  0.1685 -0.5083  0.6381
 7069TIP3   OH242697   5.449   6.024  11.933 -0.3770  0.6380 -0.3571
 7069TIP3    H142698   5.505   5.973  11.875  1.1159  0.6363  1.0079
 7069TIP3    H242699   5.501   6.101  11.955 -1.5428  1.4206 -0.2787
 7070TIP3   OH242700   2.119   4.614  17.356  0.4583  0.1552  0.8595
 7070TIP3    H142701   2.158   4.624  17.269  1.6882  2.6060  1.6042
 7070TIP3    H242702   2.029   4.586  17.338  0.8250  0.0637 -1.1485
 7071TIP3   OH242703   4.221   1.272   4.919 -0.0160 -0.0036  0.4604
 7071TIP3    H142704   4.252   1.214   4.989  1.1181  2.0532  1.7602
 7071TIP3    H242705   4.149   1.320   4.958  1.7096  2.3976  0.9279
 7072TIP3   OH242706   3.016   2.831   1.232  0.0390 -0.1647 -0.1069
 7072TIP3    H142707   2.938   2.786   1.201  0.4321 -0.5782 -0.5159
 7072TIP3    H242708   3.004   2.922   1.204 -0.2211 -0.2588 -0.3043
 7073TIP3   OH242709   1.170   4.450  13.245  0.0414 -0.0156 -0.5064
 7073TIP3    H142710   1.106   4.428  13.312  2.0140 -0.4084  1.3489
 7073TIP3    H242711   1.194   4.366  13.206 -1.0837  0.2080 -1.7562
 7074TIP3   OH242712   2.055   1.727   2.946 -0.0116  0.1932  0.3993
 7074TIP3    H142713   2.010   1.711   2.864 -0.4603 -1.6672  0.9586
 7074TIP3    H242714   2.018   1.662   3.007  2.6232 -0.7203  1.1663
 7075TIP3   OH242715   4.343   1.664   2.321 -0.5757  0.0449 -0.2533
 7075TIP3    H142716   4.275   1.610   2.281 -0.5472 -0.3225  0.1826
 7075TIP3    H242717   4.304   1.694   2.403 -0.4464  0.3691 -0.3082
 7076TIP3   OH242718   1.629   0.731  12.599 -0.1385 -0.3100 -0.2182
 7076TIP3    H142719   1.591   0.646  12.578 -1.0772  0.2622 -0.9240
 7076TIP3    H242720   1.560   0.794  12.578  0.3897  0.6028  0.6880
 7077TIP3   OH242721   5.471   5.597   1.755 -0.5360 -0.1678  0.2416
 7077TIP3    H142722   5.474   5.592   1.659  0.0139 -0.7252  0.2885
 7077TIP3    H242723   5.384   5.564   1.778 -1.8643  2.6924 -0.2217
 7078TIP3   OH242724   6.457   5.221   4.928 -0.1754 -0.0417 -0.3249
 7078TIP3    H142725   6.499   5.136   4.945 -1.3475 -0.5558  0.0696
 7078TIP3    H242726   6.386   5.225   4.991  0.2368  1.5264  0.0712
 7079TIP3   OH242727   5.428   1.710   4.041  0.9729 -0.3384  0.2282
 7079TIP3    H142728   5.490   1.682   3.974  1.6086  0.0776  0.6355
 7079TIP3    H242729   5.342   1.683   4.007  1.3845 -1.0550 -0.2674
 7080TIP3   OH242730   0.425   6.335  11.463  0.7599 -0.0941 -0.4491
 7080TIP3    H142731   0.452   6.262  11.408  0.1047 -0.0358 -0.8577
 7080TIP3    H242732   0.353   6.300  11.517  1.0020  0.0160 -0.0452
 7081TIP3   OH242733   5.266   1.654   5.606 -0.5437 -0.3737  0.3329
 7081TIP3    H142734   5.237   1.742   5.628 -1.4551 -1.0819  2.1580
 7081TIP3    H242735   5.330   1.632   5.673 -0.5442 -1.2041  0.0768
 7082TIP3   OH242736   3.115   0.891  10.726  0.2156 -0.0286  0.1616
 7082TIP3    H142737   3.034   0.839  10.720  0.4255 -0.3011 -0.3698
 7082TIP3    H242738   3.180   0.839  10.679  0.6354  0.3244  0.3474
 7083TIP3   OH242739   0.972   1.423   2.926  0.1518 -0.7535 -0.4372
 7083TIP3    H142740   1.003   1.502   2.882 -0.5210 -0.9693 -1.3186
 7083TIP3    H242741   0.920   1.456   3.000 -1.0634 -0.3356 -1.4522
 7084TIP3   OH242742   2.573   3.809  15.967  0.4803 -0.9744 -0.3635
 7084TIP3    H142743   2.506   3.875  15.950  1.7237 -0.1372 -2.5136
 7084TIP3    H242744   2.603   3.826  16.056 -0.6764  0.0039 -0.1433
 7085TIP3   OH242745   1.252   4.882  16.759 -0.0132 -0.3342  0.4946
 7085TIP3    H142746   1.204   4.856  16.838 -1.8193 -0.9170 -0.7188
 7085TIP3    H242747   1.328   4.824  16.757 -0.7974 -1.4242  0.9969
 7086TIP3   OH242748   3.582   1.390   0.028  0.6394 -0.5611  0.7534
 7086TIP3    H142749   3.606   1.481   0.012  0.5710 -0.5908  0.4705
 7086TIP3    H242750   3.557   1.387   0.121 -0.1696 -0.1081  0.5536
 7087TIP3   OH242751   4.257   4.116  14.381  0.1304  0.3448  0.4489
 7087TIP3    H142752   4.309   4.120  14.461  0.5471  2.0109  0.1213
 7087TIP3    H242753   4.166   4.113  14.412  0.2996  0.6015  0.9823
 7088TIP3   OH242754   1.862   6.679   0.790  0.0515  0.5211 -0.3711
 7088TIP3    H142755   1.797   6.616   0.821  0.9586 -0.6342 -0.7541
 7088TIP3    H242756   1.940   6.661   0.842  0.5680  0.7832 -1.0388
 7089TIP3   OH242757   1.754   4.617   2.855  0.1925  0.3837  0.9988
 7089TIP3    H142758   1.698   4.561   2.909 -1.8232  1.7145  0.4148
 7089TIP3    H242759   1.692   4.675   2.809  1.7647 -0.5362 -2.6240
 7090TIP3   OH242760   2.743   6.091  11.225 -0.1688 -0.3686  0.8273
 7090TIP3    H142761   2.712   6.056  11.309 -2.3969 -0.5408 -0.0233
 7090TIP3    H242762   2.673   6.071  11.163  1.7463 -0.9134 -1.2789
 7091TIP3   OH242763   6.498   6.558   1.749 -0.2090 -0.5913  0.2062
 7091TIP3    H142764   6.537   6.537   1.834  2.0708 -2.1069 -1.1121
 7091TIP3    H242765   6.434   6.489   1.734 -1.4779  0.3319  1.1415
 7092TIP3   OH242766   0.374   4.917  12.462  0.3277 -0.1362  0.0173
 7092TIP3    H142767   0.408   4.891  12.377  0.7440  1.5590 -0.3688
 7092TIP3    H242768   0.450   4.916  12.521  0.4666  0.7336 -0.1379
 7093TIP3   OH242769   2.706   6.255  17.264 -0.0917 -0.3959  0.0342
 7093TIP3    H142770   2.612   6.239  17.267 -0.1575  0.0586  0.7676
 7093TIP3    H242771   2.729   6.279  17.354  0.7478 -0.6209 -0.1072
 7094TIP3   OH242772   4.731   1.209   4.719  0.1192 -0.6330  0.4009
 7094TIP3    H142773   4.752   1.243   4.806 -0.4730  0.4476  0.1391
 7094TIP3    H242774   4.794   1.253   4.662 -2.4518  2.4763 -0.3688
 7095TIP3   OH242775   3.224   0.989  16.134  0.0129  0.0294 -0.2882
 7095TIP3    H142776   3.263   0.919  16.082 -1.1031 -0.1967 -0.8583
 7095TIP3    H242777   3.138   1.003  16.094  0.4505  2.1806 -0.6088
 7096TIP3   OH242778   2.367   6.765   3.906  0.2547 -0.1555 -0.8197
 7096TIP3    H142779   2.396   6.766   3.815 -0.4209 -0.8697 -1.0630
 7096TIP3    H242780   2.446   6.782   3.957  1.5240 -3.4449 -1.3805
 7097TIP3   OH242781   3.248   3.169   3.089  0.0452 -0.2411 -0.3901
 7097TIP3    H142782   3.298   3.109   3.144 -0.1095 -0.3146 -0.3287
 7097TIP3    H242783   3.163   3.126   3.077  0.0651 -0.2082 -0.6558
 7098TIP3   OH242784   5.377   1.078   2.969 -0.1070  0.2383  0.3743
 7098TIP3    H142785   5.441   1.149   2.976 -2.9016  2.8057  2.2749
 7098TIP3    H242786   5.389   1.026   3.048 -0.7135  1.0602  1.0156
 7099TIP3   OH242787   4.944   1.976   3.524  0.0406  0.3949 -0.4590
 7099TIP3    H142788   4.908   1.941   3.442  0.3628 -2.7115  0.5865
 7099TIP3    H242789   4.876   2.034   3.557 -1.4947 -0.7916 -1.4013
 7100TIP3   OH242790   3.061   1.006   0.217  0.2682  0.0045  0.3524
 7100TIP3    H142791   3.115   1.041   0.146 -1.2340  1.0510 -0.3356
 7100TIP3    H242792   2.981   1.059   0.214 -0.2095 -0.5504  2.2476
 7101TIP3   OH242793   2.109   3.261   3.219 -0.2298 -0.1067  0.5291
 7101TIP3    H142794   2.029   3.256   3.168 -0.5487  0.4516  0.9567
 7101TIP3    H242795   2.178   3.230   3.160 -0.4681  1.2269 -0.4982
 7102TIP3   OH242796   2.787   1.496   2.736 -0.3527 -0.2483 -0.2545
 7102TIP3    H142797   2.790   1.463   2.646  1.9544 -1.5681  0.2205
 7102TIP3    H242798   2.877   1.487   2.767 -1.0333  0.4750  2.1101
 7103TIP3   OH242799   5.432   4.677  16.402  0.1367 -0.1425 -0.2269
 7103TIP3    H142800   5.360   4.646  16.456 -1.5588 -0.5365 -2.5694
 7103TIP3    H242801   5.431   4.772  16.412 -1.3047 -0.0632 -0.8817
 7104TIP3   OH242802   2.719   5.584   2.391 -0.3846 -0.2493 -0.5251
 7104TIP3    H142803   2.805   5.611   2.359 -1.0189 -0.1590 -2.2648
 7104TIP3    H242804   2.726   5.490   2.404  0.8600  0.1357  2.3992
 7105TIP3   OH242805   3.188   6.789  16.831  0.4331  0.0866 -0.1160
 7105TIP3    H142806   3.245   6.712  16.827 -1.4401 -1.4121  0.4289
 7105TIP3    H242807   3.144   6.791  16.746 -0.4986 -0.2915  0.3342
 7106TIP3   OH242808   1.290   5.307  11.904  0.2463 -0.0046  0.1376
 7106TIP3    H142809   1.223   5.357  11.951  1.8028  0.7495  1.6580
 7106TIP3    H242810   1.301   5.355  11.821  0.4454  1.1754  0.8163
 7107TIP3   OH242811   6.396   2.797   1.769 -0.4425  0.2744 -0.0851
 7107TIP3    H142812   6.432   2.818   1.683  1.2696 -0.5071  0.3992
 7107TIP3    H242813   6.335   2.868   1.788 -0.2235  0.8858 -1.5780
 7108TIP3   OH242814   4.410   6.197   2.456 -0.0348  0.0037 -0.1982
 7108TIP3    H142815   4.432   6.225   2.367  2.2913 -0.0350  0.2900
 7108TIP3    H242816   4.364   6.114   2.445  2.2641 -1.2094 -1.3579
 7109TIP3   OH242817   6.567   3.422  13.846  0.1998  0.3851  0.0416
 7109TIP3    H142818   6.625   3.346  13.844  1.5663  1.3243  1.3511
 7109TIP3    H242819   6.597   3.477  13.773  0.0499  0.2482 -0.1235
 7110TIP3   OH242820   0.934   4.935   3.303 -0.0889  0.0390 -0.3456
 7110TIP3    H142821   0.992   4.982   3.363  0.4417 -1.0760  0.0366
 7110TIP3    H242822   0.850   4.930   3.349 -0.2682  0.9497 -0.5589
 7111TIP3   OH242823   0.039   6.051  12.438  0.0931 -0.2521  0.0469
 7111TIP3    H142824   0.005   6.031  12.525  0.2911 -1.4362 -0.1239
 7111TIP3    H242825  -0.034   6.032  12.379  0.3120 -0.5786 -0.1277
 7112TIP3   OH242826   2.976   4.120  16.414 -0.0630 -0.4653  0.4538
 7112TIP3    H142827   2.940   4.151  16.497 -0.3060 -0.6613  0.4206
 7112TIP3    H242828   2.904   4.132  16.351  0.3507  0.3656  0.1164
 7113TIP3   OH242829   3.210   4.323  16.665  0.2454 -0.1172 -0.0066
 7113TIP3    H142830   3.285   4.344  16.720  1.3738 -1.4237 -0.9879
 7113TIP3    H242831   3.215   4.229  16.652 -1.0537 -0.1014 -0.8444
 7114TIP3   OH242832   5.166   1.174   4.790  0.1168 -0.4051 -0.4526
 7114TIP3    H142833   5.183   1.093   4.742 -1.3916 -1.4142  0.6496
 7114TIP3    H242834   5.102   1.150   4.856  0.1008  1.5683  0.3065
 7115TIP3   OH242835   5.399   3.471  10.758 -0.2303  0.3438  0.1107
 7115TIP3    H142836   5.457   3.485  10.833  0.5535  0.3742 -0.4947
 7115TIP3    H242837   5.455   3.435  10.690 -1.4911 -2.8050  0.5325
 7116TIP3   OH242838   0.442   0.249   1.970 -0.2078 -0.0775  0.4293
 7116TIP3    H142839   0.454   0.339   1.940 -0.6093 -0.0295  0.3968
 7116TIP3    H242840   0.470   0.195   1.896  1.7607 -0.0240  1.0953
 7117TIP3   OH242841   3.209   0.813   5.366  0.4702  0.6917 -0.2375
 7117TIP3    H142842   3.297   0.844   5.386  0.6071  0.9321 -1.1898
 7117TIP3    H242843   3.163   0.891   5.335 -0.4867  0.8708  1.4791
 7118TIP3   OH242844   4.637   0.221  11.307  0.5019 -0.0916  0.4958
 7118TIP3    H142845   4.726   0.238  11.338  1.1672 -0.2351 -1.2222
 7118TIP3    H242846   4.588   0.301  11.328  0.9441 -0.1252  1.7056
 7119TIP3   OH242847   2.660   5.546  14.568  0.0887  0.5993 -0.5874
 7119TIP3    H142848   2.688   5.520  14.480 -0.8252  1.3273 -1.1054
 7119TIP3    H242849   2.650   5.641  14.563 -0.2783  0.6127  0.2261
 7120TIP3   OH242850   0.482   2.885  12.072 -0.3766  0.1990  0.4823
 7120TIP3    H142851   0.519   2.965  12.035  0.8569 -0.7221 -0.3454
 7120TIP3    H242852   0.557   2.839  12.110 -0.8512 -1.1053 -0.0937
 7121TIP3   OH242853   4.863   2.011  11.463 -0.3103  0.2124 -0.4733
 7121TIP3    H142854   4.809   2.083  11.496  0.3939  0.0629  1.1142
 7121TIP3    H242855   4.901   2.045  11.382 -1.0742  1.1037 -0.4801
 7122TIP3   OH242856   3.564   1.444   5.573 -0.5291 -0.2066 -0.4176
 7122TIP3    H142857   3.500   1.416   5.639  0.1622 -0.4791  0.1516
 7122TIP3    H242858   3.627   1.372   5.568  0.0679  0.3145 -0.5223
 7123TIP3   OH242859   4.603   2.597  14.696  0.5238 -0.1458 -0.2855
 7123TIP3    H142860   4.680   2.616  14.749  1.6938 -2.1400 -1.1409
 7123TIP3    H242861   4.531   2.596  14.759  1.1502  1.7273  0.5343
 7124TIP3   OH242862   3.518   5.542  12.166  0.6703 -0.0686  0.3630
 7124TIP3    H142863   3.536   5.635  12.180  0.2252 -0.0184  0.6196
 7124TIP3    H242864   3.449   5.521  12.229  2.3256 -1.1265  1.8963
 7125TIP3   OH242865   1.258   3.644  17.232  0.0026 -0.2899  0.0734
 7125TIP3    H142866   1.350   3.621  17.245  0.0762 -0.2298 -0.3242
 7125TIP3    H242867   1.223   3.574  17.176  0.6457  1.3242 -2.5519
 7126TIP3   OH242868   4.271   0.644  15.056 -0.2082 -0.5653  0.2290
 7126TIP3    H142869   4.348   0.679  15.011  0.9734 -0.0838  2.4533
 7126TIP3    H242870   4.197   0.680  15.008  0.8824 -1.7734 -2.5566
 7127TIP3   OH242871   4.830   5.914  16.488 -0.1433 -0.2979  0.4250
 7127TIP3    H142872   4.805   5.980  16.423  2.7893 -1.2042 -1.8387
 7127TIP3    H242873   4.803   5.831  16.450 -1.9826 -0.6648  2.3252
 7128TIP3   OH242874   6.356   2.701   1.259  0.2091  0.3400 -0.5333
 7128TIP3    H142875   6.309   2.620   1.278 -0.8530  0.6949 -1.5561
 7128TIP3    H242876   6.412   2.680   1.184 -0.7113  0.7622 -1.3582
 7129TIP3   OH242877   1.265   0.103  13.065  0.1976 -0.3177  0.3345
 7129TIP3    H142878   1.262   0.167  12.994 -2.1572 -0.5786  0.1222
 7129TIP3    H242879   1.300   0.151  13.140 -0.3767  0.8734 -0.1467
 7130TIP3   OH242880   4.253   1.939  15.770 -0.5095  0.5240  0.2930
 7130TIP3    H142881   4.248   1.847  15.743 -4.6531  0.1720  1.6039
 7130TIP3    H242882   4.305   1.937  15.850  0.0010 -0.5603 -0.0442
 7131TIP3   OH242883   1.314   5.457   6.756 -0.3238  0.2582  0.0176
 7131TIP3    H142884   1.385   5.394   6.761 -1.5058 -1.0603  1.2418
 7131TIP3    H242885   1.312   5.499   6.842 -1.2949 -0.0678  0.1742
 7132TIP3   OH242886   1.073   0.287  11.168  0.2285 -0.4700 -0.1390
 7132TIP3    H142887   1.009   0.333  11.222 -0.8674  0.6520 -2.2498
 7132TIP3    H242888   1.036   0.291  11.080  2.0451 -1.9973 -1.0375
 7133TIP3   OH242889   2.911   2.386   5.351 -0.2012  0.2397  0.5489
 7133TIP3    H142890   2.892   2.401   5.258 -2.5310  0.1302  0.9313
 7133TIP3    H242891   2.829   2.351   5.386  0.8871 -0.5178  2.4910
 7134TIP3   OH242892   2.404   2.070   1.175 -0.7891  0.1427  0.4579
 7134TIP3    H142893   2.374   2.093   1.263  1.6328  0.5867  1.2341
 7134TIP3    H242894   2.332   2.096   1.118 -3.1020 -1.5448  2.3682
 7135TIP3   OH242895   3.553   2.409  17.257 -0.7012 -0.1156 -0.9639
 7135TIP3    H142896   3.498   2.452  17.323 -0.2882  0.7828 -1.1859
 7135TIP3    H242897   3.492   2.383  17.189 -1.0995 -0.8149 -0.3533
 7136TIP3   OH242898   6.311   3.989  15.662 -0.1336  0.1644  0.4860
 7136TIP3    H142899   6.270   4.071  15.635  1.5119  1.1915  0.9827
 7136TIP3    H242900   6.322   3.998  15.757  1.2721 -0.0292  0.3669
 7137TIP3   OH242901   2.902   5.987   5.090  0.0439  0.3504 -0.4444
 7137TIP3    H142902   2.855   6.060   5.050 -0.5145 -0.6555 -1.6832
 7137TIP3    H242903   2.904   5.920   5.023  1.5584 -0.3747  0.2634
 7138TIP3   OH242904   0.813   1.279   5.564  0.3806  0.3852  1.0229
 7138TIP3    H142905   0.792   1.260   5.656 -1.2259  3.3166  1.3556
 7138TIP3    H242906   0.731   1.268   5.517  0.6995  0.9789  0.3033
 7139TIP3   OH242907   6.776   1.308  17.176  0.2467 -0.3955  0.4180
 7139TIP3    H142908   6.822   1.256  17.241 -0.0817  0.1288  1.0874
 7139TIP3    H242909   6.841   1.372  17.147  0.3523 -0.5406  0.3326
 7140TIP3   OH242910   2.701   1.311  14.123  0.9242  0.1877  0.1607
 7140TIP3    H142911   2.611   1.335  14.146  0.7567  0.5700 -0.8420
 7140TIP3    H242912   2.705   1.217  14.138  1.4994  0.6501  3.8698
 7141TIP3   OH242913   1.467   0.418   4.157 -0.5390 -0.4314 -0.0284
 7141TIP3    H142914   1.410   0.378   4.092 -0.9917  0.6442 -0.3133
 7141TIP3    H242915   1.479   0.350   4.224 -2.4129 -0.5775  0.2069
 7142TIP3   OH242916   1.654   0.169   4.575 -0.5681 -0.3893 -0.9583
 7142TIP3    H142917   1.634   0.242   4.517  1.1521  0.6717 -0.2707
 7142TIP3    H242918   1.731   0.197   4.625  0.5635 -2.8911 -1.1184
 7143TIP3   OH242919   0.084   6.273  13.786 -0.3612  0.1422 -0.1624
 7143TIP3    H142920   0.123   6.187  13.805 -2.3776 -0.9279 -0.5734
 7143TIP3    H242921   0.043   6.299  13.868  0.0877  0.6339 -0.0936
 7144TIP3   OH242922   3.066   3.377   2.553 -0.7002  0.2946 -0.3664
 7144TIP3    H142923   3.089   3.286   2.570 -1.1690  0.2363 -0.0116
 7144TIP3    H242924   2.972   3.381   2.570 -0.7266  0.7914 -0.6131
 7145TIP3   OH242925   5.096   4.629  12.275  0.3213 -0.7057 -0.0442
 7145TIP3    H142926   5.045   4.570  12.220 -0.2030  0.1175 -0.4584
 7145TIP3    H242927   5.033   4.664  12.338  1.3224 -3.3176  2.5942
 7146TIP3   OH242928   2.983   2.707   2.479  0.1624 -0.3762  0.5589
 7146TIP3    H142929   3.039   2.630   2.479  1.0336  0.1876 -1.4288
 7146TIP3    H242930   3.007   2.754   2.559  2.4127 -0.2848 -0.0954
 7147TIP3   OH242931   1.386   2.433  11.528 -0.0338 -0.0307 -0.0804
 7147TIP3    H142932   1.379   2.509  11.586 -0.5844  1.0592 -1.5231
 7147TIP3    H242933   1.303   2.432  11.480  0.3117 -1.0507 -0.6836
 7148TIP3   OH242934   3.021   1.537   1.470 -0.1455 -0.2260  0.4825
 7148TIP3    H142935   3.031   1.603   1.402 -0.8201  0.9354  1.4676
 7148TIP3    H242936   3.109   1.526   1.505  0.9410 -3.3090 -2.6866
 7149TIP3   OH242937   0.207   4.265  13.771  0.7993  0.3678  0.0153
 7149TIP3    H142938   0.162   4.346  13.796  0.5428  0.7071 -1.4816
 7149TIP3    H242939   0.265   4.291  13.700  1.7851 -0.4997  0.4815
 7150TIP3   OH242940   6.594   4.914   3.509  0.3404 -0.2442  0.1832
 7150TIP3    H142941   6.579   4.832   3.462 -0.2110  0.3986 -0.8018
 7150TIP3    H242942   6.553   4.901   3.594 -1.4922 -0.3286 -0.6597
 7151TIP3   OH242943   2.681   5.745  15.910  0.0035 -0.2005  0.0036
 7151TIP3    H142944   2.698   5.814  15.845  1.9283 -0.5355  0.0762
 7151TIP3    H242945   2.739   5.673  15.883  0.7251 -0.4082  1.9910
 7152TIP3   OH242946   2.663   4.137  15.212 -0.5279  0.3474 -0.4728
 7152TIP3    H142947   2.717   4.081  15.155 -0.7131 -0.6387  0.2945
 7152TIP3    H242948   2.573   4.123  15.180 -0.6916 -0.5920  0.3401
 7153TIP3   OH242949   2.215   5.838   5.286  0.8928 -0.8625 -0.1830
 7153TIP3    H142950   2.261   5.793   5.357  1.9578 -1.1219 -0.9978
 7153TIP3    H242951   2.216   5.930   5.311  1.9549 -0.8502 -0.2065
 7154TIP3   OH242952   2.316   3.719   2.007  0.0528  0.6485  0.6474
 7154TIP3    H142953   2.275   3.722   1.920 -1.2590  0.2413  1.2353
 7154TIP3    H242954   2.386   3.784   2.002  0.3339  0.2875 -0.8708
 7155TIP3   OH242955   4.788   5.710   2.507  0.0474 -0.1323  0.2555
 7155TIP3    H142956   4.876   5.674   2.518  1.3088  0.8574 -4.5778
 7155TIP3    H242957   4.733   5.633   2.489  0.5942 -0.4873  0.0806
 7156TIP3   OH242958   3.584   0.891   4.862  0.0145 -0.0072  0.3679
 7156TIP3    H142959   3.526   0.964   4.841 -1.1201 -1.1084 -0.4610
 7156TIP3    H242960   3.580   0.884   4.957 -0.9460  0.1577  0.3489
 7157TIP3   OH242961   6.011   2.395  15.010  0.0428  0.0176 -0.3403
 7157TIP3    H142962   5.928   2.402  15.058  0.7282 -0.2373  0.9143
 7157TIP3    H242963   5.985   2.372  14.921 -1.2083 -0.5906  0.1600
 7158TIP3   OH242964   2.154   0.646  10.477 -0.4700 -0.2493  0.4124
 7158TIP3    H142965   2.132   0.735  10.450 -0.1606 -0.7811 -1.7688
 7158TIP3    H242966   2.249   0.646  10.486 -0.6009  0.0684  2.2642
 7159TIP3   OH242967   2.834   5.894  14.131 -0.4177 -0.2848  0.0687
 7159TIP3    H142968   2.860   5.908  14.222  0.6169  0.2668 -0.3037
 7159TIP3    H242969   2.852   5.801  14.115  1.0902  0.0173 -0.0930
 7160TIP3   OH242970   3.326   2.309  17.177  0.1713 -0.6529  0.2927
 7160TIP3    H142971   3.261   2.377  17.157 -0.2743 -0.6590  1.6719
 7160TIP3    H242972   3.276   2.238  17.216  0.8375 -1.1905  0.1853
 7161TIP3   OH242973   6.556   0.767  15.992  0.0450 -0.3936 -0.2315
 7161TIP3    H142974   6.507   0.806  16.065 -0.6540 -0.7510 -0.5048
 7161TIP3    H242975   6.642   0.810  15.996  0.3619 -1.0674  1.3830
 7162TIP3   OH242976   0.156   5.750  16.299  0.2035 -0.7027 -0.0399
 7162TIP3    H142977   0.186   5.837  16.273  0.7474 -1.0444 -0.5784
 7162TIP3    H242978   0.098   5.766  16.375  1.8461 -0.0420  1.1297
 7163TIP3   OH242979   4.302   3.408   4.827  1.0642  0.4093  0.1266
 7163TIP3    H142980   4.299   3.337   4.762  1.8928  0.3143  0.1780
 7163TIP3    H242981   4.255   3.373   4.903  1.3954 -0.0586  0.1218
 7164TIP3   OH242982   0.266   4.698   0.609 -0.2845 -0.2217  0.0821
 7164TIP3    H142983   0.205   4.629   0.634 -2.5318  1.3618 -0.6600
 7164TIP3    H242984   0.325   4.656   0.546 -0.1459 -1.9692  1.2952
 7165TIP3   OH242985   3.103   0.270   0.098  0.0066 -0.1901  0.2049
 7165TIP3    H142986   3.034   0.323   0.058  0.2890  0.5700  0.7062
 7165TIP3    H242987   3.095   0.287   0.192  0.7012 -0.2998  0.2877
 7166TIP3   OH242988   3.252   4.552  15.324  0.3168 -0.3063 -1.0103
 7166TIP3    H142989   3.177   4.554  15.385 -0.3936 -2.4438 -1.7161
 7166TIP3    H242990   3.319   4.501  15.370  1.6117  2.0543 -0.1626
 7167TIP3   OH242991   3.892   3.362   2.237  0.1036 -0.1318  0.1251
 7167TIP3    H142992   3.860   3.366   2.147  2.1078 -0.9415 -0.6943
 7167TIP3    H242993   3.988   3.360   2.227  0.3905  0.5830  2.3181
 7168TIP3   OH242994   6.130   0.719  15.700  0.0593 -0.8068  0.0748
 7168TIP3    H142995   6.214   0.750  15.733 -0.4664 -0.4903  1.1610
 7168TIP3    H242996   6.146   0.700  15.607  1.3380 -0.8333  0.2853
 7169TIP3   OH242997   5.751   3.719   3.101  0.1678 -0.1352  0.1778
 7169TIP3    H142998   5.689   3.784   3.067 -0.5470  0.1130  1.8685
 7169TIP3    H242999   5.760   3.740   3.194 -1.3824 -3.4029  1.2370
 7170TIP3   OH243000   3.357   1.656   4.649  0.5557  0.0460  0.2262
 7170TIP3    H143001   3.404   1.581   4.687  0.1457  0.4544  1.5833
 7170TIP3    H243002   3.332   1.626   4.562  0.2976 -1.4616  0.7781
 7171TIP3   OH243003   5.642   6.545   1.307  0.2411 -0.2038 -0.2026
 7171TIP3    H143004   5.578   6.546   1.378 -1.4540 -0.2336 -1.6604
 7171TIP3    H243005   5.612   6.613   1.246  2.4446  0.7905 -0.2648
 7172TIP3   OH243006   1.234   0.266  16.072  0.0778  0.5980 -0.2903
 7172TIP3    H143007   1.143   0.294  16.071 -0.2501 -0.0299  2.5448
 7172TIP3    H243008   1.230   0.171  16.069  0.6792  0.5776 -0.6742
 7173TIP3   OH243009   4.947   0.260  11.238  0.0744  0.5583 -0.4916
 7173TIP3    H143010   4.956   0.294  11.149 -0.1883 -0.8032 -1.0605
 7173TIP3    H243011   4.953   0.338  11.294  1.7300  1.2773 -1.5950
 7174TIP3   OH243012   4.529   0.745  14.932 -0.0378 -0.4891 -0.3090
 7174TIP3    H143013   4.590   0.771  15.001 -0.2920 -1.3829  0.2746
 7174TIP3    H243014   4.585   0.713  14.861  0.2169  0.1201 -0.3808
 7175TIP3   OH243015   5.164   0.604   3.696 -0.2816  0.1849 -0.6580
 7175TIP3    H143016   5.193   0.524   3.652 -0.0071 -0.0356 -0.0880
 7175TIP3    H243017   5.228   0.617   3.766 -2.9249 -1.8704  2.4506
 7176TIP3   OH243018   4.944   3.524  12.906  0.2582 -0.8379 -0.4202
 7176TIP3    H143019   4.948   3.606  12.955  0.4344 -2.5093  2.6197
 7176TIP3    H243020   4.866   3.531  12.852 -0.6089  0.7494  0.9550
 7177TIP3   OH243021   2.768   1.514   5.770  0.4809  0.5890  0.1003
 7177TIP3    H143022   2.679   1.486   5.794  0.8963 -1.3389 -0.4400
 7177TIP3    H243023   2.754   1.592   5.716 -1.1367 -1.1055 -2.1781
 7178TIP3   OH243024   2.638   6.719   3.345  0.0725  0.3262  0.0953
 7178TIP3    H143025   2.721   6.700   3.389 -0.4432 -1.4847  0.3606
 7178TIP3    H243026   2.619   6.810   3.369  0.6488 -0.0677  2.2869
 7179TIP3   OH243027   0.526   6.468   4.356 -0.2406 -0.5262  0.3930
 7179TIP3    H143028   0.586   6.543   4.351 -1.1036  0.2344  0.9740
 7179TIP3    H243029   0.573   6.396   4.314  1.1065  0.0186  0.9199
 7180TIP3   OH243030   6.775   0.397   3.524  0.3619  0.0378  0.0527
 7180TIP3    H143031   6.779   0.403   3.620  2.7847 -1.5641  0.1494
 7180TIP3    H243032   6.707   0.459   3.499  1.6786  2.7931  2.6000
 7181TIP3   OH243033   6.257   1.459  15.918 -0.2818 -0.5932 -0.2156
 7181TIP3    H143034   6.292   1.499  15.839 -1.7260 -0.0666 -0.6116
 7181TIP3    H243035   6.328   1.403  15.950  1.0265  0.6774 -0.7932
 7182TIP3   OH243036   5.662   0.829   2.561  0.4629  0.0405 -0.2890
 7182TIP3    H143037   5.685   0.753   2.509 -0.7157  0.0378 -0.8445
 7182TIP3    H243038   5.586   0.867   2.515  1.8857  2.3848 -0.8709
 7183TIP3   OH243039   4.337   0.339  11.079  0.6432  0.3609  0.4011
 7183TIP3    H143040   4.267   0.324  11.144  0.6602 -2.0976 -0.0540
 7183TIP3    H243041   4.321   0.272  11.012  2.2573  1.0794 -0.7384
 7184TIP3   OH243042   4.842   0.673   3.877  0.3989  0.2317  0.0614
 7184TIP3    H143043   4.922   0.633   3.913  0.7715  0.2894 -0.6895
 7184TIP3    H243044   4.802   0.603   3.825 -0.4896 -0.0591  1.0941
 7185TIP3   OH243045   1.882   2.357  11.708  0.1839  0.0676 -0.1936
 7185TIP3    H143046   1.870   2.441  11.752 -0.0802  0.7032 -1.4198
 7185TIP3    H243047   1.795   2.336  11.673 -0.6096 -2.4115  2.8960
 7186TIP3   OH243048   2.668   4.939   6.055 -0.4675  0.1998 -0.2815
 7186TIP3    H143049   2.732   4.977   6.116 -2.4121  1.2710  1.2141
 7186TIP3    H243050   2.652   5.008   5.991 -0.3601  0.0351 -0.4889
 7187TIP3   OH243051   0.909   4.092   6.291  0.0523  0.1949  0.0155
 7187TIP3    H143052   0.899   4.185   6.268  1.4173  0.4156  0.2139
 7187TIP3    H243053   0.917   4.092   6.386  0.3905 -0.0844 -0.0114
 7188TIP3   OH243054   2.984   5.300   3.332  0.1661  0.1743 -0.7511
 7188TIP3    H143055   3.027   5.333   3.254  1.6547 -4.4554 -2.2143
 7188TIP3    H243056   3.037   5.226   3.360 -2.1661 -0.4538  2.7040
 7189TIP3   OH243057   4.779   3.559  14.324 -0.2506 -0.0260  0.1448
 7189TIP3    H143058   4.873   3.571  14.333 -0.1742 -0.2081 -0.3569
 7189TIP3    H243059   4.740   3.621  14.385  0.1643  1.1495 -0.7442
 7190TIP3   OH243060   5.114   0.261  16.152 -0.2359 -0.2210  0.3119
 7190TIP3    H143061   5.100   0.293  16.241 -0.0267  0.7338  0.0168
 7190TIP3    H243062   5.206   0.237  16.150 -0.1980 -0.0767  0.3045
 7191TIP3   OH243063   5.060   4.364   5.033 -0.6196 -0.4190 -0.3813
 7191TIP3    H143064   4.994   4.401   4.974  2.1985  0.0962 -3.5010
 7191TIP3    H243065   5.067   4.272   5.008 -1.8680 -1.1782  1.7644
 7192TIP3   OH243066   1.274   0.715  15.351 -0.2227  0.2587  0.0485
 7192TIP3    H143067   1.256   0.740  15.260 -0.2877  0.3085  0.0749
 7192TIP3    H243068   1.210   0.647  15.370 -0.0764  0.1053 -0.0073
 7193TIP3   OH243069   5.674   5.406  16.175 -0.1906 -0.0011 -0.1160
 7193TIP3    H143070   5.590   5.449  16.160  0.2446  1.1538  0.6109
 7193TIP3    H243071   5.737   5.478  16.186  0.8561 -0.8348 -0.4199
 7194TIP3   OH243072   1.949   6.238  14.502  0.0667  0.5011 -0.5273
 7194TIP3    H143073   1.939   6.287  14.583 -2.0913 -1.6359  0.6053
 7194TIP3    H243074   2.029   6.187  14.513 -1.4516 -1.6696  1.4647
 7195TIP3   OH243075   4.466   2.656   2.763  0.3383 -0.4426 -0.1855
 7195TIP3    H143076   4.502   2.721   2.823 -1.1422 -1.8173  2.3286
 7195TIP3    H243077   4.496   2.685   2.676  3.2869  1.1488  1.2158
 7196TIP3   OH243078   1.727   0.242   3.138 -0.7058  0.0928 -0.2008
 7196TIP3    H143079   1.774   0.213   3.216 -4.0740  0.8173  2.3465
 7196TIP3    H243080   1.788   0.300   3.093  1.5254 -0.6776  1.6552
 7197TIP3   OH243081   4.591   0.393   4.749  0.0830  0.4092  0.1054
 7197TIP3    H143082   4.588   0.412   4.842 -1.5192  2.0531 -0.2216
 7197TIP3    H243083   4.648   0.461   4.712 -0.2030  0.4663 -0.2406
 7198TIP3   OH243084   3.799   2.080   5.615  0.0510 -0.4584  0.1611
 7198TIP3    H143085   3.765   2.017   5.552  2.9606 -2.7106  0.6129
 7198TIP3    H243086   3.803   2.162   5.567 -0.7511 -1.3723 -1.5744
 7199TIP3   OH243087   2.423   3.567  15.039  0.0855 -0.3583 -0.1028
 7199TIP3    H143088   2.403   3.659  15.023 -0.7641 -0.5021  0.0738
 7199TIP3    H243089   2.501   3.549  14.988  0.1625  0.4242 -0.2559
 7200TIP3   OH243090   4.530   3.850  12.785 -0.3338  0.6965 -0.8273
 7200TIP3    H143091   4.481   3.858  12.867 -0.7222 -2.3037 -0.6301
 7200TIP3    H243092   4.622   3.843  12.812 -0.5597 -1.6183 -0.4109
 7201TIP3   OH243093   0.889   5.299  14.836  0.4844  0.1054 -0.4892
 7201TIP3    H143094   0.817   5.235  14.834  1.1758 -0.6806 -1.6752
 7201TIP3    H243095   0.857   5.369  14.892 -0.9028 -0.5862 -0.3647
 7202TIP3   OH243096   4.753   3.311  14.209 -0.2586 -0.2163  0.3023
 7202TIP3    H143097   4.706   3.315  14.126 -3.4337  2.3559  1.9847
 7202TIP3    H243098   4.773   3.402  14.231  1.9522 -0.9404  1.6736
 7203TIP3   OH243099   5.295   1.041  10.590  0.3179 -0.3582  0.3093
 7203TIP3    H143100   5.261   1.081  10.510  2.6933 -2.8227 -2.1728
 7203TIP3    H243101   5.341   1.112  10.635  1.2557  0.5906 -1.9814
 7204TIP3   OH243102   2.838   4.262  13.690 -0.2729 -0.3357  0.1877
 7204TIP3    H143103   2.885   4.341  13.718  1.7564 -0.9551 -1.2166
 7204TIP3    H243104   2.783   4.291  13.617 -1.3450  0.1871  1.1646
 7205TIP3   OH243105   3.536   2.771  16.539  0.3818  0.6498  0.2559
 7205TIP3    H143106   3.497   2.787  16.626 -0.8332  1.4632 -0.4005
 7205TIP3    H243107   3.589   2.849  16.522 -0.0948  0.9067 -0.0895
 7206TIP3   OH243108   0.695   4.339  14.022  0.1287  0.1744  0.4298
 7206TIP3    H143109   0.758   4.393  14.070  1.9890 -2.3170  1.0212
 7206TIP3    H243110   0.748   4.290  13.959 -1.6342 -0.1048 -0.9264
 7207TIP3   OH243111   4.718   2.080   4.781  0.1016  0.5207 -0.0944
 7207TIP3    H143112   4.731   2.025   4.704  1.9792  1.7006 -0.6922
 7207TIP3    H243113   4.718   2.019   4.854  2.0175 -0.3401 -0.7373
 7208TIP3   OH243114   1.666   5.256   0.939  0.2840  0.4387 -0.1578
 7208TIP3    H143115   1.598   5.318   0.965 -0.4894  0.3821 -1.9545
 7208TIP3    H243116   1.624   5.170   0.945  1.1153  0.0873  1.5357
 7209TIP3   OH243117   6.162   5.745  11.705 -0.4215 -0.4335  0.2710
 7209TIP3    H143118   6.083   5.743  11.650 -0.0875 -0.7716 -0.2138
 7209TIP3    H243119   6.191   5.836  11.703 -1.8884  0.1336  2.0721
 7210TIP3   OH243120   6.722   3.994   0.137 -0.3877 -0.3599 -0.1436
 7210TIP3    H143121   6.757   3.937   0.068  0.8455 -0.5644  0.6257
 7210TIP3    H243122   6.628   3.995   0.121 -0.2525 -1.3199 -1.1442
 7211TIP3   OH243123   2.845   2.694   2.050 -0.0922  0.3531  0.2920
 7211TIP3    H143124   2.825   2.640   1.974  1.1332 -1.7317  1.3854
 7211TIP3    H243125   2.792   2.658   2.121 -0.3249  1.5098  0.7366
 7212TIP3   OH243126   4.199   0.667   6.514 -0.0939 -0.1884 -0.6560
 7212TIP3    H143127   4.208   0.631   6.426  1.2992 -1.4700 -0.0236
 7212TIP3    H243128   4.286   0.697   6.537 -0.4585  0.1934  0.2624
 7213TIP3   OH243129   4.268   0.997  16.157  0.2902 -0.6061  0.5420
 7213TIP3    H143130   4.285   0.909  16.125 -0.5920 -0.3878 -0.5756
 7213TIP3    H243131   4.185   0.991  16.204 -0.0196 -0.2857  0.0489
 7214TIP3   OH243132   6.726   3.671  12.152  0.1782  0.0492 -0.0615
 7214TIP3    H143133   6.700   3.608  12.219 -1.0559  1.6704  1.0592
 7214TIP3    H243134   6.777   3.736  12.199  2.0535 -0.4304 -1.3415
 7215TIP3   OH243135   0.055   5.133   3.003 -0.7894 -0.4552  0.2046
 7215TIP3    H143136  -0.001   5.187   3.059 -1.8765 -0.4540 -0.8419
 7215TIP3    H243137   0.071   5.054   3.055 -1.2856 -0.2058  0.7536
 7216TIP3   OH243138   6.758   4.831   4.844 -0.5531  0.4118 -0.2991
 7216TIP3    H143139   6.704   4.883   4.903 -0.1917  1.0246 -0.5084
 7216TIP3    H243140   6.832   4.887   4.822  0.9211 -0.8764  1.0702
 7217TIP3   OH243141   6.697   2.420  10.721  0.3920 -0.3355 -0.4659
 7217TIP3    H143142   6.696   2.482  10.795 -0.3408  0.2718 -0.9633
 7217TIP3    H243143   6.716   2.475  10.645  1.4614 -1.0093 -0.6974
 7218TIP3   OH243144   0.878   6.455   0.522 -0.2988 -0.0720 -0.0469
 7218TIP3    H143145   0.932   6.381   0.549  1.4921  1.2711  0.2550
 7218TIP3    H243146   0.804   6.454   0.582  0.3778 -0.8369  0.7995
 7219TIP3   OH243147   3.959   0.755  12.687 -0.3169  0.4457 -0.2258
 7219TIP3    H143148   3.948   0.849  12.679  0.1188  0.3645 -2.0433
 7219TIP3    H243149   3.974   0.741  12.781 -0.6453  2.1305  0.1117
 7220TIP3   OH243150   3.201   2.493   5.214 -0.0620 -0.2622 -0.0637
 7220TIP3    H143151   3.171   2.442   5.139  2.2970  0.8221 -1.8840
 7220TIP3    H243152   3.296   2.479   5.216  0.1588  1.1412  1.6382
 7221TIP3   OH243153   4.644   0.079  16.980  0.4737  0.0024  0.2295
 7221TIP3    H143154   4.631   0.174  16.982 -1.6096 -0.2465  0.6981
 7221TIP3    H243155   4.654   0.055  17.072 -0.9156 -0.4298  0.2883
 7222TIP3   OH243156   2.369   5.102  13.227 -0.0588  0.1407 -0.5123
 7222TIP3    H143157   2.399   5.016  13.257  0.6329  0.1807 -1.0651
 7222TIP3    H243158   2.377   5.158  13.305  1.9058  0.2898 -0.7545
 7223TIP3   OH243159   5.782   6.476  14.348  0.0715  0.2688  0.5419
 7223TIP3    H143160   5.801   6.415  14.420  1.0539  0.4847  0.4854
 7223TIP3    H243161   5.743   6.552  14.391 -0.3921 -0.0549  0.7076
 7224TIP3   OH243162   5.323   0.672   2.443  0.5452 -0.9157 -0.5113
 7224TIP3    H143163   5.279   0.692   2.360 -0.6058 -0.6218  0.1474
 7224TIP3    H243164   5.391   0.739   2.451  0.6227 -0.9069 -1.1759
 7225TIP3   OH243165   3.245   0.842   0.847  0.4047  0.0012  0.0394
 7225TIP3    H143166   3.257   0.753   0.880  0.0318 -0.1336 -0.1880
 7225TIP3    H243167   3.333   0.871   0.823  0.2601 -1.1530 -2.0919
 7226TIP3   OH243168   5.543   0.223  16.575 -0.6212  0.1228  0.7322
 7226TIP3    H143169   5.616   0.214  16.637 -0.1920 -1.6762  0.0178
 7226TIP3    H243170   5.579   0.196  16.491 -2.0211 -0.5315  0.3057
 7227TIP3   OH243171   3.596   3.635   6.480  0.2979  0.1013  0.3056
 7227TIP3    H143172   3.659   3.585   6.427 -0.5685  0.0039 -0.6586
 7227TIP3    H243173   3.519   3.578   6.485  0.9462 -0.6756  3.1831
 7228TIP3   OH243174   0.976   3.066  13.314 -0.1763  0.0046 -0.3445
 7228TIP3    H143175   0.997   3.158  13.301 -2.4045  0.7055  0.6698
 7228TIP3    H243176   0.956   3.058  13.407 -0.6786 -1.3793 -0.5403
 7229TIP3   OH243177   3.383   0.569  15.379  0.1304 -0.3584 -0.5329
 7229TIP3    H143178   3.315   0.635  15.393  1.0610  0.3791  0.8437
 7229TIP3    H243179   3.337   0.492  15.347 -1.4618 -0.0847  0.9487
 7230TIP3   OH243180   5.127   5.539  10.436 -0.1792  0.2039  0.2740
 7230TIP3    H143181   5.183   5.613  10.461 -2.6298  1.4136  2.7654
 7230TIP3    H243182   5.072   5.524  10.513 -2.1702 -1.9364 -1.4238
 7231TIP3   OH243183   2.292   0.371   4.491 -0.2330  0.0202  0.1017
 7231TIP3    H143184   2.336   0.427   4.555 -1.8353 -0.3253  1.5692
 7231TIP3    H243185   2.218   0.422   4.460  1.7794  1.1481 -3.3994
 7232TIP3   OH243186   1.841   3.873  13.406  0.2237  0.0923 -0.1242
 7232TIP3    H143187   1.888   3.791  13.395 -1.4543 -0.8321 -0.8654
 7232TIP3    H243188   1.760   3.849  13.451  0.0470  1.4623  0.3389
 7233TIP3   OH243189   4.008   6.548   0.842  0.0058 -0.2001  0.0082
 7233TIP3    H143190   4.081   6.606   0.820 -1.7416  1.3610 -2.0157
 7233TIP3    H243191   4.005   6.484   0.771 -0.8147  0.0075 -0.1605
 7234TIP3   OH243192   4.400   6.643  14.482  0.2038  0.1224  0.3743
 7234TIP3    H143193   4.326   6.691  14.443  0.0828  0.2781  0.7841
 7234TIP3    H243194   4.394   6.663  14.575 -0.5501 -1.6381  0.7475
 7235TIP3   OH243195   2.399   5.919   4.489 -0.3793 -0.0084 -0.0696
 7235TIP3    H143196   2.358   5.956   4.410  0.6051 -0.5401 -0.8623
 7235TIP3    H243197   2.493   5.929   4.473 -0.1376 -1.2399  0.4782
 7236TIP3   OH243198   3.838   1.278  11.412  0.0504 -0.3694 -0.2034
 7236TIP3    H143199   3.770   1.339  11.384  1.8214  1.8964  0.0829
 7236TIP3    H243200   3.900   1.277  11.339  2.6764  2.4333  1.7411
 7237TIP3   OH243201   0.610   1.755   2.881  0.5056  0.3470  0.1122
 7237TIP3    H143202   0.639   1.791   2.965  1.3807  1.5358 -0.6567
 7237TIP3    H243203   0.684   1.770   2.822 -0.4381  0.3919 -1.0988
 7238TIP3   OH243204   4.332   3.421  10.605 -0.3129  0.0942 -0.1158
 7238TIP3    H143205   4.281   3.467  10.539  0.6869  0.8322 -0.3957
 7238TIP3    H243206   4.278   3.423  10.684 -0.0832  2.2789  0.0498
 7239TIP3   OH243207   2.136   2.374  15.848 -0.5843 -0.3809 -0.7574
 7239TIP3    H143208   2.155   2.288  15.811 -1.4095 -1.1202  0.4640
 7239TIP3    H243209   2.041   2.383  15.841 -0.4528  0.6611 -1.3327
 7240TIP3   OH243210   1.691   3.407   4.053 -0.2729 -0.0455 -0.0230
 7240TIP3    H143211   1.786   3.412   4.046 -0.3045  0.8045  0.0786
 7240TIP3    H243212   1.675   3.357   4.132  0.0830 -1.0996 -0.5957
 7241TIP3   OH243213   0.190   3.606  17.158 -0.5739  0.3079  0.3308
 7241TIP3    H143214   0.134   3.649  17.094 -0.5843  2.1559  1.5196
 7241TIP3    H243215   0.229   3.533  17.110 -0.5446  1.6286 -1.7884
 7242TIP3   OH243216   3.355   0.463  13.628 -0.7097 -0.5843  0.1884
 7242TIP3    H143217   3.287   0.529  13.619  0.5681  0.8856  0.7965
 7242TIP3    H243218   3.314   0.393  13.680 -1.1281  1.2878  2.5640
 7243TIP3   OH243219   2.985   5.203   5.475 -0.1974 -0.4457 -0.2686
 7243TIP3    H143220   2.952   5.278   5.524  1.2447 -0.5420  0.9144
 7243TIP3    H243221   3.035   5.241   5.403  3.3727 -0.0616  2.1834
 7244TIP3   OH243222   1.579   5.824  13.151 -0.0635 -0.1576  0.7817
 7244TIP3    H143223   1.641   5.868  13.209  0.1447 -0.7066  0.9796
 7244TIP3    H243224   1.622   5.823  13.066  1.5486 -3.1241  1.4902
 7245TIP3   OH243225   6.460   0.579   0.347 -0.3311  0.1869 -0.1681
 7245TIP3    H143226   6.547   0.618   0.332  0.5230 -1.7633 -0.5851
 7245TIP3    H243227   6.468   0.534   0.431 -0.6129 -0.8371 -0.6788
 7246TIP3   OH243228   4.054   0.270  16.452 -0.0384  0.8716  0.0807
 7246TIP3    H143229   3.970   0.316  16.451 -0.9508 -0.7117 -0.4749
 7246TIP3    H243230   4.075   0.262  16.545  0.7742  3.3894  0.1909
 7247TIP3   OH243231   4.682   6.075  16.288  0.4908  0.4290 -0.2295
 7247TIP3    H143232   4.591   6.050  16.271  1.0763 -1.8866 -0.4146
 7247TIP3    H243233   4.682   6.170  16.287 -1.9166  0.4878 -0.2770
 7248TIP3   OH243234   0.793   0.884   4.488  0.7099  0.2821  0.1024
 7248TIP3    H143235   0.825   0.800   4.519  0.0364 -0.3203 -0.7922
 7248TIP3    H243236   0.698   0.880   4.501  0.6986  0.9994  0.2804
 7249TIP3   OH243237   5.125   4.637   2.360  0.1035  0.1245  0.5687
 7249TIP3    H143238   5.041   4.596   2.339  0.6454 -0.3008 -0.8442
 7249TIP3    H243239   5.114   4.729   2.339 -0.6583  0.5096  2.4093
 7250TIP3   OH243240   4.549   3.076  13.901  0.1331 -0.0048 -0.4754
 7250TIP3    H143241   4.572   3.007  13.964 -0.9209 -0.5473 -0.6518
 7250TIP3    H243242   4.496   3.030  13.836  1.9474  0.3407 -2.2836
 7251TIP3   OH243243   6.751   1.892   2.247 -0.3761  0.1605  0.3741
 7251TIP3    H143244   6.810   1.860   2.179 -1.3374  0.1165 -0.4726
 7251TIP3    H243245   6.791   1.973   2.278  1.5123 -1.2253  1.7634
 7252TIP3   OH243246   3.055   4.153  12.296  0.1200 -0.3518  1.0308
 7252TIP3    H143247   3.097   4.155  12.382 -1.1891 -0.0103  1.6866
 7252TIP3    H243248   3.088   4.073  12.255 -0.0519 -1.0797  2.2808
 7253TIP3   OH243249   2.365   0.938   1.848  0.1373 -0.4232 -0.1490
 7253TIP3    H143250   2.286   0.920   1.797  0.7790 -0.9714 -0.9741
 7253TIP3    H243251   2.349   0.896   1.932 -0.7107  0.0319 -0.0651
 7254TIP3   OH243252   1.889   3.606   1.263  0.4330  0.4483 -0.2481
 7254TIP3    H143253   1.852   3.645   1.342  0.6982  0.9880 -0.3820
 7254TIP3    H243254   1.957   3.668   1.236  0.4914  0.1584 -0.7755
 7255TIP3   OH243255   3.532   3.232  11.162  0.0419  0.6304  0.3621
 7255TIP3    H143256   3.447   3.235  11.207 -0.1540 -2.8742  0.5365
 7255TIP3    H243257   3.524   3.295  11.091 -2.7825  0.3786  0.3395
 7256TIP3   OH243258   3.088   1.613   3.087 -0.1282 -0.6652 -0.5728
 7256TIP3    H143259   3.173   1.574   3.068  0.7227 -0.6074  2.5951
 7256TIP3    H243260   3.030   1.538   3.103  0.2145 -0.7106  0.5321
 7257TIP3   OH243261   4.120   6.131   0.721 -0.5250  0.3951  0.2271
 7257TIP3    H143262   4.054   6.166   0.661 -0.3042 -0.5860 -0.6060
 7257TIP3    H243263   4.144   6.046   0.684  0.9255  0.5620  0.7310
 7258TIP3   OH243264   6.450   3.840  15.369  0.5082  0.5804  0.2858
 7258TIP3    H143265   6.461   3.866  15.461  1.1044  0.9450  0.1162
 7258TIP3    H243266   6.533   3.800  15.345 -1.1113 -4.0635  1.2960
 7259TIP3   OH243267   0.350   4.570   6.366 -0.3839  0.1318  0.5916
 7259TIP3    H143268   0.353   4.653   6.318 -1.5054  0.0497  0.3431
 7259TIP3    H243269   0.406   4.583   6.442 -0.0886  0.9161  0.2443
 7260TIP3   OH243270   3.037   6.418  14.377  0.4051 -0.6031 -0.2797
 7260TIP3    H143271   3.094   6.493  14.359  0.5184 -0.2634  1.3994
 7260TIP3    H243272   2.963   6.455  14.425  0.5931 -1.5836  0.8073
 7261TIP3   OH243273   0.755   3.963  13.159  0.0707  0.1169 -1.1265
 7261TIP3    H143274   0.666   3.975  13.127  0.1112 -0.3816 -1.4306
 7261TIP3    H243275   0.770   3.869  13.156 -0.2490 -0.0784  1.2536
 7262TIP3   OH243276   6.280   6.591  16.572  0.3980  0.6759 -0.0762
 7262TIP3    H143277   6.222   6.593  16.648  0.1425  0.3378 -0.2588
 7262TIP3    H243278   6.356   6.643  16.598  0.7702 -0.2785  0.7779
 7263TIP3   OH243279   6.012   0.857   0.094  0.6168 -0.2916 -0.1690
 7263TIP3    H143280   6.103   0.883   0.076  0.2033  2.5776  1.2634
 7263TIP3    H243281   5.974   0.934   0.137 -2.7379 -1.1549 -1.3733
 7264TIP3   OH243282   1.128   6.269  12.847  0.2642 -0.3833 -0.4278
 7264TIP3    H143283   1.133   6.271  12.942 -0.1155 -0.9643 -0.3895
 7264TIP3    H243284   1.208   6.225  12.819  0.2254 -0.5002 -0.3566
 7265TIP3   OH243285   4.520   1.506  12.870 -0.3157 -0.9326  0.0680
 7265TIP3    H143286   4.491   1.546  12.788 -1.5023  0.8944  1.3060
 7265TIP3    H243287   4.615   1.517  12.870 -0.4607  0.5845 -0.3501
 7266TIP3   OH243288   6.197   5.125   3.772 -0.1891 -0.1595 -0.4387
 7266TIP3    H143289   6.136   5.199   3.774  0.2051  0.1605 -0.1393
 7266TIP3    H243290   6.282   5.164   3.752  0.1837 -0.4062  0.5717
 7267TIP3   OH243291   5.269   6.643   1.994  0.5754  0.8403  0.0438
 7267TIP3    H143292   5.262   6.587   2.071  1.6343  1.4280  0.5833
 7267TIP3    H243293   5.200   6.611   1.935  1.4096 -1.3202  0.1461
 7268TIP3   OH243294   4.107   2.431   1.845  0.0198  0.5786  0.0459
 7268TIP3    H143295   4.142   2.406   1.931  0.7239  0.9222 -0.1331
 7268TIP3    H243296   4.024   2.384   1.838  0.0963  0.3232  0.7947
 7269TIP3   OH243297   3.296   1.877  16.632 -0.1619  0.3876  1.0947
 7269TIP3    H143298   3.254   1.903  16.714 -1.0744 -0.8172  1.0374
 7269TIP3    H243299   3.320   1.786  16.646 -1.5583 -0.2629 -0.4331
 7270TIP3   OH243300   1.969   2.684   3.145  0.7201 -0.1883  0.4603
 7270TIP3    H143301   1.979   2.771   3.185 -1.9349 -0.0135  0.8970
 7270TIP3    H243302   1.962   2.702   3.051 -1.7713  0.3507  0.6887
 7271TIP3   OH243303   3.570   2.442   2.292 -0.0021  0.4283  0.1213
 7271TIP3    H143304   3.654   2.450   2.337  1.1546  1.7399 -2.0519
 7271TIP3    H243305   3.575   2.508   2.222 -1.7632 -1.2351 -1.6975
 7272TIP3   OH243306   3.775   5.941  15.776 -0.0809 -0.2836 -0.4115
 7272TIP3    H143307   3.786   5.848  15.798  2.0220 -0.2186 -0.9669
 7272TIP3    H243308   3.850   5.984  15.817 -0.1602  0.9337 -1.4983
 7273TIP3   OH243309   0.934   2.831   3.677 -0.6834 -0.3516  0.4874
 7273TIP3    H143310   0.892   2.872   3.601  2.6182  1.2059 -0.6993
 7273TIP3    H243311   0.867   2.832   3.744 -2.3200  2.7749 -0.9601
 7274TIP3   OH243312   1.377   2.046  14.407 -0.3737 -0.3169  0.6660
 7274TIP3    H143313   1.300   2.049  14.464  0.5992  0.7442  2.0065
 7274TIP3    H243314   1.343   2.062  14.319 -1.8037 -0.9860  1.0698
 7275TIP3   OH243315   3.691   1.333  16.715 -0.3213  0.2472 -0.6614
 7275TIP3    H143316   3.732   1.335  16.629 -0.0112  0.5012 -0.5086
 7275TIP3    H243317   3.759   1.363  16.775 -0.6280  0.3573 -0.3647
 7276TIP3   OH243318   4.633   2.572  13.101  0.0757  0.1867  0.3388
 7276TIP3    H143319   4.642   2.559  13.006 -0.7584 -0.0145  0.2802
 7276TIP3    H243320   4.611   2.485  13.135 -1.5200  0.6097  0.4626
 7277TIP3   OH243321   2.086   0.139  17.036 -0.3544 -0.2244 -0.1898
 7277TIP3    H143322   1.994   0.117  17.049  0.2869 -2.0057  2.0034
 7277TIP3    H243323   2.086   0.202  16.964 -3.3782  0.7457  0.5057
 7278TIP3   OH243324   4.159   5.217  16.860 -0.0890 -0.3791  0.3294
 7278TIP3    H143325   4.167   5.129  16.898 -1.8640 -0.4913  0.5427
 7278TIP3    H243326   4.065   5.233  16.857  0.1141  0.7682 -1.4553
 7279TIP3   OH243327   1.724   1.097   0.721  0.3555  0.0383 -0.0088
 7279TIP3    H143328   1.694   1.170   0.776 -0.4735 -0.5766  0.3762
 7279TIP3    H243329   1.704   1.125   0.632 -0.7579 -0.0588  0.1930
 7280TIP3   OH243330   0.779   0.143  12.958 -0.1236  0.0052  0.0884
 7280TIP3    H143331   0.795   0.069  13.017 -1.0828  0.7610  1.3371
 7280TIP3    H243332   0.851   0.139  12.894 -0.7855 -2.6864 -0.6050
 7281TIP3   OH243333   1.995   0.621  16.570  0.1393 -0.2268 -0.1483
 7281TIP3    H143334   1.950   0.584  16.493 -1.4344  1.1023  0.0786
 7281TIP3    H243335   2.086   0.630  16.542 -0.2954 -0.2522 -1.6867
 7282TIP3   OH243336   4.841   1.234  15.414  0.7205  0.8565  0.6646
 7282TIP3    H143337   4.923   1.261  15.371 -0.7235  0.2660 -2.7987
 7282TIP3    H243338   4.814   1.155  15.366 -1.4306  0.4816  2.3426
 7283TIP3   OH243339   5.681   5.247   4.365 -0.4549 -0.2618  0.3919
 7283TIP3    H143340   5.693   5.272   4.273  1.2956  1.7684  1.0960
 7283TIP3    H243341   5.710   5.323   4.415  1.0636 -2.2030  2.6887
 7284TIP3   OH243342   2.626   6.462  11.981  0.0166  0.0157  0.4845
 7284TIP3    H143343   2.647   6.515  11.905  0.2736  0.6544  0.9935
 7284TIP3    H243344   2.645   6.372  11.954 -2.3553 -0.1008 -1.0787
 7285TIP3   OH243345   1.000   1.509  14.354 -0.0822 -0.6750 -0.4026
 7285TIP3    H143346   1.070   1.455  14.391  0.7550 -0.3869 -1.4987
 7285TIP3    H243347   0.959   1.551  14.430  0.0020 -1.9434  0.3660
 7286TIP3   OH243348   6.319   1.375  11.447  0.1980 -0.0475 -0.4978
 7286TIP3    H143349   6.246   1.375  11.385 -2.1581  2.2718  1.9761
 7286TIP3    H243350   6.387   1.427  11.404 -1.2473  1.2310 -1.3493
 7287TIP3   OH243351   3.604   4.882   4.028 -0.2636 -0.5044 -0.0253
 7287TIP3    H143352   3.664   4.821   3.986 -1.5484 -3.0337  1.6053
 7287TIP3    H243353   3.656   4.923   4.097  0.2944 -0.6393 -0.3583
 7288TIP3   OH243354   1.295   4.675   0.541 -0.2539 -0.4158  0.2557
 7288TIP3    H143355   1.327   4.716   0.461  0.9223 -2.8423 -0.6078
 7288TIP3    H243356   1.216   4.628   0.515  0.7024 -2.0857  0.1854
 7289TIP3   OH243357   3.192   1.157  11.469  0.1778  0.1380 -0.0198
 7289TIP3    H143358   3.141   1.171  11.549  2.9458 -0.1068  1.8903
 7289TIP3    H243359   3.229   1.242  11.449  0.5436 -0.0846 -0.2979
 7290TIP3   OH243360   3.770   2.533  15.241 -0.3510  0.0926 -0.0893
 7290TIP3    H143361   3.822   2.456  15.218 -1.4903 -0.1148 -2.2698
 7290TIP3    H243362   3.735   2.514  15.328  0.6204 -1.1361  0.0633
 7291TIP3   OH243363   1.455   5.172   0.606  0.1970  0.5585 -0.4504
 7291TIP3    H143364   1.469   5.134   0.520 -1.0349 -0.5167 -0.2084
 7291TIP3    H243365   1.542   5.203   0.633  0.8821 -0.4201 -1.4391
 7292TIP3   OH243366   2.525   4.101  16.889  0.3607  0.0972 -0.4111
 7292TIP3    H143367   2.475   4.103  16.807 -1.9804  0.4992  0.9402
 7292TIP3    H243368   2.544   4.193  16.907  2.7390 -0.1044 -1.4859
 7293TIP3   OH243369   0.055   2.893  12.170  1.1654 -0.0564  0.0044
 7293TIP3    H143370   0.080   2.976  12.130  0.9786  1.1995  2.3000
 7293TIP3    H243371   0.077   2.904  12.263  0.9579 -2.5199  0.4126
 7294TIP3   OH243372   4.480   2.085   0.565 -0.0881  0.3068 -0.1113
 7294TIP3    H143373   4.546   2.018   0.550  1.6561  2.0085 -0.4810
 7294TIP3    H243374   4.478   2.097   0.660 -1.2589 -1.0229  0.0625
 7295TIP3   OH243375   4.850   6.505   3.431 -0.5113  0.0495  0.1338
 7295TIP3    H143376   4.827   6.492   3.339 -0.1573 -1.4928  0.2363
 7295TIP3    H243377   4.945   6.496   3.434 -0.5295 -0.0148  0.6642
 7296TIP3   OH243378   3.605   1.450  14.605  0.2210 -0.4693 -0.1494
 7296TIP3    H143379   3.570   1.395  14.675 -0.5238 -1.2622 -1.1141
 7296TIP3    H243380   3.603   1.539  14.640 -1.5191 -0.6629  0.3118
 7297TIP3   OH243381   2.417   0.756   3.194 -0.3641  0.6457  0.0808
 7297TIP3    H143382   2.426   0.779   3.286  0.6410  1.6726 -0.2501
 7297TIP3    H243383   2.323   0.746   3.181 -0.5883  1.4755  0.9850
 7298TIP3   OH243384   6.236   2.683   3.148 -0.0782 -0.4046  0.0400
 7298TIP3    H143385   6.266   2.624   3.217 -0.6375 -0.7720 -0.0260
 7298TIP3    H243386   6.312   2.694   3.091  0.1854 -0.6352  0.3477
 7299TIP3   OH243387   6.012   0.327  17.373 -0.2573  0.4587 -0.2162
 7299TIP3    H143388   5.985   0.293  17.288 -1.4964 -1.2692  0.8119
 7299TIP3    H243389   5.980   0.417  17.374 -1.4642  0.0521 -1.0373
 7300TIP3   OH243390   4.358   3.458  11.949 -0.1211 -0.8335  0.6779
 7300TIP3    H143391   4.371   3.377  11.900  1.5913  0.2063 -0.7325
 7300TIP3    H243392   4.294   3.507  11.899  0.4317 -0.4485  0.3296
 7301TIP3   OH243393   1.996   0.758  13.858 -0.2934 -0.0774 -0.2371
 7301TIP3    H143394   1.961   0.669  13.864 -0.7206  0.1040  0.0440
 7301TIP3    H243395   1.919   0.814  13.871 -0.2238  0.3352 -1.4586
 7302TIP3   OH243396   6.719   2.613  16.414 -0.0400  0.3400  0.3429
 7302TIP3    H143397   6.698   2.521  16.400  0.6653  0.3090 -0.6220
 7302TIP3    H243398   6.691   2.630  16.504 -1.0983 -0.5383  0.2030
 7303TIP3   OH243399   6.407   5.539  12.839 -0.2054 -0.1924  0.1045
 7303TIP3    H143400   6.321   5.577  12.819 -1.1552 -2.0446  0.4837
 7303TIP3    H243401   6.436   5.586  12.917  0.1888  1.9850 -1.2631
 7304TIP3   OH243402   6.390   2.933  17.327  0.2864 -0.1511 -0.0057
 7304TIP3    H143403   6.329   3.003  17.306 -2.3604 -2.4579 -0.6043
 7304TIP3    H243404   6.357   2.857  17.280  0.6862 -2.8169  3.5676
 7305TIP3   OH243405   3.989   6.325   4.925 -0.3392  0.2614  0.1646
 7305TIP3    H143406   4.029   6.256   4.980 -1.0492  1.2469  1.9879
 7305TIP3    H243407   4.061   6.355   4.869  0.7020 -0.0701  1.2804
 7306TIP3   OH243408   1.702   3.625   3.609  0.0808  0.3766  0.1193
 7306TIP3    H143409   1.692   3.535   3.642  4.6044 -0.6081 -0.5643
 7306TIP3    H243410   1.727   3.676   3.686 -0.5991  0.6543  0.1627
 7307TIP3   OH243411   5.986   0.633  16.531 -0.4862 -0.0950 -0.5077
 7307TIP3    H143412   6.011   0.679  16.611 -0.0399  0.0477 -0.7267
 7307TIP3    H243413   5.897   0.663  16.512  0.3998  2.0164 -1.6016
 7308TIP3   OH243414   5.106   5.819   4.629  0.2935  0.2078 -0.0651
 7308TIP3    H143415   5.187   5.829   4.679 -0.7952  2.2779  1.4252
 7308TIP3    H243416   5.113   5.883   4.558  0.5425 -0.6442 -0.8380
 7309TIP3   OH243417   3.360   4.191  15.913  0.2381  0.3795  0.4327
 7309TIP3    H143418   3.347   4.279  15.946  1.7758  0.3579  1.1897
 7309TIP3    H243419   3.382   4.203  15.820  0.1522  0.7706  0.4630
 7310TIP3   OH243420   4.061   1.731  16.782 -0.4263  0.1905 -0.3649
 7310TIP3    H143421   4.145   1.758  16.820 -0.5339  0.5073 -0.3460
 7310TIP3    H243422   4.012   1.813  16.773 -0.4289  0.1054 -1.1261
 7311TIP3   OH243423   4.898   5.106   2.505 -0.0651  0.1111 -0.1886
 7311TIP3    H143424   4.935   5.176   2.560  1.9639 -1.0099 -0.0419
 7311TIP3    H243425   4.918   5.026   2.553 -4.1759 -0.5921  0.7163
 7312TIP3   OH243426   4.667   3.635  16.636  0.7464 -0.0802 -0.3837
 7312TIP3    H143427   4.710   3.622  16.551  0.5548 -0.9429 -0.3596
 7312TIP3    H243428   4.574   3.641  16.615  0.7984  0.8647 -0.3474
 7313TIP3   OH243429   4.681   2.145  14.804  0.5964  0.3517 -0.3088
 7313TIP3    H143430   4.639   2.059  14.799  0.3432  0.4554 -0.0149
 7313TIP3    H243431   4.736   2.141  14.882 -0.9814  1.1287  0.9006
 7314TIP3   OH243432   4.613   4.243   2.801  0.8050  0.4193 -0.4485
 7314TIP3    H143433   4.555   4.310   2.839 -0.5715 -0.6001 -0.6581
 7314TIP3    H243434   4.601   4.251   2.707 -1.8424 -2.0425 -0.4914
 7315TIP3   OH243435   3.588   1.494   6.288  0.6970  0.5118 -0.0954
 7315TIP3    H143436   3.538   1.457   6.361  0.3581 -0.8093 -0.9636
 7315TIP3    H243437   3.673   1.452   6.293  0.4884 -0.0111 -0.7735
 7316TIP3   OH243438   2.532   2.895  13.565  0.4447  0.0555  0.1762
 7316TIP3    H143439   2.547   2.954  13.639 -0.8804 -1.2107  1.5258
 7316TIP3    H243440   2.581   2.816  13.587 -0.4507 -0.5630  0.0160
 7317TIP3   OH243441   0.663   1.060   4.062  0.6572  0.5197  0.2807
 7317TIP3    H143442   0.738   1.056   4.003  0.6594  0.9003  0.2506
 7317TIP3    H243443   0.665   0.977   4.110 -0.4964 -0.6657 -1.6120
 7318TIP3   OH243444   4.175   0.422  14.502 -0.0579 -0.5565 -0.1663
 7318TIP3    H143445   4.090   0.459  14.525  0.8962  0.6674  1.6152
 7318TIP3    H243446   4.192   0.455  14.414 -0.7120  0.5590  0.1051
 7319TIP3   OH243447   0.512   1.643   6.767 -0.3000  0.1822 -0.2069
 7319TIP3    H143448   0.452   1.679   6.832  1.6737 -0.1986  1.9421
 7319TIP3    H243449   0.560   1.719   6.733 -0.7796  0.2889 -0.6620
 7320TIP3   OH243450   1.755   0.600   1.862  0.1098 -0.6388 -0.3964
 7320TIP3    H143451   1.685   0.641   1.912  0.8795  0.4003 -0.1230
 7320TIP3    H243452   1.832   0.654   1.880  0.8947 -1.5137 -1.0004
 7321TIP3   OH243453   3.680   2.790  15.349  0.1708  0.3653  0.6482
 7321TIP3    H143454   3.732   2.727  15.299  0.4425 -1.8731  3.5122
 7321TIP3    H243455   3.744   2.841  15.398 -0.1184  2.0978 -0.6868
 7322TIP3   OH243456   5.543   6.690  16.463 -0.1846  0.5671  0.2330
 7322TIP3    H143457   5.620   6.688  16.407  0.1678 -1.3563  0.7034
 7322TIP3    H243458   5.577   6.698  16.552 -0.4596 -0.7408  0.4830
 7323TIP3   OH243459   5.461   3.331   3.581 -0.0753  0.3453 -0.4074
 7323TIP3    H143460   5.417   3.268   3.524 -0.1127 -1.2750  1.3431
 7323TIP3    H243461   5.552   3.300   3.584  0.4117  1.6223 -1.1806
 7324TIP3   OH243462   0.044   3.441  13.151  0.0368  0.4265 -0.2082
 7324TIP3    H143463   0.119   3.459  13.208 -0.7615  0.5199  0.8636
 7324TIP3    H243464  -0.029   3.427  13.212 -0.8190  0.3550 -1.2178
 7325TIP3   OH243465   2.815   0.130  17.304  0.2797 -1.0317  0.1530
 7325TIP3    H143466   2.746   0.100  17.245  0.0155 -1.7897  0.8328
 7325TIP3    H243467   2.798   0.223  17.316  0.7391 -0.7077 -1.4906
 7326TIP3   OH243468   1.665   5.183   0.094  0.1465  0.5407  0.0039
 7326TIP3    H143469   1.759   5.202   0.097  0.3661 -0.5716  1.6665
 7326TIP3    H243470   1.659   5.095   0.057 -0.0892  0.0374  1.1646
 7327TIP3   OH243471   1.806   1.567   3.377  0.1694  0.4939  0.1312
 7327TIP3    H143472   1.856   1.517   3.441  1.2928  0.5349 -0.6851
 7327TIP3    H243473   1.784   1.504   3.308 -1.2439  0.3918  0.6458
 7328TIP3   OH243474   3.074   5.773   2.540 -0.5137 -0.4704 -0.1242
 7328TIP3    H143475   3.107   5.753   2.627 -0.6398 -1.5833 -0.3251
 7328TIP3    H243476   3.107   5.702   2.484 -0.8308 -0.0329 -0.8883
 7329TIP3   OH243477   1.248   5.167   2.434  0.0163 -0.2552  0.3337
 7329TIP3    H143478   1.249   5.200   2.524 -2.1505 -0.6904  0.5604
 7329TIP3    H243479   1.223   5.075   2.442  0.4785 -0.4947 -0.6933
 7330TIP3   OH243480   6.385   0.368  12.696 -0.0612 -0.3038  0.4312
 7330TIP3    H143481   6.290   0.357  12.704  0.0533 -0.8487  1.1367
 7330TIP3    H243482   6.406   0.335  12.608 -0.4835 -0.4708  0.3892
 7331TIP3   OH243483   5.870   6.051  11.660 -0.5567 -0.3547  0.0388
 7331TIP3    H143484   5.789   6.096  11.682 -0.3518  0.8609 -1.5342
 7331TIP3    H243485   5.880   6.063  11.566  0.1097 -2.7556 -0.2666
 7332TIP3   OH243486   1.182   4.122   1.546  0.3213 -0.2315  0.3404
 7332TIP3    H143487   1.265   4.076   1.561  0.0475 -0.7825  0.1856
 7332TIP3    H243488   1.148   4.140   1.633 -0.1099 -1.3153  0.4005
 7333TIP3   OH243489   4.414   5.874   0.973  0.9018  0.3342  0.0838
 7333TIP3    H143490   4.351   5.921   1.027 -0.6368 -0.8865 -0.5570
 7333TIP3    H243491   4.494   5.925   0.980 -0.5706  2.8896 -0.3548
 7334TIP3   OH243492   1.129   2.672   1.789  0.1366  0.0763 -0.0252
 7334TIP3    H143493   1.036   2.695   1.787  0.6227  2.1723 -2.0196
 7334TIP3    H243494   1.173   2.747   1.750  2.5677 -1.4337 -0.3791
 7335TIP3   OH243495   4.828   3.784   4.906 -0.4257  0.1249 -0.1386
 7335TIP3    H143496   4.757   3.758   4.847 -2.0204  0.8486  1.3876
 7335TIP3    H243497   4.805   3.745   4.990  1.3930 -0.2178  0.2358
 7336TIP3   OH243498   3.722   4.831   2.635 -0.2416  0.1104 -0.1500
 7336TIP3    H143499   3.649   4.870   2.586 -0.7568  1.0019  1.2752
 7336TIP3    H243500   3.684   4.808   2.719  0.9110 -0.3155  0.2672
 7337TIP3   OH243501   0.413   2.205   0.745 -0.0368  0.4125  0.3400
 7337TIP3    H143502   0.375   2.221   0.831  0.1406 -0.2993  0.5593
 7337TIP3    H243503   0.465   2.283   0.727 -2.1190  1.7549 -0.2914
 7338TIP3   OH243504   2.918   1.402   3.425  0.0369 -0.4739  0.2803
 7338TIP3    H143505   2.978   1.461   3.470 -0.8093  0.9791 -0.4170
 7338TIP3    H243506   2.881   1.347   3.494 -0.2322  0.8048  1.1837
 7339TIP3   OH243507   3.265   2.767  16.121  0.0280  0.1606  0.2193
 7339TIP3    H143508   3.309   2.805  16.197  0.0201  0.8810 -0.1310
 7339TIP3    H243509   3.306   2.681  16.110  0.0697  0.0759  0.9977
 7340TIP3   OH243510   5.121   2.107  17.206  0.2630  0.0515  0.2018
 7340TIP3    H143511   5.135   2.021  17.168  1.1423  1.1654 -2.1723
 7340TIP3    H243512   5.069   2.155  17.141  1.3599  1.8781  0.5800
 7341TIP3   OH243513   4.142   1.321  13.642  0.1379  0.2542 -0.2998
 7341TIP3    H143514   4.232   1.301  13.668 -0.0418  0.7710  0.7513
 7341TIP3    H243515   4.098   1.344  13.723 -0.9328  0.0885 -0.8183
 7342TIP3   OH243516   4.599   2.588  16.341 -0.3054  0.5928  0.4728
 7342TIP3    H143517   4.596   2.608  16.247 -1.0603  1.9232  0.7474
 7342TIP3    H243518   4.613   2.494  16.345 -2.2930  0.1842 -0.9950
 7343TIP3   OH243519   4.107   5.233  13.334 -0.1926 -0.0534  0.1203
 7343TIP3    H143520   4.033   5.179  13.359 -0.9051  0.3999 -0.9536
 7343TIP3    H243521   4.180   5.199  13.386 -0.2785 -2.9140 -1.4436
 7344TIP3   OH243522   0.901   5.625  11.522  0.0170 -0.1485  0.3118
 7344TIP3    H143523   0.868   5.687  11.587 -0.6458  0.8745 -0.9771
 7344TIP3    H243524   0.824   5.593  11.477  0.4111 -1.4406  0.4987
 7345TIP3   OH243525   3.129   2.560  10.642  0.2243  0.1773  0.0629
 7345TIP3    H143526   3.050   2.536  10.593 -1.0295  0.3777  1.8759
 7345TIP3    H243527   3.113   2.650  10.669  1.0690  0.2047  0.4867
 7346TIP3   OH243528   4.566   1.418   0.275 -0.4193 -0.6625  0.2535
 7346TIP3    H143529   4.642   1.475   0.285 -0.3191 -1.0250  1.9058
 7346TIP3    H243530   4.493   1.469   0.311 -0.2897 -1.5930  1.9522
 7347TIP3   OH243531   2.011   2.222   5.253 -0.2958  0.0438  0.0549
 7347TIP3    H143532   1.947   2.151   5.260  1.7164 -1.7303  1.9132
 7347TIP3    H243533   1.996   2.275   5.331 -0.6120  0.6760 -0.4216
 7348TIP3   OH243534   6.460   4.578   4.970  0.3676 -1.0167  0.1732
 7348TIP3    H143535   6.451   4.646   4.904  2.2849 -0.8219  0.0559
 7348TIP3    H243536   6.424   4.616   5.050  0.8953 -0.0762 -0.0300
 7349TIP3   OH243537   3.637   5.483   1.535  0.4665 -0.5945 -0.4765
 7349TIP3    H143538   3.674   5.443   1.456  2.0836  0.6208 -0.3976
 7349TIP3    H243539   3.697   5.456   1.605  0.9984  1.0417 -0.2574
 7350TIP3   OH243540   1.763   4.274   2.676 -0.2157  0.7281  0.0254
 7350TIP3    H143541   1.705   4.297   2.603 -1.6087 -0.2234  0.7850
 7350TIP3    H243542   1.739   4.184   2.698  2.8509 -0.4081 -0.8109
 7351TIP3   OH243543   2.869   4.780   1.947 -0.4355  0.0917  0.1673
 7351TIP3    H143544   2.945   4.821   1.906  0.2703  0.7833  2.0590
 7351TIP3    H243545   2.905   4.706   1.996 -1.2838 -0.8458 -0.5721
 7352TIP3   OH243546   4.019   5.436  12.428  0.0045 -0.0551 -0.0690
 7352TIP3    H143547   3.954   5.505  12.440 -0.3322 -0.1069 -1.4407
 7352TIP3    H243548   3.968   5.357  12.413  0.3849 -0.2131 -0.5417
 7353TIP3   OH243549   2.561   1.935   0.870 -0.4702  0.3023 -0.0281
 7353TIP3    H143550   2.480   1.888   0.890  0.0010 -1.2707 -1.5514
 7353TIP3    H243551   2.570   1.928   0.775  1.0170  1.1876  0.0193
 7354TIP3   OH243552   2.759   0.890   4.976 -0.5205 -0.6163  0.0731
 7354TIP3    H143553   2.793   0.801   4.988 -0.3655 -0.5131  0.4046
 7354TIP3    H243554   2.795   0.917   4.892 -0.9619 -1.0460 -0.2581
 7355TIP3   OH243555   4.249   1.120  17.365 -0.4495 -0.1158  0.5626
 7355TIP3    H143556   4.243   1.024  17.361  0.6661 -0.1590 -1.2177
 7355TIP3    H243557   4.341   1.137  17.384 -0.5182  0.5988  0.2786
 7356TIP3   OH243558   2.784   4.557  16.937  0.0719 -0.9149 -0.5746
 7356TIP3    H143559   2.807   4.647  16.916  0.3503 -0.9379 -0.3697
 7356TIP3    H243560   2.868   4.512  16.948 -0.0422 -1.4202 -1.5786
 7357TIP3   OH243561   2.304   3.061  16.292  0.0779 -0.0864  0.2365
 7357TIP3    H143562   2.398   3.059  16.305 -0.0904 -0.6934  1.5118
 7357TIP3    H243563   2.293   3.077  16.198  1.4636 -1.3115 -0.1810
 7358TIP3   OH243564   3.822   5.133  16.375  0.6849  0.4997 -0.0678
 7358TIP3    H143565   3.903   5.084  16.361  0.6145  0.8143 -1.7033
 7358TIP3    H243566   3.816   5.142  16.470  1.2451 -1.7358  0.2421
 7359TIP3   OH243567   0.759   3.743  15.334  0.3197 -0.3073 -0.1501
 7359TIP3    H143568   0.754   3.675  15.401  1.4828  0.5180  0.8367
 7359TIP3    H243569   0.713   3.818  15.373  1.7866  0.4825  0.1749
 7360TIP3   OH243570   6.231   1.644  11.373  0.5274 -0.0253 -0.3967
 7360TIP3    H143571   6.158   1.599  11.331  1.7241 -1.6661 -0.8273
 7360TIP3    H243572   6.249   1.719  11.315 -1.3413  0.9704  0.2135
 7361TIP3   OH243573   4.828   1.291   5.555 -0.0334 -0.1664  0.1798
 7361TIP3    H143574   4.847   1.372   5.601  0.5072 -0.5004  0.5559
 7361TIP3    H243575   4.744   1.307   5.512  0.3484  0.7979 -0.2394
 7362TIP3   OH243576   5.866   3.188  14.105  0.2936  0.2713  0.3170
 7362TIP3    H143577   5.791   3.195  14.164 -0.7970 -1.2898 -0.8086
 7362TIP3    H243578   5.834   3.224  14.022  0.2602 -1.7342 -0.5858
 7363TIP3   OH243579   6.410   6.349  16.924  0.0963 -0.1121 -0.1302
 7363TIP3    H143580   6.391   6.287  16.994  1.0836  0.3673  0.5933
 7363TIP3    H243581   6.392   6.435  16.964  0.0239  0.1306 -0.6868
 7364TIP3   OH243582   2.195   2.295  13.417 -0.4421  0.1685 -0.1458
 7364TIP3    H143583   2.103   2.272  13.413 -0.1222 -1.0667 -1.1386
 7364TIP3    H243584   2.240   2.212  13.435  0.4603  0.8070  0.6549
 7365TIP3   OH243585   0.272   0.529   2.713  0.2826  0.0441 -0.0899
 7365TIP3    H143586   0.192   0.478   2.724 -0.7342  1.2304 -1.4634
 7365TIP3    H243587   0.242   0.620   2.709  1.3375  0.3741 -3.0895
 7366TIP3   OH243588   3.699   3.328   4.329 -0.3271 -0.7404 -0.0851
 7366TIP3    H143589   3.769   3.264   4.316  0.5736  0.2382 -0.2302
 7366TIP3    H243590   3.739   3.396   4.384 -1.1909 -0.2034 -0.1064
 7367TIP3   OH243591   0.844   4.502  11.285 -0.3127 -0.4279  0.2073
 7367TIP3    H143592   0.800   4.448  11.350  0.0141  0.1520  0.9250
 7367TIP3    H243593   0.931   4.517  11.321 -0.1065 -0.1421 -0.3924
 7368TIP3   OH243594   6.187   0.123  14.080 -0.3769  0.0681  0.4103
 7368TIP3    H143595   6.154   0.068  14.009 -1.0623  0.5916  0.3054
 7368TIP3    H243596   6.176   0.213  14.048  1.2115  0.2765  0.3632
 7369TIP3   OH243597   5.000   3.778  13.131  0.6682 -0.1440  0.3225
 7369TIP3    H143598   5.049   3.858  13.150  0.7277 -0.1523  0.2063
 7369TIP3    H243599   5.066   3.709  13.133  0.7295 -0.1061 -0.2014
 7370TIP3   OH243600   2.008   1.369  12.650  0.1518  0.6464 -0.0574
 7370TIP3    H143601   1.948   1.421  12.703 -0.4879 -1.6719  1.6565
 7370TIP3    H243602   2.089   1.365  12.701 -0.4360 -1.5254  0.8237
 7371TIP3   OH243603   0.146   3.981   4.838 -0.1061 -0.2803  0.1315
 7371TIP3    H143604   0.084   3.991   4.766  0.1089 -1.5670 -0.2615
 7371TIP3    H243605   0.094   3.995   4.917 -0.3940  0.9067 -0.2568
 7372TIP3   OH243606   6.401   5.458  15.845 -0.3979 -0.4810  0.9637
 7372TIP3    H143607   6.472   5.522  15.844 -1.2704  0.5119  0.8974
 7372TIP3    H243608   6.425   5.396  15.914  0.7705 -0.4525  0.5993
 7373TIP3   OH243609   2.250   2.494   1.804  0.1475  0.1483 -0.0468
 7373TIP3    H143610   2.199   2.415   1.787  2.9814 -1.1326 -3.8908
 7373TIP3    H243611   2.296   2.476   1.885 -1.8545 -0.5531  1.0058
 7374TIP3   OH243612   1.427   5.880   5.210 -0.1623  0.5085  0.0619
 7374TIP3    H143613   1.487   5.938   5.256  0.6860 -0.0330 -0.3314
 7374TIP3    H243614   1.340   5.915   5.228  0.3096  1.6483  0.1635
 7375TIP3   OH243615   3.609   2.992  16.259  0.6977  0.4139 -0.9012
 7375TIP3    H143616   3.522   2.970  16.225  0.0021  2.2871 -0.4845
 7375TIP3    H243617   3.594   3.011  16.352  1.8392 -0.6454 -0.4809
 7376TIP3   OH243618   4.284   5.112  12.326 -0.8818 -0.1807  0.1560
 7376TIP3    H143619   4.194   5.109  12.358 -1.6218 -0.2033 -1.7797
 7376TIP3    H243620   4.275   5.114  12.231  0.9785  4.1828 -0.1755
 7377TIP3   OH243621   0.562   5.943  15.674 -0.7315 -0.3420  1.1204
 7377TIP3    H143622   0.532   5.985  15.754  1.5217  1.1423  1.2635
 7377TIP3    H243623   0.613   5.867  15.704  1.2506  0.9609  1.2542
 7378TIP3   OH243624   4.436   4.914   6.444 -0.5452  0.2422 -0.1233
 7378TIP3    H143625   4.383   4.863   6.506 -0.0788  0.0545  0.1244
 7378TIP3    H243626   4.526   4.896   6.469 -0.3567  0.4237 -0.6548
 7379TIP3   OH243627   6.233   3.687   4.317 -0.1142 -0.4656 -0.2368
 7379TIP3    H143628   6.149   3.732   4.326 -0.6249 -1.4602  0.1229
 7379TIP3    H243629   6.264   3.711   4.230  0.7948  2.4767  0.7975
 7380TIP3   OH243630   0.346   3.905   2.217  0.3075 -0.9178 -0.5809
 7380TIP3    H143631   0.395   3.985   2.236  2.1067 -2.2229  0.7385
 7380TIP3    H243632   0.259   3.919   2.254  0.2586  0.7608 -1.2688
 7381TIP3   OH243633   5.057   2.298  11.386 -0.0652 -0.2168  0.3714
 7381TIP3    H143634   5.009   2.224  11.423 -0.3468  0.4452  1.3929
 7381TIP3    H243635   5.000   2.331  11.316 -0.3589 -0.4018  0.5194
 7382TIP3   OH243636   1.460   2.169  14.000  0.2766 -0.0059 -0.1490
 7382TIP3    H143637   1.462   2.159  13.905  0.8423  1.8742 -0.3848
 7382TIP3    H243638   1.552   2.157  14.027  0.3029  0.4983  0.0065
 7383TIP3   OH243639   6.680   4.862   1.465  0.5497  0.2550 -0.4320
 7383TIP3    H143640   6.725   4.777   1.464 -0.9256 -0.5621 -0.0175
 7383TIP3    H243641   6.602   4.848   1.411 -0.5313  0.8585  0.9141
 7384TIP3   OH243642   6.448   6.718   1.386  0.8184  0.3536  0.0681
 7384TIP3    H143643   6.486   6.762   1.461 -1.2450  1.3722  0.5622
 7384TIP3    H243644   6.434   6.787   1.321  1.4116 -0.3026 -0.7917
 7385TIP3   OH243645   6.302   6.265  11.421  0.2578  0.1542  0.1968
 7385TIP3    H143646   6.222   6.220  11.393  0.2246  0.9027 -0.9964
 7385TIP3    H243647   6.372   6.204  11.397  0.1511  0.2926 -0.4888
 7386TIP3   OH243648   2.687   4.908  11.556  0.2882 -0.3283 -0.2140
 7386TIP3    H143649   2.670   4.815  11.542  0.6523 -0.2599 -1.1203
 7386TIP3    H243650   2.704   4.944  11.469  1.0959  0.3980  0.2194
 7387TIP3   OH243651   4.350   4.506  13.770  0.9544 -0.0270  0.0398
 7387TIP3    H143652   4.378   4.540  13.855  0.1830  0.6016  0.0609
 7387TIP3    H243653   4.409   4.548  13.707  1.3192 -0.2447  0.2322
 7388TIP3   OH243654   2.602   6.039  16.186  0.2593  0.2580 -0.7851
 7388TIP3    H143655   2.673   6.058  16.124  2.6526 -1.9594  1.0631
 7388TIP3    H243656   2.619   5.950  16.216 -2.0885  0.4252  1.4127
 7389TIP3   OH243657   5.031   4.484  14.214  0.9492  0.6859  0.0679
 7389TIP3    H143658   5.079   4.450  14.139  0.5361 -2.7821  1.1899
 7389TIP3    H243659   5.090   4.472  14.289 -0.2485 -0.1784  0.9198
 7390TIP3   OH243660   2.461   4.859  13.343  0.3730 -0.0678 -0.2050
 7390TIP3    H143661   2.398   4.787  13.351  2.0272 -1.6227 -0.5248
 7390TIP3    H243662   2.544   4.821  13.369  1.2134  1.9388  0.2322
 7391TIP3   OH243663   1.571   2.208  12.703 -0.6578  0.4322  0.1891
 7391TIP3    H143664   1.586   2.244  12.790  2.9793  0.9560 -0.4831
 7391TIP3    H243665   1.614   2.270  12.644 -2.4595 -0.2453 -1.9662
 7392TIP3   OH243666   3.261   0.382  15.912  0.1143 -0.3220 -0.0453
 7392TIP3    H143667   3.273   0.385  15.817 -0.9012  0.2625 -0.1766
 7392TIP3    H243668   3.341   0.420  15.948  0.3631 -0.2308 -0.6817
 7393TIP3   OH243669   3.949   4.186  12.771  0.3889 -0.9781  0.3141
 7393TIP3    H143670   3.917   4.129  12.702  0.7642 -1.0726  0.2172
 7393TIP3    H243671   3.981   4.264  12.726 -0.4828 -0.5056  0.4724
 7394TIP3   OH243672   5.379   2.407  15.243 -0.3180 -0.3272  0.0191
 7394TIP3    H143673   5.416   2.377  15.160  3.5968  1.7560  0.8080
 7394TIP3    H243674   5.424   2.355  15.310  1.1919  2.0810  1.0152
 7395TIP3   OH243675   5.284   0.149  11.787  0.5215  0.8923 -0.3347
 7395TIP3    H143676   5.324   0.119  11.705 -0.6319  1.1083 -0.9959
 7395TIP3    H243677   5.286   0.072  11.844 -1.6497 -0.2950 -1.7163
 7396TIP3   OH243678   2.775   3.090   1.642 -0.0013 -0.3434 -0.3072
 7396TIP3    H143679   2.746   3.025   1.705 -0.1784 -1.2709 -1.3137
 7396TIP3    H243680   2.762   3.049   1.557 -1.5457  1.5517 -1.0840
 7397TIP3   OH243681   3.870   1.001   4.600 -0.0419  0.0216 -0.4727
 7397TIP3    H143682   3.909   0.972   4.517  0.2167  0.1474 -0.3937
 7397TIP3    H243683   3.929   0.967   4.667  1.0183  1.8729 -0.4160
 7398TIP3   OH243684   1.526   4.100  12.960  0.6511 -0.2423  0.2445
 7398TIP3    H143685   1.552   4.104  13.052 -0.3767 -0.1567  0.5422
 7398TIP3    H243686   1.601   4.059  12.915  0.5315 -1.7509  1.3574
 7399TIP3   OH243687   5.357   0.158  16.975 -0.0186  0.4766 -0.3206
 7399TIP3    H143688   5.368   0.227  16.909 -0.6446 -1.4158 -2.5532
 7399TIP3    H243689   5.263   0.140  16.975  0.0657 -0.0234  0.6067
 7400TIP3   OH243690   6.150   4.329  13.403 -0.7941 -0.1682  0.6048
 7400TIP3    H143691   6.129   4.281  13.323  0.6929 -0.6013  0.4437
 7400TIP3    H243692   6.163   4.261  13.469 -2.3849  0.2006  1.3407
 7401TIP3   OH243693   6.099   5.940  13.886 -0.1618 -0.0228 -0.1749
 7401TIP3    H143694   6.167   5.909  13.826 -1.6469 -1.6484 -1.1483
 7401TIP3    H243695   6.099   5.877  13.958  0.0031  0.5253  0.3079
 7402TIP3   OH243696   0.964   2.902   2.886 -0.9577 -0.0793 -0.2188
 7402TIP3    H143697   0.929   2.981   2.846 -1.5140  0.5324  1.3836
 7402TIP3    H243698   1.036   2.933   2.941  0.4341 -1.0116 -1.4275
 7403TIP3   OH243699   2.005   3.628   3.372  0.4648 -0.5483  0.7182
 7403TIP3    H143700   1.997   3.645   3.278  0.4847 -1.2190  0.5918
 7403TIP3    H243701   2.097   3.645   3.392  0.3767 -0.0444  0.6891
 7404TIP3   OH243702   4.727   6.505  12.005  0.3478  0.6576 -0.1652
 7404TIP3    H143703   4.655   6.518  11.943  0.4768  0.3145 -0.3932
 7404TIP3    H243704   4.784   6.441  11.962  0.1936  0.0480  0.5141
 7405TIP3   OH243705   5.348   0.745   5.083  0.2593 -0.2254 -0.0520
 7405TIP3    H143706   5.425   0.794   5.114 -0.4338 -0.9313  3.0033
 7405TIP3    H243707   5.378   0.706   5.000  1.9838  2.3735 -0.7975
 7406TIP3   OH243708   0.069   4.378  14.984  0.0223 -0.3493  0.0603
 7406TIP3    H143709   0.071   4.293  15.029 -1.2618 -1.3314 -1.5949
 7406TIP3    H243710   0.125   4.365  14.907  1.5931  1.0503  0.9239
 7407TIP3   OH243711   1.319   2.702   2.220  0.0932 -0.1507 -0.2385
 7407TIP3    H143712   1.225   2.684   2.228  0.3167 -1.2905 -0.1258
 7407TIP3    H243713   1.342   2.745   2.302 -0.0866 -0.9972  0.2652
 7408TIP3   OH243714   1.868   6.174   1.903 -0.1302  0.1977  0.1072
 7408TIP3    H143715   1.870   6.243   1.970  2.7612 -2.4319  3.1261
 7408TIP3    H243716   1.924   6.206   1.833  2.8825  0.2672  2.3790
 7409TIP3   OH243717   6.038   0.270   1.755 -0.1338  0.3602  0.0099
 7409TIP3    H143718   5.949   0.236   1.744 -0.4099  0.9529  0.3462
 7409TIP3    H243719   6.030   0.334   1.826  0.2980  1.4277 -0.8861
 7410TIP3   OH243720   2.440   0.263   0.512  0.2790  0.4069 -0.7154
 7410TIP3    H143721   2.533   0.259   0.489  0.1477  0.2401 -1.2269
 7410TIP3    H243722   2.408   0.174   0.498  0.5668 -0.1776  1.7770
 7411TIP3   OH243723   3.826   2.850  15.886 -0.3841  0.7080 -0.3309
 7411TIP3    H143724   3.896   2.868  15.824  0.3134 -0.3828  0.1205
 7411TIP3    H243725   3.748   2.840  15.832  0.1009  0.3907 -0.9773
 7412TIP3   OH243726   1.107   1.887  16.133 -0.4791  0.2367  0.2556
 7412TIP3    H143727   1.050   1.909  16.207  0.9602  1.9940  0.9223
 7412TIP3    H243728   1.153   1.808  16.160 -0.7959  0.2168  0.7456
 7413TIP3   OH243729   2.278   1.963   5.553  0.0511  0.3348 -0.0990
 7413TIP3    H143730   2.353   1.975   5.611  0.5702  2.4941 -1.1271
 7413TIP3    H243731   2.203   1.994   5.604 -0.1687 -1.5227  0.8080
 7414TIP3   OH243732   3.867   5.034   4.030 -0.2047  0.7526  0.2484
 7414TIP3    H143733   3.924   4.988   3.967 -2.0243 -2.4585  0.7099
 7414TIP3    H243734   3.800   5.074   3.975 -0.8984 -0.6996 -0.0146
 7415TIP3   OH243735   4.130   6.705  15.132 -0.3683  0.3648 -0.7853
 7415TIP3    H143736   4.153   6.659  15.212  0.4121 -1.0755 -1.7830
 7415TIP3    H243737   4.046   6.746  15.150  1.3124  3.0242  1.9134
 7416TIP3   OH243738   0.181   5.659   3.240  0.1254 -0.0421 -0.0971
 7416TIP3    H143739   0.175   5.565   3.225  0.1246  0.1377 -1.2884
 7416TIP3    H243740   0.153   5.670   3.331  0.5499 -1.2286  0.1973
 7417TIP3   OH243741   2.334   4.346  11.305 -0.7468  0.5540  0.5860
 7417TIP3    H143742   2.417   4.382  11.274  0.5150 -0.9239  2.0438
 7417TIP3    H243743   2.341   4.252  11.287 -1.5149  0.2063  1.9596
 7418TIP3   OH243744   1.594   2.690   2.358 -0.0760 -0.3413 -0.2254
 7418TIP3    H143745   1.659   2.760   2.361  0.3483 -0.7559  0.8915
 7418TIP3    H243746   1.511   2.733   2.381  0.3748 -0.3813  1.6575
 7419TIP3   OH243747   2.155   2.619  15.168 -0.3829  0.1900 -0.1997
 7419TIP3    H143748   2.129   2.546  15.112  0.1863 -0.6847  0.6359
 7419TIP3    H243749   2.075   2.641  15.217 -0.3893 -0.3550  0.0488
 7420TIP3   OH243750   6.112   4.972   0.231 -0.1677  0.1234 -0.2435
 7420TIP3    H143751   6.024   4.966   0.270 -0.5094 -1.2415 -1.1383
 7420TIP3    H243752   6.170   4.935   0.297 -0.5581 -0.8826 -0.4415
 7421TIP3   OH243753   3.809   5.147  13.006 -0.0698  1.0725 -0.4418
 7421TIP3    H143754   3.753   5.076  12.974 -0.1243  0.5381  0.7665
 7421TIP3    H243755   3.858   5.108  13.079  1.3369  1.7377 -0.9757
 7422TIP3   OH243756   4.329   4.851   0.083 -0.2651 -0.6599 -0.2912
 7422TIP3    H143757   4.379   4.931   0.067  1.1583 -1.0057  1.9787
 7422TIP3    H243758   4.289   4.830  -0.002 -0.4713  2.2619 -1.0106
 7423TIP3   OH243759   4.729   5.276   3.254  0.0098 -0.4195 -0.0193
 7423TIP3    H143760   4.701   5.194   3.293  1.1136 -0.5629  0.5191
 7423TIP3    H243761   4.713   5.342   3.321  2.4925 -0.7566  1.0037
 7424TIP3   OH243762   4.464   0.302   2.589 -0.0688 -0.1836 -0.8000
 7424TIP3    H143763   4.469   0.339   2.677  1.6020 -0.9321 -0.5346
 7424TIP3    H243764   4.547   0.327   2.548  0.0497 -1.5285 -1.4386
 7425TIP3   OH243765   2.872   0.692   5.356 -1.0052  0.2346 -0.1717
 7425TIP3    H143766   2.814   0.641   5.413 -4.1851  1.5652 -1.9078
 7425TIP3    H243767   2.910   0.626   5.297  0.1361 -0.8037  1.6575
 7426TIP3   OH243768   5.900   5.616  13.936 -0.1863 -0.0446  0.0343
 7426TIP3    H143769   5.944   5.690  13.978 -0.1861  0.8166 -1.4090
 7426TIP3    H243770   5.958   5.542  13.951  0.6148  0.5900  0.1482
 7427TIP3   OH243771   5.806   1.887   0.358 -0.0742  0.1104  0.2553
 7427TIP3    H143772   5.756   1.892   0.439  0.5250 -0.6308  0.6784
 7427TIP3    H243773   5.823   1.979   0.335 -1.4875  0.3746  0.1702
 7428TIP3   OH243774   2.874   0.233  14.448 -0.0084  0.2268  0.7066
 7428TIP3    H143775   2.794   0.190  14.480 -0.1518  0.4321  0.6215
 7428TIP3    H243776   2.910   0.277  14.525 -0.5161  0.9754  0.5198
 7429TIP3   OH243777   3.023   6.566  12.904  0.0354 -0.6993 -0.2874
 7429TIP3    H143778   3.104   6.584  12.856 -0.2431 -0.0642 -0.5420
 7429TIP3    H243779   3.002   6.650  12.946  0.6730 -1.4360  1.5859
 7430TIP3   OH243780   4.646   4.274  16.671  0.6754 -0.1089  0.6416
 7430TIP3    H143781   4.735   4.278  16.635 -0.2766  2.0251 -1.7475
 7430TIP3    H243782   4.611   4.190  16.639  2.3283 -1.9173  3.2001
 7431TIP3   OH243783   1.799   5.236   5.228  0.6398 -0.1759 -0.2753
 7431TIP3    H143784   1.823   5.247   5.136 -1.7734  2.5243 -0.7089
 7431TIP3    H243785   1.732   5.303   5.244  1.1707 -0.3287  3.5472
 7432TIP3   OH243786   3.803   6.007   6.087  0.4554  0.1101 -0.2536
 7432TIP3    H143787   3.869   6.009   6.156 -1.8133 -0.3166  2.0441
 7432TIP3    H243788   3.826   5.932   6.033  2.0329  0.2000  0.2559
 7433TIP3   OH243789   1.404   2.608   4.829 -0.1337 -0.6291 -0.2500
 7433TIP3    H143790   1.325   2.618   4.775 -1.8893  0.1233  2.2798
 7433TIP3    H243791   1.408   2.515   4.849 -1.1519 -0.4921  0.6522
 7434TIP3   OH243792   0.051   3.035  15.168  0.3512 -0.8869  0.4590
 7434TIP3    H143793  -0.024   3.095  15.175  0.8854 -0.3037  1.6171
 7434TIP3    H243794   0.042   2.994  15.082 -0.4315  0.3377 -0.0720
 7435TIP3   OH243795   2.300   6.560   4.899 -0.1211 -0.0318 -0.5758
 7435TIP3    H143796   2.384   6.595   4.871  0.8455 -1.0084  0.9604
 7435TIP3    H243797   2.253   6.542   4.818  1.5102 -0.3229 -1.4859
 7436TIP3   OH243798   3.361   6.460  14.445  0.2364 -0.1384  0.3864
 7436TIP3    H143799   3.286   6.514  14.420  1.7750  1.5208 -0.9154
 7436TIP3    H243800   3.402   6.436  14.361  1.0829 -1.1156  1.0580
 7437TIP3   OH243801   3.697   1.962   6.411 -0.4318  0.1089 -0.3165
 7437TIP3    H143802   3.765   2.023   6.437 -0.7599  0.8696 -1.1696
 7437TIP3    H243803   3.676   1.913   6.490  0.0119  0.9321  0.3211
 7438TIP3   OH243804   6.541   2.556   5.625 -0.0344 -0.0385 -0.6201
 7438TIP3    H143805   6.556   2.565   5.719  1.8357 -0.6710 -0.8070
 7438TIP3    H243806   6.592   2.627   5.586  0.2918 -0.5817 -1.2043
 7439TIP3   OH243807   0.035   4.182   0.601 -0.2156  0.1391 -0.2487
 7439TIP3    H143808   0.041   4.093   0.566 -0.2521  0.6760 -1.6722
 7439TIP3    H243809  -0.059   4.201   0.603 -0.1506  0.6109 -1.2003
 7440TIP3   OH243810   2.541   4.791  11.985  0.3223 -0.2048  0.2190
 7440TIP3    H143811   2.597   4.719  11.957  3.3675  0.8324  3.0223
 7440TIP3    H243812   2.503   4.825  11.904  2.7821 -1.7977 -1.7517
 7441TIP3   OH243813   1.043   1.786   6.732  0.4782  0.7302 -0.2551
 7441TIP3    H143814   1.099   1.733   6.789  0.7199  0.0540 -1.1079
 7441TIP3    H243815   0.980   1.826   6.792 -0.4017 -1.3718  0.3122
 7442TIP3   OH243816   0.737   3.030  17.381  0.0333 -0.3092 -0.3379
 7442TIP3    H143817   0.669   2.969  17.409 -0.3131 -0.7990 -2.1566
 7442TIP3    H243818   0.814   2.975  17.365 -0.1810 -0.2385 -1.6603
 7443TIP3   OH243819   2.960   1.041   5.726 -0.0721  0.0852  0.0760
 7443TIP3    H143820   2.896   1.001   5.667  0.4188  1.0763 -1.1726
 7443TIP3    H243821   2.938   1.135   5.724  1.1137  0.3697 -0.0012
 7444TIP3   OH243822   3.610   4.296   3.438 -0.4959  0.0303 -0.0034
 7444TIP3    H143823   3.554   4.252   3.502 -0.6853  0.3691  0.0628
 7444TIP3    H243824   3.651   4.368   3.486 -0.4687  0.1530 -0.2089
 7445TIP3   OH243825   4.184   5.546   2.690 -0.2419 -0.1937 -0.3081
 7445TIP3    H143826   4.210   5.631   2.724 -0.6681  0.2633 -1.0923
 7445TIP3    H243827   4.102   5.563   2.643  1.1957 -0.4285 -3.1104
 7446TIP3   OH243828   3.052   1.564  13.280  0.1755  0.0810  0.1933
 7446TIP3    H143829   3.094   1.645  13.252 -0.0891 -0.0880 -0.7522
 7446TIP3    H243830   3.116   1.496  13.261 -1.5526 -0.6153 -4.4519
 7447TIP3   OH243831   0.968   1.702   0.144  0.0342 -0.0103  0.1891
 7447TIP3    H143832   0.889   1.668   0.186 -1.1332  0.7397 -1.2826
 7447TIP3    H243833   0.942   1.714   0.053  2.0515 -0.2857 -0.4582
 7448TIP3   OH243834   1.838   4.668   0.954 -1.2667  0.9042  0.1211
 7448TIP3    H143835   1.901   4.728   0.994  1.7758 -1.6618 -0.4321
 7448TIP3    H243836   1.835   4.695   0.862 -0.3872  0.6209 -0.0008
 7449TIP3   OH243837   6.129   3.518  11.514 -0.1532  0.1335 -0.0534
 7449TIP3    H143838   6.139   3.607  11.482  1.4981 -0.2664 -0.7104
 7449TIP3    H243839   6.054   3.484  11.466 -1.7708  1.5923  1.2789
 7450TIP3   OH243840   5.360   4.466  12.089  0.5586  0.1186 -0.0152
 7450TIP3    H143841   5.309   4.390  12.117 -1.1077  1.0693 -0.3579
 7450TIP3    H243842   5.427   4.430  12.030 -0.7562 -0.9962 -0.8791
 7451TIP3   OH243843   6.790   4.761   5.802  0.6712  0.6267  0.0219
 7451TIP3    H143844   6.855   4.825   5.829  0.8465  1.5774 -2.4396
 7451TIP3    H243845   6.827   4.677   5.830  0.6056  1.4535  2.9723
 7452TIP3   OH243846   5.230   4.135  14.204 -0.1911 -0.1024  0.3951
 7452TIP3    H143847   5.204   4.107  14.292 -0.2504  0.5504  0.5926
 7452TIP3    H243848   5.313   4.181  14.217 -0.0196 -0.3186  0.0601
 7453TIP3   OH243849   2.389   1.503  12.543 -0.3229  0.1769 -0.2035
 7453TIP3    H143850   2.331   1.549  12.603  0.4257 -0.2605  0.8902
 7453TIP3    H243851   2.425   1.431  12.595  0.9613  0.2591 -0.9414
 7454TIP3   OH243852   4.821   0.467  13.966  0.1589  0.2503 -0.4001
 7454TIP3    H143853   4.743   0.444  14.016  0.7651 -2.9881 -0.7555
 7454TIP3    H243854   4.880   0.506  14.031 -0.7002  0.1735  0.4488
 7455TIP3   OH243855   5.823   3.664  16.459 -0.1288  0.2574  0.1617
 7455TIP3    H143856   5.768   3.669  16.536  2.1427  1.1434  1.8548
 7455TIP3    H243857   5.844   3.755  16.438  1.4909 -0.0689  0.2264
 7456TIP3   OH243858   4.037   1.219  15.814  0.4093 -0.2333  0.1165
 7456TIP3    H143859   3.953   1.196  15.855  0.8490  0.5593  1.5074
 7456TIP3    H243860   4.100   1.216  15.885  1.4421 -0.0575 -0.7673
 7457TIP3   OH243861   3.353   2.840   5.939 -0.6747  0.1690 -0.3857
 7457TIP3    H143862   3.296   2.887   5.877 -1.5506  0.4154  0.5780
 7457TIP3    H243863   3.312   2.754   5.948  0.5366 -0.5831 -1.6022
 7458TIP3   OH243864   1.088   5.500  16.260 -0.1497 -0.0729 -0.0703
 7458TIP3    H143865   1.047   5.418  16.233 -0.7096  0.7393 -1.7807
 7458TIP3    H243866   1.015   5.560  16.278  0.2182 -0.1713  2.1354
 7459TIP3   OH243867   6.367   0.193   6.469  0.2101  0.3586  0.3446
 7459TIP3    H143868   6.402   0.206   6.381  0.8757  1.2617  0.7345
 7459TIP3    H243869   6.308   0.267   6.483  1.3840  1.1620  1.2743
 7460TIP3   OH243870   4.791   3.530  15.967  0.0196  0.3004 -0.1127
 7460TIP3    H143871   4.872   3.580  15.961 -0.3848  0.9003 -0.7172
 7460TIP3    H243872   4.724   3.589  15.932 -0.5437 -0.4840 -0.3787
 7461TIP3   OH243873   6.003   4.211  12.830 -0.1454  0.1174  0.1191
 7461TIP3    H143874   5.985   4.274  12.899  0.8408 -0.3525  0.8333
 7461TIP3    H243875   6.083   4.166  12.858  1.1756  0.9318 -2.0147
 7462TIP3   OH243876   6.395   1.868   0.059  0.1457  0.1982 -0.3189
 7462TIP3    H143877   6.352   1.791   0.020  1.3247  0.1727 -1.6729
 7462TIP3    H243878   6.471   1.832   0.105  0.4848  0.5020 -0.6305
 7463TIP3   OH243879   4.815   2.422   3.785  0.2205 -0.3687 -0.2872
 7463TIP3    H143880   4.787   2.424   3.877 -2.6536  0.6028 -1.0680
 7463TIP3    H243881   4.784   2.337   3.753  2.8743 -1.5395  0.0096
 7464TIP3   OH243882   0.797   1.272  12.681  0.2270  0.2715 -0.1993
 7464TIP3    H143883   0.786   1.185  12.719  2.9972 -0.0295  0.1397
 7464TIP3    H243884   0.794   1.331  12.757 -1.6671  0.5292 -0.4305
 7465TIP3   OH243885   3.838   0.139   0.099 -0.1960 -0.0084  0.7399
 7465TIP3    H143886   3.808   0.050   0.114  0.9728 -0.1977  2.2172
 7465TIP3    H243887   3.866   0.170   0.185  0.3133  1.4423  0.0918
 7466TIP3   OH243888   6.064   3.074  12.698 -0.1041  0.3223  0.0126
 7466TIP3    H143889   5.980   3.029  12.691 -0.5830  1.2220 -0.1872
 7466TIP3    H243890   6.045   3.154  12.747  0.4563  0.9397 -0.7362
 7467TIP3   OH243891   0.727   3.171   4.725  0.1175  0.2466  0.0562
 7467TIP3    H143892   0.745   3.179   4.631  0.6629  0.2728  0.1564
 7467TIP3    H243893   0.637   3.201   4.735  0.1974  0.6616 -0.4030
 7468TIP3   OH243894   0.843   4.824  11.216 -0.5106  0.6819 -0.4481
 7468TIP3    H143895   0.933   4.797  11.232 -1.0661 -0.4201  1.0069
 7468TIP3    H243896   0.841   4.849  11.123  1.4205  1.3580 -0.3381
 7469TIP3   OH243897   4.174   1.055  11.011 -0.1226  0.1343 -0.2656
 7469TIP3    H143898   4.164   1.059  10.916  0.3933 -1.8271 -0.4490
 7469TIP3    H243899   4.248   1.112  11.030 -1.2641  1.8766 -0.8006
 7470TIP3   OH243900   3.900   1.472  12.002 -0.0150 -0.8761 -0.0103
 7470TIP3    H143901   3.908   1.418  12.081  0.0034 -0.0478  0.5705
 7470TIP3    H243902   3.938   1.418  11.933 -0.2205 -1.7065  0.5004
 7471TIP3   OH243903   0.842   5.523   2.194  0.5647 -0.4944 -0.5917
 7471TIP3    H143904   0.820   5.438   2.155 -0.4582 -0.6731  0.3258
 7471TIP3    H243905   0.921   5.507   2.245  0.7808 -0.7163 -0.9889
 7472TIP3   OH243906   2.662   0.545   0.660  0.4160  0.3881  0.0810
 7472TIP3    H143907   2.627   0.525   0.747 -0.4815 -0.3866 -0.4370
 7472TIP3    H243908   2.587   0.534   0.601  1.1962  0.1180 -0.8853
 7473TIP3   OH243909   2.353   3.814   3.834 -0.1998 -0.2077 -0.2353
 7473TIP3    H143910   2.378   3.861   3.914  0.3413 -1.8776  0.6099
 7473TIP3    H243911   2.430   3.763   3.811 -0.3361  0.2786 -1.8850
 7474TIP3   OH243912   1.877   1.752  14.476 -0.4323 -0.1651 -0.6339
 7474TIP3    H143913   1.830   1.824  14.518  0.1153  1.1793 -2.1745
 7474TIP3    H243914   1.811   1.708  14.422 -0.2869  0.7862 -1.6292
 7475TIP3   OH243915   6.206   3.789  14.395 -0.0966  0.2974 -0.1603
 7475TIP3    H143916   6.209   3.872  14.442  2.2036  0.7710 -1.0014
 7475TIP3    H243917   6.196   3.722  14.463 -1.7377  1.2205  0.5427
 7476TIP3   OH243918   0.739   6.793   3.821  0.3729  0.3393 -0.0436
 7476TIP3    H143919   0.808   6.736   3.787  0.3916  0.5658 -0.4022
 7476TIP3    H243920   0.724   6.763   3.910  0.6331  0.0083 -0.1079
 7477TIP3   OH243921   5.380   1.786   4.713 -0.6882  0.3605 -0.2724
 7477TIP3    H143922   5.461   1.827   4.745  0.7498 -0.1888 -2.9438
 7477TIP3    H243923   5.315   1.857   4.717  0.3589  1.3345  0.2637
 7478TIP3   OH243924   0.613   2.239   5.450  0.1367  0.4071 -0.1868
 7478TIP3    H143925   0.635   2.149   5.475 -0.4514 -0.1061 -1.3977
 7478TIP3    H243926   0.639   2.245   5.358 -1.1392  1.0094 -0.5316
 7479TIP3   OH243927   0.311   3.743  15.162  0.0720 -0.3684 -0.1365
 7479TIP3    H143928   0.240   3.681  15.178  0.8698 -0.7206  2.5345
 7479TIP3    H243929   0.369   3.734  15.238  0.9199  2.6834 -0.2675
 7480TIP3   OH243930   1.608   1.986   4.424 -0.3919 -0.3757 -0.4474
 7480TIP3    H143931   1.642   2.055   4.480 -2.0760 -1.3506  1.9102
 7480TIP3    H243932   1.528   2.022   4.386 -1.2969 -1.0077  0.8216
 7481TIP3   OH243933   0.836   4.412   3.311 -0.9010 -0.0464 -0.3593
 7481TIP3    H143934   0.793   4.349   3.253  0.6299 -0.4818 -1.0765
 7481TIP3    H243935   0.851   4.364   3.392  1.3952 -1.0942 -1.3244
 7482TIP3   OH243936   6.475   1.145   0.310  0.1499 -0.1795 -0.3626
 7482TIP3    H143937   6.520   1.088   0.248 -0.1131 -0.9528  0.1325
 7482TIP3    H243938   6.495   1.107   0.396  0.5109  0.8753  0.0270
 7483TIP3   OH243939   3.973   1.398  16.433 -0.8227 -0.8194  0.4254
 7483TIP3    H143940   3.995   1.473  16.378  0.8287 -1.0957  0.6575
 7483TIP3    H243941   4.051   1.342  16.430 -0.7697 -0.9804  2.7842
 7484TIP3   OH243942   4.896   5.671   3.253  0.3791 -0.3233 -0.0182
 7484TIP3    H143943   4.876   5.598   3.193  0.3663 -0.3545  0.0245
 7484TIP3    H243944   4.901   5.631   3.339  2.3859 -0.6204 -0.2403
 7485TIP3   OH243945   1.087   0.451   2.060  0.2936 -0.3881 -0.2862
 7485TIP3    H143946   1.106   0.358   2.068  1.2103 -0.2083 -0.2952
 7485TIP3    H243947   1.015   0.456   1.997  0.0327 -1.1061 -0.0458
 7486TIP3   OH243948   6.630   3.718   3.912  0.1713 -0.3903  0.0635
 7486TIP3    H143949   6.673   3.797   3.882 -0.3553  0.0247  0.3848
 7486TIP3    H243950   6.673   3.696   3.995 -1.3954  1.0481  1.3273
 7487TIP3   OH243951   5.929   1.745   1.921 -0.2955  0.8437 -0.6223
 7487TIP3    H143952   5.904   1.758   2.012 -0.3930  0.3268 -0.5684
 7487TIP3    H243953   6.016   1.705   1.925 -1.1149 -1.0517 -0.6772
 7488TIP3   OH243954   3.944   2.842  15.218  0.0739  0.5257  0.4437
 7488TIP3    H143955   3.904   2.929  15.221 -0.2345  0.3956  0.1343
 7488TIP3    H243956   3.990   2.840  15.134  2.2122  1.3159  1.5268
 7489TIP3   OH243957   2.559   3.870   2.092  0.2348  0.1103  0.1966
 7489TIP3    H143958   2.567   3.846   2.184 -2.6825  0.7079  0.7224
 7489TIP3    H243959   2.567   3.965   2.091 -1.8303  0.3356  0.2296
 7490TIP3   OH243960   6.086   2.539  17.192 -0.3713 -0.1313  0.0405
 7490TIP3    H143961   6.167   2.590  17.202 -0.9769  0.5965  1.4814
 7490TIP3    H243962   6.080   2.523  17.098  1.5613 -0.4020 -0.0918
 7491TIP3   OH243963   2.429   1.194   4.289  0.6160 -0.8212 -0.7833
 7491TIP3    H143964   2.355   1.134   4.281  1.0550 -1.4592 -0.1229
 7491TIP3    H243965   2.499   1.153   4.239 -0.2500  1.1755 -3.9612
 7492TIP3   OH243966   5.816   4.077  12.007 -0.3432  0.0445 -0.4006
 7492TIP3    H143967   5.850   4.166  11.993  1.3817 -0.3501  0.8802
 7492TIP3    H243968   5.826   4.062  12.101 -0.9991 -1.3638 -0.5309
 7493TIP3   OH243969   1.101   5.643   4.064  0.5034  0.6886  0.3462
 7493TIP3    H143970   1.179   5.675   4.110  0.3867  1.9589 -0.2751
 7493TIP3    H243971   1.136   5.585   3.996  0.9488  1.4153 -0.0683
 7494TIP3   OH243972   5.560   0.447  15.309  0.6031  0.7013  0.3235
 7494TIP3    H143973   5.635   0.439  15.368  0.4087  0.6931  0.5720
 7494TIP3    H243974   5.489   0.401  15.354  0.1048  1.7876  0.6725
 7495TIP3   OH243975   5.544   1.041  12.145 -0.4546  0.3200  0.0471
 7495TIP3    H143976   5.563   1.096  12.069  1.5743 -0.1428  0.1393
 7495TIP3    H243977   5.587   0.958  12.125  0.5994  0.3654  1.8917
 7496TIP3   OH243978   6.720   0.908  12.975  0.5860 -0.1682  0.1265
 7496TIP3    H143979   6.810   0.929  12.953  0.9506 -0.2627  1.4578
 7496TIP3    H243980   6.686   0.988  13.016  0.3333 -0.4098  0.3947
 7497TIP3   OH243981   4.444   6.584   2.155  0.4806  0.1649  0.3374
 7497TIP3    H143982   4.536   6.560   2.145  0.2774 -0.7265  0.4849
 7497TIP3    H243983   4.428   6.647   2.084  0.4411 -1.9853 -1.6889
 7498TIP3   OH243984   6.058   2.175  15.801  0.5514  0.2938  0.6923
 7498TIP3    H143985   6.039   2.089  15.764  0.8340  1.2805 -1.9299
 7498TIP3    H243986   5.987   2.231  15.769 -0.0939  0.9480  3.0302
 7499TIP3   OH243987   5.426   5.144   1.558  0.6171  0.5260 -0.2166
 7499TIP3    H143988   5.373   5.224   1.559 -0.5327 -0.2052 -0.3485
 7499TIP3    H243989   5.471   5.146   1.474 -1.5496 -0.2710 -1.4944
 7500TIP3   OH243990   4.260   0.214  15.785  0.1720 -0.5001  0.0019
 7500TIP3    H143991   4.248   0.142  15.847 -1.7979 -0.6122 -0.4183
 7500TIP3    H243992   4.285   0.289  15.839  1.6282 -1.3226  0.5165
 7501TIP3   OH243993   0.798   5.496   1.355  0.0709  0.6164 -0.3653
 7501TIP3    H143994   0.863   5.433   1.325 -1.1401 -0.0947 -1.6204
 7501TIP3    H243995   0.842   5.547   1.422  1.9272  0.1880 -1.2120
 7502TIP3   OH243996   3.091   5.074   4.162 -0.1166  0.3087 -0.1658
 7502TIP3    H143997   3.181   5.065   4.131 -0.1440  0.9615 -0.4456
 7502TIP3    H243998   3.038   5.049   4.086 -0.1809  1.5234 -0.5282
 7503TIP3   OH243999   1.460   5.322   3.258 -0.0702  0.0756  0.0538
 7503TIP3    H144000   1.546   5.289   3.230 -0.7349 -0.6386 -1.2107
 7503TIP3    H244001   1.410   5.330   3.177 -0.8982  1.4007  0.6754
 7504TIP3   OH244002   3.710   5.271   3.604 -0.6419  0.4132  0.3838
 7504TIP3    H144003   3.741   5.351   3.561  0.7872  1.0563  2.4402
 7504TIP3    H244004   3.616   5.286   3.616 -0.3323  2.0329  1.1311
 7505TIP3   OH244005   1.780   2.994   1.292  0.2159  0.3661 -1.0715
 7505TIP3    H144006   1.849   2.929   1.287  0.9559  1.0293  0.0898
 7505TIP3    H244007   1.823   3.077   1.271 -0.3909  0.6951 -1.0522
 7506TIP3   OH244008   2.818   6.637   1.346  0.0375 -0.0672 -0.8153
 7506TIP3    H144009   2.789   6.550   1.371  0.6647  0.1495  0.7520
 7506TIP3    H244010   2.783   6.695   1.413  0.1773  0.8114 -1.4800
 7507TIP3   OH244011   4.356   1.707  11.247 -0.2289 -0.1537 -0.1860
 7507TIP3    H144012   4.348   1.733  11.339  1.8391  1.4491 -0.3884
 7507TIP3    H244013   4.296   1.765  11.200 -0.3521 -0.1276  0.0011
 7508TIP3   OH244014   1.850   0.603  12.038 -0.1373  0.1379  0.2252
 7508TIP3    H144015   1.821   0.670  12.100 -0.5648  0.8285 -0.6899
 7508TIP3    H244016   1.771   0.576  11.992  0.4258  1.1253 -1.4269
 7509TIP3   OH244017   3.668   5.469  14.452 -0.3121 -0.0345 -0.4830
 7509TIP3    H144018   3.751   5.471  14.405 -0.0312  2.6434 -0.0430
 7509TIP3    H244019   3.690   5.434  14.538 -0.1156 -1.4101 -1.0645
 7510TIP3   OH244020   0.914   2.622   0.651 -0.5757  0.0383 -0.4907
 7510TIP3    H144021   0.902   2.633   0.557 -4.8411  0.4573 -0.0905
 7510TIP3    H244022   0.871   2.698   0.690  1.7719  0.2998  1.8887
 7511TIP3   OH244023   3.807   5.918  17.086 -0.0699 -0.1844 -0.4468
 7511TIP3    H144024   3.741   5.901  17.019  0.1158 -1.0211 -0.4365
 7511TIP3    H244025   3.864   5.984  17.047  0.4436 -1.1586 -1.4304
 7512TIP3   OH244026   2.025   5.084   1.326  0.4631 -0.4449 -0.2228
 7512TIP3    H144027   2.042   5.071   1.233 -0.7612 -0.2798 -0.4944
 7512TIP3    H244028   1.986   5.172   1.331  0.9374 -0.2710  0.5021
 7513TIP3   OH244029   4.986   5.533  13.987  0.0965 -0.4559  0.0433
 7513TIP3    H144030   4.948   5.457  14.030  1.2447  0.3792  2.7692
 7513TIP3    H244031   4.953   5.608  14.037  1.3266  0.6320 -0.6882
 7514TIP3   OH244032   4.985   2.511  14.663 -0.0118  0.1945 -0.2898
 7514TIP3    H144033   4.904   2.537  14.706 -0.6899 -0.4986 -1.1317
 7514TIP3    H244034   4.958   2.450  14.595  1.2928 -0.6685 -0.0733
 7515TIP3   OH244035   6.788   4.912  13.452 -0.5602 -0.5288  0.1969
 7515TIP3    H144036   6.866   4.965  13.436 -0.4652 -0.9747 -0.9483
 7515TIP3    H244037   6.819   4.837  13.503 -0.1337 -0.9624 -0.6901
 7516TIP3   OH244038   3.942   1.057   1.833  0.6890  0.6032 -0.7175
 7516TIP3    H144039   3.931   1.016   1.747 -2.4696 -1.8615  0.6440
 7516TIP3    H244040   3.866   1.116   1.840 -1.9202 -2.7096  1.9600
 7517TIP3   OH244041   4.292   1.655   1.811  0.1239 -0.7768 -0.0293
 7517TIP3    H144042   4.200   1.635   1.793  0.6819 -4.1243  0.2458
 7517TIP3    H244043   4.313   1.726   1.749 -2.7347  0.5761  0.3666
 7518TIP3   OH244044   3.339   0.895   2.597 -0.2612 -0.3840 -0.0764
 7518TIP3    H144045   3.282   0.837   2.547 -0.6904  1.5847 -2.0192
 7518TIP3    H244046   3.398   0.932   2.533  1.7139 -0.5775  1.5351
 7519TIP3   OH244047   5.458   4.162  13.674  0.2291 -0.0378 -0.0576
 7519TIP3    H144048   5.510   4.117  13.740 -1.5467  1.1414  2.3036
 7519TIP3    H244049   5.479   4.255  13.685  0.4222  0.1283 -1.6610
 7520TIP3   OH244050   4.676   5.991  11.548  0.5726 -0.1294  0.2736
 7520TIP3    H144051   4.705   6.035  11.468 -0.6648  2.2414  1.0640
 7520TIP3    H244052   4.739   6.016  11.614 -1.0485  1.9890  1.1235
 7521TIP3   OH244053   0.891   1.107  16.840 -0.4259  0.4182  0.5268
 7521TIP3    H144054   0.899   1.105  16.745 -1.2099  2.6892  0.3477
 7521TIP3    H244055   0.980   1.089  16.872 -0.1095 -0.1529 -0.6191
 7522TIP3   OH244056   0.299   5.154   6.048 -0.0845  0.7293 -0.3832
 7522TIP3    H144057   0.322   5.247   6.043  0.6599  0.5060 -1.3752
 7522TIP3    H244058   0.334   5.125   6.132 -0.1648  1.2976 -0.1500
 7523TIP3   OH244059   4.105   5.994   0.964  0.5067 -0.3662  0.1503
 7523TIP3    H144060   4.100   6.051   0.888 -1.6704 -0.2580  0.3008
 7523TIP3    H244061   4.125   6.052   1.037  0.3356 -0.1201 -0.0000
 7524TIP3   OH244062   0.266   4.088  16.942 -0.3466  0.4002  0.2006
 7524TIP3    H144063   0.294   4.177  16.963 -0.5526  0.3680  0.6298
 7524TIP3    H244064   0.347   4.043  16.918 -0.4096  1.0658 -1.4156
 7525TIP3   OH244065   6.618   2.274   3.628 -0.5543 -0.5870 -0.4421
 7525TIP3    H144066   6.578   2.357   3.653 -0.1537 -0.4103 -0.3730
 7525TIP3    H244067   6.546   2.212   3.624 -0.5732 -0.7818  1.7922
 7526TIP3   OH244068   2.997   0.832   2.685  0.3822 -0.1932  0.2003
 7526TIP3    H144069   3.047   0.753   2.704  2.0169  1.1106  1.6050
 7526TIP3    H244070   3.000   0.883   2.766  1.1794  2.2331 -1.2443
 7527TIP3   OH244071   4.360   1.508  17.174  0.5752 -0.9823 -0.2489
 7527TIP3    H144072   4.435   1.465  17.214  1.4958 -0.9132 -1.8396
 7527TIP3    H244073   4.398   1.579  17.122 -0.7883  0.8131  1.0481
 7528TIP3   OH244074   0.890   5.010  17.141  0.2898 -0.7353  0.1075
 7528TIP3    H144075   0.969   4.993  17.090  0.9876  1.0798  0.5224
 7528TIP3    H244076   0.921   5.052  17.221 -1.1524  1.0147 -0.2036
 7529TIP3   OH244077   5.311   1.728  15.667  0.0177 -0.0008  0.2341
 7529TIP3    H144078   5.294   1.690  15.581 -0.3709  1.0522 -0.1729
 7529TIP3    H244079   5.225   1.759  15.696 -0.2852 -2.1819  1.9522
 7530TIP3   OH244080   2.059   3.896   0.876  0.4654  0.1196  0.2958
 7530TIP3    H144081   2.142   3.850   0.889 -0.1483 -1.0511  0.1714
 7530TIP3    H244082   1.992   3.831   0.896 -0.4524  1.4119  1.7081
 7531TIP3   OH244083   5.502   0.076   2.816  0.1892  0.5861  0.0007
 7531TIP3    H144084   5.462  -0.011   2.821  2.1104 -0.3222  0.5903
 7531TIP3    H244085   5.482   0.116   2.901  0.4862  0.1528  0.2797
 7532TIP3   OH244086   1.065   3.725   6.752  0.0957  0.3334 -0.4775
 7532TIP3    H144087   1.047   3.640   6.712 -0.3785  0.1838  0.0391
 7532TIP3    H244088   1.151   3.714   6.794 -0.0385  0.0489 -0.2688
 7533TIP3   OH244089   1.880   2.990   0.909 -0.1759 -0.3600 -0.2472
 7533TIP3    H144090   1.942   2.959   0.842 -0.2221 -1.1078  0.0448
 7533TIP3    H244091   1.932   3.047   0.965 -0.2509  0.6920 -1.1985
 7534TIP3   OH244092   5.961   4.218   5.996  0.2492 -0.0919  0.2531
 7534TIP3    H144093   5.990   4.146   5.941  0.8264  1.3273 -1.4218
 7534TIP3    H244094   6.021   4.219   6.070 -1.8071 -3.3568  2.2145
 7535TIP3   OH244095   1.236   4.271   2.051  0.2164 -0.6085 -0.0593
 7535TIP3    H144096   1.151   4.309   2.074 -1.5598 -3.3568 -1.5497
 7535TIP3    H244097   1.259   4.311   1.967  0.5826  0.3271  0.4666
 7536TIP3   OH244098   2.427   6.516   0.091  0.0654 -0.0857  0.3271
 7536TIP3    H144099   2.500   6.490   0.147  0.4232 -2.5778 -1.1313
 7536TIP3    H244100   2.353   6.523   0.150  0.9255 -0.1557  1.4570
 7537TIP3   OH244101   6.063   3.095   0.207  0.5198 -0.5660  0.7473
 7537TIP3    H144102   6.139   3.105   0.264 -0.7894  1.1406  2.3178
 7537TIP3    H244103   6.080   3.015   0.157  3.4397 -0.0718  0.8119
 7538TIP3   OH244104   1.482   3.413  11.220 -0.3688 -0.4322 -0.3401
 7538TIP3    H144105   1.557   3.459  11.258 -0.5781 -1.3240  1.2616
 7538TIP3    H244106   1.520   3.344  11.166 -0.0160 -0.8062  0.3698
 7539TIP3   OH244107   2.243   4.594   5.872  0.1792  0.0834 -0.6296
 7539TIP3    H144108   2.258   4.583   5.778 -0.7990  0.7764 -0.8746
 7539TIP3    H244109   2.165   4.543   5.891  1.3829 -1.5487  0.1878
 7540TIP3   OH244110   6.775   3.624  14.188 -0.6926  0.3358  0.0268
 7540TIP3    H144111   6.779   3.701  14.245  0.5295 -0.3989  0.9926
 7540TIP3    H244112   6.864   3.616  14.153 -0.8190 -0.5941 -0.0973
 7541TIP3   OH244113   1.773   5.315   2.375  0.3556 -0.1374 -0.1296
 7541TIP3    H144114   1.681   5.288   2.385  0.2029  0.4491  0.1122
 7541TIP3    H244115   1.795   5.354   2.460  0.4108  0.9263 -0.6125
 7542TIP3   OH244116   5.320   0.645   4.154  0.4521 -0.0580  0.2773
 7542TIP3    H144117   5.302   0.572   4.213  1.5045  0.2498  1.0192
 7542TIP3    H244118   5.243   0.702   4.162 -0.2208 -0.9049 -0.0515
 7543TIP3   OH244119   1.241   1.765   0.004 -0.0763  0.7826  0.7831
 7543TIP3    H144120   1.148   1.755   0.023  0.2779 -1.1213  1.7866
 7543TIP3    H244121   1.275   1.819   0.075 -0.3294  1.1167  0.6517
 7544TIP3   OH244122   2.193   1.936  15.522  0.1365 -0.0102  0.1995
 7544TIP3    H144123   2.228   1.890  15.598 -1.6801  2.0035  2.4226
 7544TIP3    H244124   2.268   1.947  15.463  1.8128 -0.9426  2.0454
 7545TIP3   OH244125   4.173   0.671   0.380  0.4043 -0.4548  0.2303
 7545TIP3    H144126   4.168   0.650   0.474 -0.6327  1.7354  0.7476
 7545TIP3    H244127   4.128   0.599   0.337 -0.4620 -0.7548  1.5716
 7546TIP3   OH244128   3.222   4.545  12.024  0.1822  0.2702 -0.2071
 7546TIP3    H144129   3.132   4.563  11.996 -0.1502  0.0199  0.6796
 7546TIP3    H244130   3.275   4.610  11.977 -0.4067  0.1631 -1.0449
 7547TIP3   OH244131   2.477   3.891   5.207 -0.2264  0.3275 -0.2268
 7547TIP3    H144132   2.411   3.849   5.153  0.5650 -1.3268  0.0260
 7547TIP3    H244133   2.450   3.873   5.297  0.6281 -0.5259 -0.1208
 7548TIP3   OH244134   0.634   3.738   3.904  0.4220  0.3251  0.5687
 7548TIP3    H144135   0.629   3.656   3.853 -1.4863 -0.4021  1.8023
 7548TIP3    H244136   0.675   3.712   3.986  2.1292  1.1889  0.0314
 7549TIP3   OH244137   5.092   3.098  15.052 -0.2547  0.3811  0.0337
 7549TIP3    H144138   5.003   3.075  15.026 -0.2805  0.7066 -0.1638
 7549TIP3    H244139   5.092   3.193  15.059  0.3257  0.4643 -0.9006
 7550TIP3   OH244140   2.595   3.449   4.025 -0.3170 -0.3398  0.2595
 7550TIP3    H144141   2.671   3.504   4.003 -1.0115 -0.0061 -1.5401
 7550TIP3    H244142   2.533   3.509   4.066 -0.5475 -0.0352 -0.5034
 7551TIP3   OH244143   6.292   5.841   3.919 -0.3472  0.0370  0.5113
 7551TIP3    H144144   6.344   5.912   3.881  0.8636 -0.2811  1.5206
 7551TIP3    H244145   6.201   5.869   3.907  0.1066  2.0054  1.3328
 7552TIP3   OH244146   2.820   4.139  14.097 -0.0096  0.0608 -0.2335
 7552TIP3    H144147   2.737   4.100  14.123  1.0527 -0.8232  2.1210
 7552TIP3    H244148   2.847   4.089  14.019 -0.8794 -0.7445 -0.0315
 7553TIP3   OH244149   6.503   3.854   6.180  0.3850  0.0455  0.2433
 7553TIP3    H144150   6.498   3.773   6.130 -1.3888  0.9802 -1.2417
 7553TIP3    H244151   6.527   3.826   6.269  0.0820 -2.0584 -0.2771
 7554TIP3   OH244152   1.197   5.358   0.950 -0.1537 -0.2834 -0.5278
 7554TIP3    H144153   1.227   5.268   0.962 -1.8633 -0.9258 -0.7863
 7554TIP3    H244154   1.160   5.359   0.862  1.4441  1.1782 -1.2268
 7555TIP3   OH244155   1.546   5.083   5.852  0.1465 -0.0063 -0.0286
 7555TIP3    H144156   1.502   5.065   5.769 -1.3089  0.5244  0.6047
 7555TIP3    H244157   1.557   5.178   5.854  0.9853 -0.0954  0.0042
 7556TIP3   OH244158   2.886   2.338   1.616  0.3892 -0.1887 -0.1668
 7556TIP3    H144159   2.929   2.286   1.548 -2.3603 -1.9816 -0.6585
 7556TIP3    H244160   2.889   2.283   1.694 -1.7960 -0.8114 -0.4702
 7557TIP3   OH244161   6.258   1.501  10.876 -0.2060  0.1178 -0.2215
 7557TIP3    H144162   6.232   1.592  10.889 -1.9934 -0.5342  1.1506
 7557TIP3    H244163   6.344   1.493  10.917 -0.7637  0.8214  1.1199
 7558TIP3   OH244164   2.890   0.912   1.282 -0.2875  0.4141  0.2685
 7558TIP3    H144165   2.977   0.875   1.271 -1.1651 -1.3237 -1.3446
 7558TIP3    H244166   2.900   1.005   1.261  1.8769  1.2035  3.9452
 7559TIP3   OH244167   2.020   0.706   2.288  0.1488  0.1860  1.0195
 7559TIP3    H144168   2.002   0.651   2.365 -1.5349  0.0335  0.5728
 7559TIP3    H244169   1.954   0.776   2.294  0.9116  0.9785  0.4504
 7560TIP3   OH244170   6.174   1.087   0.409 -0.4081 -0.3078  0.1822
 7560TIP3    H144171   6.262   1.057   0.386 -0.6942 -0.3960 -0.8480
 7560TIP3    H244172   6.145   1.136   0.333  1.0389  5.0888  2.5884
 7561TIP3   OH244173   5.068   3.170  12.308 -0.5291  0.5029  0.4351
 7561TIP3    H144174   5.105   3.088  12.275 -2.2278 -0.3496  0.5446
 7561TIP3    H244175   5.044   3.218  12.229  2.3779  1.8998  0.2892
 7562TIP3   OH244176   4.901   3.974   3.289 -0.1900 -0.3107 -0.0825
 7562TIP3    H144177   4.918   3.904   3.352  2.6715  0.1976 -0.1820
 7562TIP3    H244178   4.884   4.051   3.344  1.5031 -0.0482  0.1211
 7563TIP3   OH244179   4.840   3.544  14.714 -0.1770 -0.2571  0.3349
 7563TIP3    H144180   4.862   3.451  14.703 -0.4837 -0.2700 -0.1954
 7563TIP3    H244181   4.922   3.590  14.702  0.3094 -0.5513  2.1752
 7564TIP3   OH244182   3.180   6.624   1.335  0.3596 -0.6691  0.3529
 7564TIP3    H144183   3.215   6.541   1.302  0.0025 -0.4413 -0.6593
 7564TIP3    H244184   3.129   6.658   1.262  1.2479  0.8955  0.4221
 7565TIP3   OH244185   4.551   1.145   5.957 -0.3052  0.3455 -0.6633
 7565TIP3    H144186   4.642   1.138   5.926 -0.4371  0.3307 -1.0488
 7565TIP3    H244187   4.498   1.141   5.877 -0.6996 -0.6793 -0.3695
 7566TIP3   OH244188   4.477   1.719  17.075  0.2433  0.3189  0.4804
 7566TIP3    H144189   4.552   1.701  17.018  0.0944 -0.5995  0.5524
 7566TIP3    H244190   4.512   1.777  17.143  1.1042 -0.7259  0.9675
 7567TIP3   OH244191   1.851   0.086  14.463  0.2323  0.4080 -0.3304
 7567TIP3    H144192   1.785   0.016  14.462 -0.2620  0.8197  0.6998
 7567TIP3    H244193   1.820   0.149  14.398  1.4587 -0.9614 -2.3396
 7568TIP3   OH244194   1.764   2.901   2.328  0.0976  0.9191  0.3443
 7568TIP3    H144195   1.852   2.874   2.301 -0.4298  0.2961 -0.8035
 7568TIP3    H244196   1.726   2.941   2.250 -1.0305  0.1814  0.4943
 7569TIP3   OH244197   4.266   6.079   3.257 -0.1259  0.0573 -0.3926
 7569TIP3    H144198   4.350   6.033   3.259  0.3166  0.7768 -1.5233
 7569TIP3    H244199   4.202   6.012   3.281  0.7170 -0.6127  0.0672
 7570TIP3   OH244200   4.454   2.131  12.105  0.0012  0.3996  0.1697
 7570TIP3    H144201   4.431   2.159  12.016  0.3944 -0.6127 -0.2728
 7570TIP3    H244202   4.401   2.186  12.162 -1.0714  0.3272 -0.7249
 7571TIP3   OH244203   6.506   1.419   3.180  0.2519 -0.1301 -0.2719
 7571TIP3    H144204   6.477   1.391   3.093  2.3493 -2.0295 -0.4661
 7571TIP3    H244205   6.533   1.510   3.169 -1.6352  0.3681 -1.0251
 7572TIP3   OH244206   5.142   3.712   0.925 -0.3338 -0.6800  0.3901
 7572TIP3    H144207   5.201   3.730   0.997 -0.3952  0.3192  0.1976
 7572TIP3    H244208   5.199   3.691   0.851 -0.1825  0.7008  0.0896
 7573TIP3   OH244209   0.719   4.373   2.708  0.1362 -0.1968 -0.7136
 7573TIP3    H144210   0.637   4.416   2.735  1.6294  1.4445  1.5898
 7573TIP3    H244211   0.707   4.282   2.735 -0.7407  0.1468  0.1617
 7574TIP3   OH244212   0.662   3.464  16.490  0.0202  0.6565 -0.6947
 7574TIP3    H144213   0.704   3.432  16.411  1.8817 -0.6000  0.7128
 7574TIP3    H244214   0.622   3.386  16.529  0.9366  0.8145  0.6347
 7575TIP3   OH244215   5.131   0.033   0.003 -0.4761  0.5087 -0.7123
 7575TIP3    H144216   5.196  -0.023   0.045 -1.6051 -1.5701 -1.5657
 7575TIP3    H244217   5.182   0.100  -0.043  0.8704  1.2385  1.6816
 7576TIP3   OH244218   5.291   0.394   3.064 -0.0502  0.4444 -0.2299
 7576TIP3    H144219   5.218   0.340   3.094  2.9261 -2.5044  2.4033
 7576TIP3    H244220   5.308   0.363   2.975 -0.4080 -0.7046  0.0816
 7577TIP3   OH244221   3.579   2.677   3.705  0.3179 -0.7198 -0.3475
 7577TIP3    H144222   3.673   2.664   3.718  0.1695 -1.7878 -0.3213
 7577TIP3    H244223   3.539   2.648   3.787  0.0416  0.9648  0.1570
 7578TIP3   OH244224   3.736   4.994   1.624 -0.1208 -0.0227  0.2222
 7578TIP3    H144225   3.797   5.068   1.633 -0.7433  0.4568  0.6149
 7578TIP3    H244226   3.652   5.029   1.655 -1.2651  0.1500 -2.7979
 7579TIP3   OH244227   3.925   4.339   2.682 -0.4504 -0.1742 -0.4897
 7579TIP3    H144228   3.984   4.303   2.616 -0.8843 -0.6655 -0.6205
 7579TIP3    H244229   3.909   4.429   2.653 -1.9187 -0.8585 -1.9961
 7580TIP3   OH244230   5.583   5.142   1.338  0.0877  0.1249 -0.2550
 7580TIP3    H144231   5.657   5.140   1.399 -0.4098  0.3030  0.3556
 7580TIP3    H244232   5.588   5.229   1.297  0.1384  0.1871 -0.1170
 7581TIP3   OH244233   1.898   6.365  14.779 -0.2507  0.0372  0.2793
 7581TIP3    H144234   1.811   6.328  14.794 -0.1536 -0.0095  0.7287
 7581TIP3    H244235   1.881   6.442  14.724 -0.5685 -0.0209  0.2926
 7582TIP3   OH244236   1.026   4.981  15.565  0.0666 -0.2662 -0.0016
 7582TIP3    H144237   0.932   5.000  15.558  0.5128  3.0043  1.0478
 7582TIP3    H244238   1.035   4.937  15.650 -0.4928 -0.5205 -0.0686
 7583TIP3   OH244239   1.578   2.887  16.705 -0.1792 -0.3695 -0.7349
 7583TIP3    H144240   1.568   2.917  16.795  0.2938 -1.1170 -0.4262
 7583TIP3    H244241   1.620   2.801  16.712 -2.7563 -1.8131 -1.4764
 7584TIP3   OH244242   3.808   2.639   1.763 -0.2995 -0.1409 -0.5358
 7584TIP3    H144243   3.844   2.639   1.851  1.4918 -0.7791 -1.2181
 7584TIP3    H244244   3.746   2.713   1.762 -0.5427 -0.2877  1.2899
 7585TIP3   OH244245   2.356   2.826  15.090  0.0894  0.1189 -0.3157
 7585TIP3    H144246   2.331   2.734  15.082  1.6240 -0.2992 -0.5908
 7585TIP3    H244247   2.361   2.842  15.185 -0.6458  0.0675 -0.2631
 7586TIP3   OH244248   6.493   6.016   5.636  0.1119 -0.6819  0.5998
 7586TIP3    H144249   6.548   6.094   5.637  0.1253 -0.6620 -0.5842
 7586TIP3    H244250   6.411   6.044   5.675  1.1845 -0.9427  3.2634
 7587TIP3   OH244251   0.021   6.167   1.972 -0.8696 -0.1634 -0.4752
 7587TIP3    H144252   0.050   6.236   1.913  0.4769  0.3502  0.7470
 7587TIP3    H244253   0.102   6.131   2.009 -1.4895 -2.5578 -1.2070
 7588TIP3   OH244254   4.361   3.875  15.741 -0.6573 -0.4740 -0.1849
 7588TIP3    H144255   4.332   3.785  15.755  1.2852 -0.9618  1.0512
 7588TIP3    H244256   4.419   3.870  15.665  1.1132 -0.7142  1.1168
 7589TIP3   OH244257   1.679   6.145  16.799  0.0687  0.0811 -0.3619
 7589TIP3    H144258   1.737   6.078  16.834  1.0249  1.0368 -0.0446
 7589TIP3    H244259   1.597   6.134  16.848 -0.3426 -1.8350 -1.4230
 7590TIP3   OH244260   6.721   1.466   3.623  0.3442  0.0860  0.2836
 7590TIP3    H144261   6.631   1.435   3.635  0.9384 -1.6881  0.4763
 7590TIP3    H244262   6.725   1.494   3.532 -0.6355  1.1009  0.5240
 7591TIP3   OH244263   2.106   6.343  13.426  0.3866 -0.0642 -0.0241
 7591TIP3    H144264   2.028   6.353  13.371  0.7624 -1.1965 -0.7893
 7591TIP3    H244265   2.075   6.299  13.504 -0.2829  2.1524  1.0450
 7592TIP3   OH244266   0.865   3.439   0.098 -0.0595  0.1134  0.2677
 7592TIP3    H144267   0.855   3.361   0.152  0.6906 -0.5348 -0.4927
 7592TIP3    H244268   0.919   3.410   0.025 -0.6215  1.0895 -0.5642
 7593TIP3   OH244269   1.600   4.369   1.578  0.1757 -0.2990  0.1923
 7593TIP3    H144270   1.639   4.420   1.649  1.8175 -0.0240 -0.8665
 7593TIP3    H244271   1.668   4.307   1.552 -0.2393 -0.1490 -1.3775
 7594TIP3   OH244272   2.337   6.629   2.856  0.3224 -0.1862 -0.5030
 7594TIP3    H144273   2.407   6.592   2.910  0.9623 -1.7196 -2.2537
 7594TIP3    H244274   2.345   6.724   2.868  0.7824 -0.4276  1.5805
 7595TIP3   OH244275   5.547   5.396   0.511  0.1890 -0.2462 -0.0466
 7595TIP3    H144276   5.492   5.408   0.434  1.1829  1.7730 -0.5192
 7595TIP3    H244277   5.492   5.351   0.574 -1.3897  0.0997 -1.1355
 7596TIP3   OH244278   4.779   3.926  17.062  0.0961 -0.1691 -0.3324
 7596TIP3    H144279   4.691   3.927  17.099 -0.1813 -0.8081 -0.9599
 7596TIP3    H244280   4.775   3.864  16.989  1.5157 -1.5517  0.7015
 7597TIP3   OH244281   0.293   5.798   5.665  0.1351 -0.6686  0.3427
 7597TIP3    H144282   0.340   5.847   5.598 -1.1303  0.4733  0.2655
 7597TIP3    H244283   0.204   5.790   5.632 -0.3262 -0.7270  1.5442
 7598TIP3   OH244284   6.726   0.771   3.042 -0.1882  0.0455 -0.4199
 7598TIP3    H144285   6.820   0.759   3.054 -0.6090 -3.6280  0.3677
 7598TIP3    H244286   6.694   0.803   3.127  0.3332  1.7445 -0.8269
 7599TIP3   OH244287   2.463   2.358   5.845 -0.4194 -0.4709 -0.7527
 7599TIP3    H144288   2.406   2.306   5.902 -0.8782  0.5135 -0.2858
 7599TIP3    H244289   2.517   2.407   5.906  0.0924 -0.4875 -1.1933
 7600TIP3   OH244290   4.138   1.464   0.084 -0.5296  0.0202  0.2221
 7600TIP3    H144291   4.179   1.519   0.151  0.4363 -0.6813  0.2378
 7600TIP3    H244292   4.201   1.393   0.071 -1.5811 -0.8792 -0.0604
 7601TIP3   OH244293   6.169   3.085   5.974  0.1956 -0.1062  0.2844
 7601TIP3    H144294   6.263   3.099   5.987  1.0256 -4.1614 -0.1611
 7601TIP3    H244295   6.143   3.030   6.047 -1.8626  0.7841  0.2837
 7602TIP3   OH244296   6.535   2.004   5.803 -0.5141  0.0409  0.3061
 7602TIP3    H144297   6.620   2.049   5.797  0.5589 -2.0029 -1.4941
 7602TIP3    H244298   6.480   2.047   5.738 -0.2612  0.2410  0.2216
 7603TIP3   OH244299   5.545   0.057  12.210  0.1311 -0.2453 -0.3463
 7603TIP3    H144300   5.540   0.081  12.302  0.5289  0.0533 -0.3993
 7603TIP3    H244301   5.492   0.122  12.164 -1.8907 -1.6609 -0.1227
 7604TIP3   OH244302   3.824   4.601   1.488  0.1175  0.5841 -0.6880
 7604TIP3    H144303   3.827   4.669   1.421  0.1833  2.0493  0.7507
 7604TIP3    H244304   3.764   4.635   1.554  0.9299 -0.2979  0.5446
 7605TIP3   OH244305   5.158   4.266   2.374  0.2420 -0.3166 -0.1166
 7605TIP3    H144306   5.122   4.320   2.445 -0.2486 -0.6672 -0.0992
 7605TIP3    H244307   5.213   4.327   2.324 -0.9240  0.4116 -0.5618
 7606TIP3   OH244308   0.790   3.497  15.088 -0.1234  0.1441  0.2204
 7606TIP3    H144309   0.766   3.590  15.088  0.3393  0.2774  1.2423
 7606TIP3    H244310   0.710   3.452  15.116 -0.9085  0.0340 -1.9658
 7607TIP3   OH244311   0.057   1.753   0.772 -0.0691  0.0789 -0.3162
 7607TIP3    H144312   0.133   1.699   0.752  0.0919  0.9231 -2.2149
 7607TIP3    H244313   0.092   1.840   0.788 -0.4535 -0.0263  1.2312
 7608TIP3   OH244314   6.497   4.629  14.100 -0.8862  0.3810 -0.2964
 7608TIP3    H144315   6.525   4.695  14.165  0.1459 -0.2724 -0.0547
 7608TIP3    H244316   6.402   4.627  14.108 -0.7389 -0.4593  2.0123
 7609TIP3   OH244317   2.701   0.849  13.086 -0.3985 -0.5324  0.1560
 7609TIP3    H144318   2.736   0.766  13.055  1.2580  0.2751 -0.2446
 7609TIP3    H244319   2.630   0.869  13.025 -0.0412 -1.0787 -0.4469
 7610TIP3   OH244320   6.481   0.519   0.607 -0.1619  0.2355 -0.5378
 7610TIP3    H144321   6.456   0.563   0.689 -1.3657 -0.8084 -0.3019
 7610TIP3    H244322   6.549   0.457   0.633 -1.2678 -0.8348 -0.0877
 7611TIP3   OH244323   3.627   5.899   1.848 -0.1041 -0.3035  0.4640
 7611TIP3    H144324   3.621   5.991   1.824  2.3655  0.1619  1.3884
 7611TIP3    H244325   3.636   5.853   1.764 -0.0469  0.4052  0.0760
 7612TIP3   OH244326   4.314   5.333   5.865 -0.1028  0.2272  0.2151
 7612TIP3    H144327   4.283   5.316   5.954 -0.2249  0.9856  0.3314
 7612TIP3    H244328   4.386   5.396   5.877 -1.7573  2.3359 -0.3675
 7613TIP3   OH244329   4.072   4.940  13.794 -0.8180 -0.0421  0.4549
 7613TIP3    H144330   4.151   4.931  13.848  0.1388 -0.1988 -0.9262
 7613TIP3    H244331   4.000   4.917  13.853  0.3134 -1.7867  1.2447
 7614TIP3   OH244332   2.539   5.224  17.024 -0.1544 -0.4527 -0.3352
 7614TIP3    H144333   2.557   5.186  16.938  0.1168  2.2973 -1.5849
 7614TIP3    H244334   2.626   5.249  17.058 -0.4412  0.7481 -0.4292
 7615TIP3   OH244335   2.756   1.144   3.240  0.7348  0.5902 -0.3253
 7615TIP3    H144336   2.729   1.150   3.331  0.4334 -0.7601 -0.3006
 7615TIP3    H244337   2.680   1.173   3.190  0.9812  1.5607 -0.1623
 7616TIP3   OH244338   1.490   2.093   4.757 -0.5571 -0.3021 -0.3804
 7616TIP3    H144339   1.552   2.104   4.829  0.9508 -1.3180 -1.4824
 7616TIP3    H244340   1.535   2.127   4.680 -2.0268  0.4800 -0.9438
 7617TIP3   OH244341   5.931   2.282  16.079 -0.6181  0.5818 -0.4046
 7617TIP3    H144342   5.982   2.363  16.085 -0.5589  0.9766 -4.0818
 7617TIP3    H244343   5.934   2.258  15.987 -0.2759 -3.9613  0.5447
 7618TIP3   OH244344   5.591   1.650   0.408  0.2061  0.1510  0.2290
 7618TIP3    H144345   5.668   1.594   0.413  0.1992  0.2477  2.0933
 7618TIP3    H244346   5.604   1.702   0.329  1.6965 -0.3205  0.1371
 7619TIP3   OH244347   6.535   0.667  13.557 -0.2110 -0.2927 -0.4194
 7619TIP3    H144348   6.501   0.710  13.479 -1.2314 -0.1570  0.0884
 7619TIP3    H244349   6.629   0.660  13.541 -0.5439 -1.3461 -2.1786
 7620TIP3   OH244350   6.693   2.322  11.152  0.1107 -0.0733 -0.0361
 7620TIP3    H144351   6.611   2.370  11.156 -0.8836 -1.7794  1.3206
 7620TIP3    H244352   6.667   2.230  11.146  1.9377 -0.5436 -1.8351
 7621TIP3   OH244353   5.965   5.413   4.830 -0.6168  0.1855 -0.0154
 7621TIP3    H144354   6.050   5.446   4.860 -0.1645  0.5335 -1.5975
 7621TIP3    H244355   5.933   5.479   4.769 -0.3415 -1.5774 -2.1989
 7622TIP3   OH244356   6.469   3.096   5.477 -0.0956 -0.5225 -0.0956
 7622TIP3    H144357   6.475   3.161   5.408  0.3822 -1.1532 -0.6628
 7622TIP3    H244358   6.541   3.035   5.460 -0.0957 -0.8080  0.8313
 7623TIP3   OH244359   0.684   5.498  17.093  0.3828 -0.0898 -0.4148
 7623TIP3    H144360   0.608   5.516  17.037  0.6238  1.1358 -0.3806
 7623TIP3    H244361   0.700   5.404  17.083 -0.8278 -0.2695 -0.8081
 7624TIP3   OH244362   6.703   6.420  15.578  0.1893  0.1867 -0.0066
 7624TIP3    H144363   6.654   6.365  15.639  0.1282  0.6367  0.3645
 7624TIP3    H244364   6.637   6.477  15.539  0.5140  1.4879  1.2402
 7625TIP3   OH244365   4.527   1.259  15.822  0.6842  0.0813 -0.3264
 7625TIP3    H144366   4.618   1.253  15.794  0.1518  0.0145 -2.2034
 7625TIP3    H244367   4.531   1.277  15.916  2.6221  0.7388 -0.4997
 7626TIP3   OH244368   3.863   3.450  12.329 -0.3029  0.2743 -0.2607
 7626TIP3    H144369   3.857   3.532  12.379 -0.1713  1.5562 -2.2267
 7626TIP3    H244370   3.880   3.383  12.395  1.0137  2.0271  1.2977
 7627TIP3   OH244371   0.997   2.953  15.054  0.1559  0.3177 -0.3520
 7627TIP3    H144372   0.970   3.045  15.056  1.2247  0.6320  0.8737
 7627TIP3    H244373   1.029   2.936  15.143  2.5413 -0.4424 -1.2910
 7628TIP3   OH244374   5.474   6.458   3.075 -0.1711 -0.6717  0.2462
 7628TIP3    H144375   5.534   6.410   3.018  0.4690  0.7124 -0.3062
 7628TIP3    H244376   5.408   6.494   3.015 -2.5459 -3.4023  0.9878
 7629TIP3   OH244377   5.983   6.038   0.243 -0.0760 -0.5147 -0.4675
 7629TIP3    H144378   5.950   5.966   0.297 -0.5529  1.0031  1.3638
 7629TIP3    H244379   5.904   6.082   0.211  0.1858  0.0190 -0.3961
 7630TIP3   OH244380   1.539   6.032   4.967 -0.1522 -0.8529 -0.0644
 7630TIP3    H144381   1.475   6.010   4.900 -1.9595  0.9908  0.9467
 7630TIP3    H244382   1.537   5.959   5.028 -1.1398 -0.9126 -0.1613
 7631TIP3   OH244383   5.645   4.755  14.686 -0.0474 -0.2115  0.1611
 7631TIP3    H144384   5.653   4.850  14.674  1.9481 -0.0482  2.0967
 7631TIP3    H244385   5.722   4.719  14.642  0.0584 -0.7745  0.7987
 7632TIP3   OH244386   4.596   4.558  13.123 -0.2465 -0.1562  0.0499
 7632TIP3    H144387   4.570   4.519  13.040 -2.0825  2.4919 -0.7746
 7632TIP3    H244388   4.530   4.626  13.139  0.8337  0.3676  2.9914
 7633TIP3   OH244389   4.689   5.872  15.528  0.1515 -0.7522  0.5295
 7633TIP3    H144390   4.659   5.944  15.584  1.1882  0.1358 -0.0098
 7633TIP3    H244391   4.620   5.806  15.536 -2.0040  1.1710 -0.6779
 7634TIP3   OH244392   4.143   2.799   1.617  0.2419 -0.4360 -0.2741
 7634TIP3    H144393   4.197   2.720   1.614  0.9353  0.0311 -2.9796
 7634TIP3    H244394   4.057   2.770   1.586 -0.6646 -0.8187  2.3638
 7635TIP3   OH244395   4.364   6.569   0.313  0.5044 -0.2868 -0.5138
 7635TIP3    H144396   4.435   6.574   0.249 -0.6168  2.1288 -1.6600
 7635TIP3    H244397   4.394   6.503   0.375  3.0720 -0.4323 -1.7594
 7636TIP3   OH244398   5.581   5.756  13.249 -0.2581 -0.2200  0.3123
 7636TIP3    H144399   5.566   5.717  13.163  1.0392  0.9637 -0.4997
 7636TIP3    H244400   5.677   5.762  13.257 -0.3439  2.4777  0.4634
 7637TIP3   OH244401   3.258   3.591   3.338 -0.1075 -0.0658 -0.1181
 7637TIP3    H144402   3.331   3.634   3.295  0.8871  0.0133  1.5699
 7637TIP3    H244403   3.228   3.653   3.405 -0.5174 -0.8257  0.4349
 7638TIP3   OH244404   4.427   3.440   2.518 -0.2869 -0.3047 -0.1309
 7638TIP3    H144405   4.354   3.380   2.537 -1.5136  0.6719 -1.5064
 7638TIP3    H244406   4.453   3.418   2.429  0.3856  0.0762 -0.0307
 7639TIP3   OH244407   5.873   1.690   1.526 -0.1051 -0.7339 -0.9141
 7639TIP3    H144408   5.868   1.676   1.431 -1.2593 -0.8048 -0.8605
 7639TIP3    H244409   5.910   1.778   1.534 -1.6102 -0.0149 -1.4950
 7640TIP3   OH244410   0.369   1.619  16.063  0.0489 -0.1823  0.5015
 7640TIP3    H144411   0.452   1.661  16.084 -0.6005  1.1595  0.5065
 7640TIP3    H244412   0.381   1.527  16.088  1.7172 -0.1511 -0.0520
 7641TIP3   OH244413   6.428   5.437   2.924  0.1136  0.2626 -0.1166
 7641TIP3    H144414   6.435   5.446   3.019 -2.4808  0.7193  0.1201
 7641TIP3    H244415   6.369   5.362   2.912 -0.7914  1.1259 -1.3009
 7642TIP3   OH244416   2.133   3.296   5.073  0.6320 -0.1836  0.2369
 7642TIP3    H144417   2.153   3.205   5.093 -1.7761 -0.6975  0.6205
 7642TIP3    H244418   2.051   3.292   5.023 -0.1994  1.7993  1.3257
 7643TIP3   OH244419   3.840   0.232  15.633  0.2386  0.0766 -0.2098
 7643TIP3    H144420   3.857   0.321  15.602 -1.0741  0.4444  0.0842
 7643TIP3    H244421   3.790   0.192  15.562 -0.1499 -0.0602  0.1416
 7644TIP3   OH244422   4.826   1.257   2.044 -0.5489  0.5491 -0.8794
 7644TIP3    H144423   4.780   1.204   2.108 -0.5405  0.4371 -0.9668
 7644TIP3    H244424   4.780   1.341   2.044 -0.2351  0.7299 -0.3486
 7645TIP3   OH244425   6.740   4.631   4.462  0.3027  0.0859  0.2440
 7645TIP3    H144426   6.763   4.724   4.467  1.7936 -0.1730 -0.9810
 7645TIP3    H244427   6.707   4.610   4.550  0.4809  1.6316  0.7103
 7646TIP3   OH244428   0.434   1.465   2.522  0.3187  0.4508  0.4724
 7646TIP3    H144429   0.505   1.440   2.582  0.8235 -1.2364 -0.7751
 7646TIP3    H244430   0.354   1.433   2.564  0.5744  0.0647  0.6669
 7647TIP3   OH244431   6.068   2.755  12.630 -0.2572  0.1776  0.6190
 7647TIP3    H144432   6.030   2.840  12.607 -1.0314  0.0251  1.2995
 7647TIP3    H244433   6.037   2.696  12.561  0.7783  0.5479 -0.1989
 7648TIP3   OH244434   4.085   1.142  12.475  0.6432  0.0432 -0.2400
 7648TIP3    H144435   4.001   1.141  12.430 -0.1816  2.0367  1.1105
 7648TIP3    H244436   4.127   1.224  12.447  2.5152 -1.2592 -1.4669
 7649TIP3   OH244437   1.309   4.246  14.104 -0.3653  0.3648  0.3291
 7649TIP3    H144438   1.353   4.187  14.043  1.1180  0.3385  1.3804
 7649TIP3    H244439   1.316   4.203  14.189 -1.5319  0.8656  0.7019
 7650TIP3   OH244440   3.400   1.657   0.577 -0.1289 -0.8729  0.8462
 7650TIP3    H144441   3.319   1.680   0.621  0.0503  0.5896  0.4884
 7650TIP3    H244442   3.439   1.742   0.554  1.0698 -1.5590  0.2520
 7651TIP3   OH244443   1.225   5.953  16.807  0.3173 -0.1048 -0.3998
 7651TIP3    H144444   1.166   5.881  16.786 -0.9390  0.9735 -0.6921
 7651TIP3    H244445   1.176   6.032  16.785  2.0140  0.8417 -1.0232
 7652TIP3   OH244446   4.597   5.505  16.492 -0.0604 -0.4543  0.1685
 7652TIP3    H144447   4.530   5.488  16.558 -0.9429 -0.2903 -0.6618
 7652TIP3    H244448   4.650   5.425  16.490  2.7526  0.9888  4.1009
 7653TIP3   OH244449   6.535   4.302   4.652 -0.2507 -0.4417 -0.0006
 7653TIP3    H144450   6.580   4.385   4.637 -0.4398 -0.4147 -0.4135
 7653TIP3    H244451   6.458   4.325   4.704  0.6864 -0.6059  1.5203
 7654TIP3   OH244452   0.810   3.937  16.959  0.0338 -0.4841  0.1067
 7654TIP3    H144453   0.833   3.890  16.879  0.2256 -1.8902  0.9342
 7654TIP3    H244454   0.873   3.906  17.024  0.3378  1.1733  0.6506
 7655TIP3   OH244455   3.574   0.880  17.352  0.3044  0.0606  0.2990
 7655TIP3    H144456   3.660   0.918  17.370  0.3387 -0.1687  0.6237
 7655TIP3    H244457   3.566   0.882  17.257  0.2841  0.9390  0.3110
 7656TIP3   OH244458   1.870   2.456   4.478  0.4519 -0.6378 -0.5184
 7656TIP3    H144459   1.798   2.518   4.491  2.5734  1.9015 -0.0232
 7656TIP3    H244460   1.877   2.447   4.383 -0.1533 -0.4911 -0.5859
 7657TIP3   OH244461   6.268   2.922   2.705 -0.2942 -0.6546  0.1993
 7657TIP3    H144462   6.246   2.842   2.753  0.2616 -1.1791 -0.4069
 7657TIP3    H244463   6.363   2.919   2.696 -0.2405  0.2133  0.4061
 7658TIP3   OH244464   2.001   1.979  17.076  0.1368 -0.4818  0.6985
 7658TIP3    H144465   2.043   1.991  16.990 -0.9675 -2.4209 -0.1911
 7658TIP3    H244466   1.931   2.045  17.078 -1.4681 -1.9846 -1.0749
 7659TIP3   OH244467   4.636   0.158   5.498 -0.1752  0.1725 -0.1135
 7659TIP3    H144468   4.640   0.200   5.412 -0.0666 -0.3996 -0.3945
 7659TIP3    H244469   4.553   0.110   5.497  1.1485 -2.2704 -1.0756
 7660TIP3   OH244470   1.087   3.611   0.203 -0.1380  0.4485  0.2548
 7660TIP3    H144471   1.083   3.613   0.299 -0.4452  0.4678  0.2449
 7660TIP3    H244472   1.025   3.542   0.179  0.3436  0.0677  0.0906
 7661TIP3   OH244473   0.936   5.539   1.836 -0.2558  0.2778  0.0382
 7661TIP3    H144474   0.992   5.542   1.758 -0.8010  0.7536 -0.3411
 7661TIP3    H244475   0.977   5.473   1.892  0.1689 -0.0359 -0.6280
 7662TIP3   OH244476   1.535   2.203   1.464 -0.1407  0.1729  0.0063
 7662TIP3    H144477   1.456   2.227   1.415 -1.0567  0.1208  1.4181
 7662TIP3    H244478   1.587   2.153   1.401 -0.7579  1.0530 -1.2558
 7663TIP3   OH244479   5.997   3.150   4.418  0.0189  0.1546 -0.3298
 7663TIP3    H144480   5.993   3.130   4.511 -0.7577  0.3815 -0.3046
 7663TIP3    H244481   6.060   3.088   4.382  0.4435  0.1683  0.3693
 7664TIP3   OH244482   3.380   4.455  11.652  0.0057 -0.1413  0.0472
 7664TIP3    H144483   3.457   4.488  11.607  0.3584 -1.0587 -0.0488
 7664TIP3    H244484   3.349   4.528  11.705 -0.2555  0.8915 -1.4622
 7665TIP3   OH244485   6.081   5.387  10.564 -0.1718  0.0233  0.1043
 7665TIP3    H144486   6.154   5.422  10.513  0.9718 -0.2794  1.4852
 7665TIP3    H244487   6.092   5.424  10.651 -0.3787 -1.7418  0.9328
 7666TIP3   OH244488   2.910   3.032  15.800 -0.4334  0.3334 -0.0753
 7666TIP3    H144489   3.004   3.042  15.782 -0.1803 -0.7379  0.5430
 7666TIP3    H244490   2.889   3.104  15.860  0.1866  0.0869  0.4444
 7667TIP3   OH244491   5.095   4.199   3.121 -0.4430 -0.6442  0.0327
 7667TIP3    H144492   5.179   4.204   3.166 -0.5189  0.0855  0.0962
 7667TIP3    H244493   5.036   4.254   3.173 -1.0000 -1.2391  0.0586
 7668TIP3   OH244494   2.137   5.018  13.834  0.1633  0.0712 -0.7006
 7668TIP3    H144495   2.128   4.933  13.793 -1.6422  0.3549 -0.9400
 7668TIP3    H244496   2.156   5.078  13.762  1.4797 -0.1011 -0.5271
 7669TIP3   OH244497   6.019   0.824  13.696 -0.6155  0.0190 -0.3140
 7669TIP3    H144498   6.078   0.832  13.772 -1.2519  2.3533  0.0097
 7669TIP3    H244499   5.935   0.856  13.728 -1.1398  0.1343 -1.7535
 7670TIP3   OH244500   5.127   1.170   2.350 -0.1301  0.7297  0.4495
 7670TIP3    H144501   5.128   1.236   2.280  2.7168  0.7447  0.3867
 7670TIP3    H244502   5.176   1.210   2.422  1.2939 -1.0933  0.5730
 7671TIP3   OH244503   4.894   2.329  14.406 -0.1378  0.3880 -0.0183
 7671TIP3    H144504   4.955   2.263  14.374  1.2145  2.1453 -1.3542
 7671TIP3    H244505   4.809   2.303  14.371 -0.2437 -2.0998  1.8536
 7672TIP3   OH244506   1.206   0.575  14.959 -0.2925  0.4740 -0.1007
 7672TIP3    H144507   1.114   0.590  14.934 -0.4970 -0.6213 -0.0486
 7672TIP3    H244508   1.217   0.627  15.038 -1.3745 -0.6845  0.8526
 7673TIP3   OH244509   6.254   6.343  13.486 -0.1955  0.1889  0.8075
 7673TIP3    H144510   6.214   6.418  13.442 -1.5796  0.4953  2.4573
 7673TIP3    H244511   6.263   6.371  13.577 -0.4422 -1.5052  1.3902
 7674TIP3   OH244512   3.745   4.981   5.074 -0.0046 -0.2813 -0.2008
 7674TIP3    H144513   3.713   5.062   5.113 -0.9881 -0.7847  0.0587
 7674TIP3    H244514   3.790   4.935   5.145 -0.9983 -0.7735  0.1280
 7675TIP3   OH244515   5.960   5.106   1.144 -0.1686 -0.6310 -0.4612
 7675TIP3    H144516   5.940   5.054   1.221 -0.9521  0.7823  0.3340
 7675TIP3    H244517   5.875   5.136   1.112  0.2784  0.4969 -0.6387
 7676TIP3   OH244518   0.851   3.619  17.210 -0.1568 -0.0673  0.4978
 7676TIP3    H144519   0.915   3.549  17.220 -0.1060 -0.0210  0.4974
 7676TIP3    H244520   0.819   3.610  17.121 -1.3690 -1.1321  1.0022
 7677TIP3   OH244521   0.657   0.970  16.136  0.5925  0.2774  0.0361
 7677TIP3    H144522   0.582   0.964  16.077  1.3895  0.5618 -1.0666
 7677TIP3    H244523   0.732   0.983  16.077  1.6167 -0.8302  1.0304
 7678TIP3   OH244524   6.625   0.675   4.780 -0.2354 -0.7119 -0.5409
 7678TIP3    H144525   6.634   0.745   4.844 -3.3819 -0.1558 -0.5336
 7678TIP3    H244526   6.678   0.703   4.705 -1.3427  1.6990 -0.5213
 7679TIP3   OH244527   2.847   4.633  15.206 -0.0388  0.2464  0.3923
 7679TIP3    H144528   2.920   4.601  15.152 -1.0496  0.6070 -1.2398
 7679TIP3    H244529   2.817   4.556  15.254 -0.9741 -0.8135 -1.7685
 7680TIP3   OH244530   1.866   6.280  13.844 -0.1576  0.5739  0.1903
 7680TIP3    H144531   1.905   6.326  13.918 -2.3885  1.0014  1.1867
 7680TIP3    H244532   1.820   6.206  13.883 -0.5457  0.2306 -0.8763
 7681TIP3   OH244533   1.953   0.129  15.149 -0.4313  0.0861 -0.1326
 7681TIP3    H144534   2.009   0.079  15.090 -0.9294  0.8568 -1.2825
 7681TIP3    H244535   1.962   0.084  15.234 -1.4788 -2.4381 -1.2653
 7682TIP3   OH244536   4.786   3.955   4.350  0.5142  0.3180 -0.0970
 7682TIP3    H144537   4.693   3.979   4.340  0.0025 -1.7859 -0.9496
 7682TIP3    H244538   4.825   3.975   4.265  0.9345  1.3824  0.3213
 7683TIP3   OH244539   4.328   2.334   4.264 -0.5158  0.2093 -0.2438
 7683TIP3    H144540   4.286   2.247   4.264  0.8184 -0.4892 -2.1184
 7683TIP3    H244541   4.258   2.394   4.236 -1.0100 -0.5140 -0.6037
 7684TIP3   OH244542   1.204   3.162   1.810 -0.3561 -0.1413  0.5701
 7684TIP3    H144543   1.299   3.159   1.806 -0.4061 -0.7302 -0.6289
 7684TIP3    H244544   1.178   3.211   1.732 -1.1138 -2.4132 -0.6945
 7685TIP3   OH244545   5.156   4.801   0.948  0.2720  0.2273  0.0616
 7685TIP3    H144546   5.159   4.893   0.973  0.3961  0.0577  0.6813
 7685TIP3    H244547   5.066   4.787   0.918 -0.2518  0.1430  1.5938
 7686TIP3   OH244548   1.045   4.736   3.522 -0.0531 -0.5263 -0.3901
 7686TIP3    H144549   0.992   4.771   3.594  1.0471  0.2462  0.0881
 7686TIP3    H244550   1.072   4.649   3.553  0.4049 -0.2047  0.1614
 7687TIP3   OH244551   2.588   0.417   0.049 -0.2726  0.0430  0.1862
 7687TIP3    H144552   2.679   0.443   0.038  0.2436 -1.5361  0.3641
 7687TIP3    H244553   2.561   0.386  -0.037 -0.7119  0.7103  0.0828
 7688TIP3   OH244554   0.810   1.091  14.457  0.3391 -0.2600 -0.1386
 7688TIP3    H144555   0.763   1.114  14.377 -0.0806  1.3546  0.5328
 7688TIP3    H244556   0.762   1.015  14.492 -1.2010  0.7105 -0.0096
 7689TIP3   OH244557   5.770   2.584  15.722 -0.0465  0.0314 -0.1258
 7689TIP3    H144558   5.829   2.658  15.711  0.2152 -0.0988  0.4008
 7689TIP3    H244559   5.686   2.623  15.747  0.2519  0.1174  0.7586
 7690TIP3   OH244560   2.814   1.843  15.591  0.4719  0.2228  0.5679
 7690TIP3    H144561   2.768   1.814  15.512 -0.6605  2.4848  0.3180
 7690TIP3    H244562   2.905   1.853  15.563  0.3982 -0.5791  0.0069
 7691TIP3   OH244563   4.417   4.837   2.555  0.7597 -0.3571  0.7302
 7691TIP3    H144564   4.444   4.924   2.523 -0.3634 -0.0603  0.5372
 7691TIP3    H244565   4.331   4.852   2.594 -0.4891 -1.7355 -1.2693
 7692TIP3   OH244566   2.293   1.876   0.907  0.2022 -0.0240  0.9202
 7692TIP3    H144567   2.230   1.882   0.835  1.2745 -0.3213 -0.0820
 7692TIP3    H244568   2.242   1.848   0.982 -0.7349 -0.9877 -0.0393
 7693TIP3   OH244569   4.837   6.707  11.519  0.0184  0.2941 -0.0499
 7693TIP3    H144570   4.810   6.749  11.437  1.2581 -0.1611 -0.7303
 7693TIP3    H244571   4.770   6.640  11.534  0.2140 -0.1869 -1.1732
 7694TIP3   OH244572   4.541   4.212  13.511  0.0080  0.3173  0.1518
 7694TIP3    H144573   4.476   4.282  13.512  0.6031  0.8787  0.1208
 7694TIP3    H244574   4.490   4.132  13.524 -0.6883  0.7439  0.1118
 7695TIP3   OH244575   4.740   4.071   1.248  0.1764  0.3788  0.0149
 7695TIP3    H144576   4.662   4.016   1.239  0.9691 -0.7068 -0.4851
 7695TIP3    H244577   4.738   4.102   1.338 -0.7342  0.2144  0.0576
 7696TIP3   OH244578   5.538   3.819   0.453  0.3101 -0.0944  0.3700
 7696TIP3    H144579   5.551   3.913   0.442  2.3714 -0.2422  1.1242
 7696TIP3    H244580   5.443   3.807   0.446  0.1764  1.6519 -2.4664
 7697TIP3   OH244581   4.242   5.489  14.539  0.6752 -0.5750  0.0157
 7697TIP3    H144582   4.203   5.567  14.577  1.7041 -1.2078  2.5438
 7697TIP3    H244583   4.312   5.522  14.482 -0.4418  0.3635 -0.8587
 7698TIP3   OH244584   6.156   1.212   5.931  0.5901 -0.2295  0.0573
 7698TIP3    H144585   6.065   1.239   5.919  1.3442  2.9190  0.3979
 7698TIP3    H244586   6.167   1.209   6.026  1.1838  1.0097  0.0531
 7699TIP3   OH244587   1.783   5.764   3.894  0.1460  0.0179 -0.0136
 7699TIP3    H144588   1.719   5.778   3.964  1.8048 -1.2641  1.9023
 7699TIP3    H244589   1.760   5.828   3.827 -0.9043  2.0775  2.1665
 7700TIP3   OH244590   4.313   6.016  14.914  0.1401  0.1998  0.1211
 7700TIP3    H144591   4.228   5.974  14.928  1.1061 -1.3468  1.8098
 7700TIP3    H244592   4.307   6.099  14.961 -0.4662  0.1430  0.1581
 7701TIP3   OH244593   1.670   3.211  14.541 -0.0203 -0.4249  0.0079
 7701TIP3    H144594   1.723   3.284  14.510 -2.8837  2.0364  0.4441
 7701TIP3    H244595   1.730   3.156  14.590  2.3953  1.2810 -0.8787
 7702TIP3   OH244596   4.477   2.025  13.068  0.2714 -0.5029 -0.0623
 7702TIP3    H144597   4.481   2.027  12.973  0.4193 -3.8956 -0.2536
 7702TIP3    H244598   4.556   1.977  13.094  0.6622  1.0733  1.8524
 7703TIP3   OH244599   3.682   1.221   4.242  0.1478 -0.7459 -0.3968
 7703TIP3    H144600   3.754   1.234   4.303  0.0374 -1.7622 -0.0314
 7703TIP3    H244601   3.611   1.186   4.296 -0.8014  0.6592 -0.6562
 7704TIP3   OH244602   1.152   5.266  14.886 -0.0146 -0.0496 -0.3115
 7704TIP3    H144603   1.058   5.285  14.878 -0.5516 -2.1380  0.6020
 7704TIP3    H244604   1.166   5.250  14.979  0.6250 -2.5606 -0.7738
 7705TIP3   OH244605   4.662   4.052  15.351 -0.2419 -0.2326 -0.8399
 7705TIP3    H144606   4.745   4.062  15.397 -1.3434 -0.4205  1.2835
 7705TIP3    H244607   4.627   4.141  15.345 -0.4422 -0.2956 -0.6267
 7706TIP3   OH244608   5.261   2.467   6.325  0.6190  0.1749 -0.4209
 7706TIP3    H144609   5.259   2.457   6.420  1.4056  0.5640 -0.3469
 7706TIP3    H244610   5.194   2.407   6.292  0.5332 -0.1663  0.3619
 7707TIP3   OH244611   3.058   5.824   0.682 -0.2948  0.9629 -0.0374
 7707TIP3    H144612   2.965   5.817   0.705 -0.2346 -1.1116 -0.2755
 7707TIP3    H244613   3.105   5.797   0.761 -0.0076 -1.3985 -0.9316
 7708TIP3   OH244614   3.444   4.791   6.431 -0.2074 -0.2255  0.3051
 7708TIP3    H144615   3.525   4.836   6.458 -0.2238  0.1028 -0.1864
 7708TIP3    H244616   3.395   4.857   6.382 -1.0166 -0.2601  1.0384
 7709TIP3   OH244617   0.338   2.643  13.967 -0.3099 -0.3854  0.1743
 7709TIP3    H144618   0.419   2.594  13.985  0.0199  0.1934  0.3046
 7709TIP3    H244619   0.270   2.577  13.965 -0.1009 -0.6892  1.8543
 7710TIP3   OH244620   1.587   0.721  13.473 -0.0865 -0.5080  0.1914
 7710TIP3    H144621   1.522   0.680  13.418 -2.5831  0.9108  1.8685
 7710TIP3    H244622   1.602   0.807  13.434  0.6191 -0.7306 -0.0471
 7711TIP3   OH244623   0.718   6.329  15.733  0.1541 -0.5159  0.2744
 7711TIP3    H144624   0.709   6.415  15.774 -0.7208 -0.2444 -0.4376
 7711TIP3    H244625   0.664   6.271  15.787  0.6999 -0.6169  0.7221
 7712TIP3   OH244626   4.467   3.085  15.344 -0.6526 -0.2541  0.1440
 7712TIP3    H144627   4.558   3.057  15.348 -0.6356 -0.2872 -0.5106
 7712TIP3    H244628   4.459   3.148  15.416 -0.0785 -0.1370  0.1093
 7713TIP3   OH244629   3.535   0.099   1.259 -0.2449 -0.2614 -0.1652
 7713TIP3    H144630   3.454   0.140   1.229 -0.6380 -1.1447 -0.3611
 7713TIP3    H244631   3.563   0.152   1.334 -0.5413  0.5527 -0.6251
 7714TIP3   OH244632   2.577   2.800  15.690  0.5442  0.1066 -0.3158
 7714TIP3    H144633   2.523   2.874  15.661  1.3469  0.7554 -0.1940
 7714TIP3    H244634   2.514   2.731  15.710 -0.1575  0.2653 -1.7892
 7715TIP3   OH244635   6.488   0.115   5.750 -0.2729  0.5688  0.1291
 7715TIP3    H144636   6.565   0.147   5.796 -1.0517  2.3046  0.2940
 7715TIP3    H244637   6.416   0.167   5.785 -1.3068 -0.0280 -1.0395
 7716TIP3   OH244638   4.009   4.826  12.970  0.3961  0.1281 -0.0726
 7716TIP3    H144639   4.061   4.906  12.972 -0.5774  0.8142 -0.9114
 7716TIP3    H244640   3.996   4.803  13.061  2.0664 -0.0039  0.1581
 7717TIP3   OH244641   1.290   5.997  16.360 -0.2400  0.3913 -0.0967
 7717TIP3    H144642   1.335   6.048  16.428 -1.1571  1.4717 -0.2633
 7717TIP3    H244643   1.245   5.927  16.408  1.6775 -0.7881  0.0580
 7718TIP3   OH244644   2.565   0.371  15.259  0.0864 -0.1867  0.0449
 7718TIP3    H144645   2.603   0.307  15.319  0.5287 -0.3394 -0.3908
 7718TIP3    H244646   2.594   0.455  15.292  0.0847 -0.2511  0.2138
 7719TIP3   OH244647   6.478   2.498   3.719  0.0850 -0.1287  0.4219
 7719TIP3    H144648   6.423   2.576   3.714 -0.9661 -0.8372  0.6734
 7719TIP3    H244649   6.449   2.452   3.797 -0.0560 -1.3148 -0.2957
 7720TIP3   OH244650   2.501   5.661  11.479  0.1925 -0.3983 -0.6872
 7720TIP3    H144651   2.511   5.681  11.572  1.4354 -0.1038 -0.8662
 7720TIP3    H244652   2.526   5.741  11.434 -0.6341 -0.4621 -1.2858
 7721TIP3   OH244653   6.461   1.258  14.487 -0.4642  0.2835  0.4924
 7721TIP3    H144654   6.556   1.262  14.480 -0.5643 -0.2070 -2.4101
 7721TIP3    H244655   6.440   1.165  14.478 -1.2740  0.5772 -0.9128
 7722TIP3   OH244656   2.832   1.213   1.930  0.4099 -0.3472  0.2642
 7722TIP3    H144657   2.883   1.262   1.866  1.0713 -1.1451  0.1624
 7722TIP3    H244658   2.818   1.275   2.002  0.5891  0.2196 -0.1833
 7723TIP3   OH244659   0.042   0.549  10.854 -0.1645 -0.4212 -0.2034
 7723TIP3    H144660   0.111   0.484  10.869 -0.3947 -0.0489  3.2758
 7723TIP3    H244661  -0.030   0.521  10.911 -1.4470  1.2490 -0.9080
 7724TIP3   OH244662   1.125   3.592  13.852 -0.0249  0.6922 -0.5202
 7724TIP3    H144663   1.100   3.638  13.772  0.7792  2.3310  0.1103
 7724TIP3    H244664   1.081   3.641  13.922  0.0352 -0.1349  0.1127
 7725TIP3   OH244665   2.459   2.400  16.504  0.4325  0.3867 -0.0804
 7725TIP3    H144666   2.458   2.467  16.573  2.3409 -0.9867  1.3952
 7725TIP3    H244667   2.544   2.409  16.462  0.5841 -0.8631 -0.0874
 7726TIP3   OH244668   5.318   3.658   2.492 -0.0272  0.3721 -0.2459
 7726TIP3    H144669   5.285   3.576   2.531 -0.0518 -0.3559 -1.7033
 7726TIP3    H244670   5.406   3.636   2.461  0.0412  0.9609 -0.4816
 7727TIP3   OH244671   3.410   6.199   5.010  0.5768  0.3155 -0.1827
 7727TIP3    H144672   3.353   6.122   5.003  0.2316  0.5015  0.5251
 7727TIP3    H244673   3.433   6.219   4.919  1.9804 -1.5851 -0.3017
 7728TIP3   OH244674   4.203   2.765   5.117  0.3227 -0.1399 -0.4385
 7728TIP3    H144675   4.108   2.751   5.111  0.3052 -1.0440  1.2526
 7728TIP3    H244676   4.212   2.845   5.169  0.4818 -0.3453 -0.1484
 7729TIP3   OH244677   5.675   4.599  16.456  0.3062 -0.2529 -0.2276
 7729TIP3    H144678   5.710   4.673  16.506 -0.2859  0.2418 -0.5159
 7729TIP3    H244679   5.592   4.632  16.422 -0.3191 -1.3003  0.2407
 7730TIP3   OH244680   2.202   5.956  13.594  0.3394 -0.3373 -0.5003
 7730TIP3    H144681   2.233   5.893  13.529  1.9468 -2.2213  1.9076
 7730TIP3    H244682   2.139   5.907  13.647 -1.5101  1.3771 -0.9580
 7731TIP3   OH244683   1.864   1.762  13.388  0.0644 -0.0764  0.6595
 7731TIP3    H144684   1.772   1.779  13.365 -0.0038 -0.1440  0.8805
 7731TIP3    H244685   1.907   1.745  13.304  0.1023  1.0186  0.4341
 7732TIP3   OH244686   2.683   1.182   5.955 -0.4528  0.3267  0.4380
 7732TIP3    H144687   2.761   1.236   5.947 -1.0119  1.0310 -0.3833
 7732TIP3    H244688   2.668   1.147   5.867 -1.7328  1.1740  0.2858
 7733TIP3   OH244689   5.904   4.083  13.113 -0.5300 -0.3775  0.2394
 7733TIP3    H144690   5.973   4.017  13.109 -1.3789 -1.3335  0.6038
 7733TIP3    H244691   5.843   4.048  13.179 -0.1517  1.6255  1.7273
 7734TIP3   OH244692   2.237   0.153   4.952 -0.0505 -0.2667 -0.3131
 7734TIP3    H144693   2.235   0.249   4.944  1.0385 -0.2882 -0.9202
 7734TIP3    H244694   2.220   0.122   4.863  1.0302 -0.6234 -0.3959
 7735TIP3   OH244695   3.941   3.308   3.923 -0.2090 -0.0323  0.7879
 7735TIP3    H144696   3.857   3.322   3.969  0.7447  0.0926  2.5879
 7735TIP3    H244697   3.965   3.394   3.889  0.4519  0.5428  2.5943
 7736TIP3   OH244698   4.998   4.793   4.966  0.5639  0.5150 -0.9235
 7736TIP3    H144699   5.080   4.746   4.982  0.9043  0.8511 -1.6255
 7736TIP3    H244700   4.993   4.859   5.035 -0.0831 -0.7341  0.2779
 7737TIP3   OH244701   0.712   3.495   2.999  0.2978 -0.1475 -0.0859
 7737TIP3    H144702   0.713   3.399   3.003 -2.1556 -0.1820  1.4344
 7737TIP3    H244703   0.696   3.522   3.089 -0.5917  1.6247 -0.7440
 7738TIP3   OH244704   4.959   3.989   1.103 -0.2510 -0.0294  0.2822
 7738TIP3    H144705   4.888   4.023   1.157 -0.8926  0.0681 -0.6102
 7738TIP3    H244706   4.942   3.895   1.097 -0.2483 -0.0231  0.1631
 7739TIP3   OH244707   6.128   2.301  14.571 -0.3962  0.2634  0.0722
 7739TIP3    H144708   6.102   2.250  14.494  1.6466 -1.1955  0.2797
 7739TIP3    H244709   6.203   2.254  14.607  0.0954  2.1533  1.6804
 7740TIP3   OH244710   2.229   4.032   1.782 -1.0074  0.0831  0.4230
 7740TIP3    H144711   2.251   3.939   1.791  3.0258  0.9478  1.8379
 7740TIP3    H244712   2.236   4.066   1.871  0.7795  2.1998 -0.4292
 7741TIP3   OH244713   1.351   0.105  15.008  0.2560  0.0607  0.0470
 7741TIP3    H144714   1.336   0.065  15.094 -4.0500  0.7673 -0.1793
 7741TIP3    H244715   1.377   0.032  14.952 -1.2362 -1.2800  1.0221
 7742TIP3   OH244716   0.811   6.672   1.845 -0.8405  0.5379  0.3077
 7742TIP3    H144717   0.751   6.682   1.920 -0.1706  1.5991  0.7248
 7742TIP3    H244718   0.898   6.664   1.885 -0.5560  0.3761 -0.3374
 7743TIP3   OH244719   4.315   3.858   3.293  0.0362  0.1249 -0.3978
 7743TIP3    H144720   4.407   3.837   3.275  0.6137  1.4755  0.7336
 7743TIP3    H244721   4.309   3.952   3.276 -1.3195 -0.0520 -1.0467
 7744TIP3   OH244722   2.580   3.011   0.913 -0.8401  0.6355  0.3311
 7744TIP3    H144723   2.661   3.016   0.964 -1.8470  1.8816  1.9306
 7744TIP3    H244724   2.576   2.920   0.884  1.9319  0.9053 -1.2725
 7745TIP3   OH244725   2.971   2.198   1.381  0.0148 -0.3004  0.0596
 7745TIP3    H144726   3.051   2.211   1.329  0.1290 -2.1651 -0.3064
 7745TIP3    H244727   2.949   2.106   1.368 -1.5230 -0.1206  1.1431
 7746TIP3   OH244728   4.192   4.228  15.108 -0.1168 -0.0595  0.4261
 7746TIP3    H144729   4.127   4.296  15.094 -1.6813 -1.6250 -0.2556
 7746TIP3    H244730   4.150   4.164  15.165  0.5096 -1.4640 -0.5967
 7747TIP3   OH244731   0.097   0.588   4.697 -0.6867 -0.0045  0.0706
 7747TIP3    H144732   0.139   0.673   4.709 -1.8289  0.6566 -0.4823
 7747TIP3    H244733   0.169   0.527   4.681  0.0458  1.2656 -1.8403
 7748TIP3   OH244734   4.117   4.326  11.040 -0.2096  0.3403 -0.3393
 7748TIP3    H144735   4.105   4.240  10.999 -2.4012  0.2579  0.3421
 7748TIP3    H244736   4.116   4.388  10.966  2.2087 -0.2190 -0.9117
 7749TIP3   OH244737   3.184   4.777  12.620  0.3331 -0.1495 -0.4006
 7749TIP3    H144738   3.151   4.834  12.551 -0.4455  0.3826  0.3892
 7749TIP3    H244739   3.274   4.757  12.594 -0.2656 -0.8132 -2.0897
 7750TIP3   OH244740   6.432   0.322  15.516  0.0724  0.6187  0.1140
 7750TIP3    H144741   6.404   0.347  15.428  1.3753 -0.4185 -0.6300
 7750TIP3    H244742   6.436   0.226  15.513 -0.7126  0.5065  1.5842
 7751TIP3   OH244743   2.884   6.644   5.471 -0.1579  0.4539  0.5261
 7751TIP3    H144744   2.788   6.638   5.467 -0.0485 -2.8751 -2.0928
 7751TIP3    H244745   2.909   6.582   5.540  0.0978 -0.4485 -0.3472
 7752TIP3   OH244746   6.390   2.732   5.892 -0.0217 -0.2850  0.2690
 7752TIP3    H144747   6.351   2.715   5.806  1.7436 -1.4660 -0.3634
 7752TIP3    H244748   6.327   2.696   5.954  0.0034 -2.1245 -0.7002
 7753TIP3   OH244749   1.289   2.272  16.219 -0.3291 -0.1175 -0.4023
 7753TIP3    H144750   1.224   2.207  16.190 -0.5632 -1.1775  2.2590
 7753TIP3    H244751   1.237   2.341  16.259  0.0365  0.9057 -1.6290
 7754TIP3   OH244752   5.600   6.774  13.211 -0.5077  0.0722 -0.1986
 7754TIP3    H144753   5.511   6.740  13.202 -0.6165  0.7986 -2.4894
 7754TIP3    H244754   5.651   6.723  13.148  0.1546  1.3628 -0.7325
 7755TIP3   OH244755   4.051   1.112   3.135 -0.2994 -0.1698  0.4771
 7755TIP3    H144756   4.094   1.168   3.200 -1.0461  0.6741  0.2794
 7755TIP3    H244757   3.958   1.135   3.142 -0.1982  1.6561 -2.4299
 7756TIP3   OH244758   5.174   0.278   1.514 -0.1209 -0.0328  0.4204
 7756TIP3    H144759   5.119   0.258   1.590 -0.2930  0.2322  0.3638
 7756TIP3    H244760   5.112   0.288   1.442  0.0137  0.1011  0.3236
 7757TIP3   OH244761   2.843   1.582  17.172 -0.7581  0.0145  0.2333
 7757TIP3    H144762   2.756   1.608  17.205 -0.0379  1.7443  0.9064
 7757TIP3    H244763   2.866   1.506  17.225 -1.8923 -0.5143 -0.0033
 7758TIP3   OH244764   3.428   3.893   0.415  0.2952 -0.1994  0.5023
 7758TIP3    H144765   3.420   3.885   0.320 -1.7841  0.0756  0.6116
 7758TIP3    H244766   3.458   3.807   0.445 -0.9602 -0.9174 -0.2393
 7759TIP3   OH244767   2.039   3.522   0.122  0.4142 -0.4015  0.5703
 7759TIP3    H144768   2.095   3.600   0.126  0.6062 -0.4725 -0.3782
 7759TIP3    H244769   1.955   3.555   0.089  0.2009 -0.4552  1.0504
 7760TIP3   OH244770   6.779   0.941   3.628 -0.0086  0.1260 -0.4425
 7760TIP3    H144771   6.785   0.966   3.536  0.4778  0.9590 -0.1994
 7760TIP3    H244772   6.760   1.024   3.673 -1.1591 -0.4205  0.1176
 7761TIP3   OH244773   1.895   4.068   5.235  0.2007 -0.3723  0.1605
 7761TIP3    H144774   1.894   3.978   5.200  2.1394  0.6819 -3.0243
 7761TIP3    H244775   1.804   4.095   5.232 -0.2659 -1.8326 -0.0037
 7762TIP3   OH244776   5.920   2.305   3.577  0.2392 -0.2315 -0.3453
 7762TIP3    H144777   5.944   2.248   3.650  0.1099 -0.7568 -0.7023
 7762TIP3    H244778   5.865   2.249   3.521  0.4878  0.1057 -0.9354
 7763TIP3   OH244779   4.067   6.600  16.771  0.1099  0.2083  0.5760
 7763TIP3    H144780   4.054   6.630  16.681  1.1813 -0.7105  0.0798
 7763TIP3    H244781   4.055   6.678  16.825  0.5854  1.0291 -0.4663
 7764TIP3   OH244782   6.794   5.339  11.456  0.6188  0.2159  0.6442
 7764TIP3    H144783   6.843   5.419  11.477  0.9773  0.1535  0.0813
 7764TIP3    H244784   6.840   5.302  11.381 -1.7952  1.5664 -1.6882
 7765TIP3   OH244785   0.271   1.447   6.225  0.0197  0.0331 -0.0778
 7765TIP3    H144786   0.288   1.387   6.298  2.0901  0.3294 -0.2463
 7765TIP3    H244787   0.242   1.390   6.153 -0.3841 -0.4686  0.4764
 7766TIP3   OH244788   3.003   2.365  14.073 -0.1443  0.2908 -0.9486
 7766TIP3    H144789   2.930   2.376  14.013 -0.8589 -1.0134 -0.3852
 7766TIP3    H244790   3.022   2.271  14.070  0.9777  0.4910 -0.4876
 7767TIP3   OH244791   6.743   3.940  10.507  0.5748 -0.3391  0.5588
 7767TIP3    H144792   6.712   3.850  10.496 -0.3723 -0.0737  0.9771
 7767TIP3    H244793   6.673   3.994  10.470  0.7741  0.2547  1.0343
 7768TIP3   OH244794   2.099   1.534  13.148  0.6680  0.1292  0.3029
 7768TIP3    H144795   2.077   1.625  13.167  0.6310  0.3230 -0.5903
 7768TIP3    H244796   2.032   1.482  13.192  0.9973  0.5033  1.2595
 7769TIP3   OH244797   0.671   0.722  15.629 -0.0382 -0.2298  0.0527
 7769TIP3    H144798   0.685   0.780  15.704 -0.8987  2.1826 -1.5358
 7769TIP3    H244799   0.580   0.737  15.604  0.0679 -1.4067 -1.1455
 7770TIP3   OH244800   3.738   2.664  17.069 -0.4102 -0.1001  0.2494
 7770TIP3    H144801   3.778   2.749  17.053  1.4656 -0.6217  1.6625
 7770TIP3    H244802   3.767   2.641  17.158 -0.4373 -2.4051 -0.2669
 7771TIP3   OH244803   5.330   5.479   1.032  0.6024  0.2152  0.1024
 7771TIP3    H144804   5.253   5.466   0.976 -0.6920  1.4755  1.4991
 7771TIP3    H244805   5.395   5.518   0.974 -0.4196  0.7362 -0.7277
 7772TIP3   OH244806   5.001   3.968   0.347 -0.0103  0.0579 -0.2098
 7772TIP3    H144807   5.012   4.024   0.423 -3.3344  2.4411 -1.2397
 7772TIP3    H244808   4.911   3.937   0.353  0.7984 -2.8460 -1.2826
 7773TIP3   OH244809   6.482   4.324   6.041  0.4786 -0.1086 -0.3339
 7773TIP3    H144810   6.506   4.319   6.133 -0.9010 -0.0993  0.0509
 7773TIP3    H244811   6.418   4.253   6.029 -0.1432  0.5535 -1.0167
 7774TIP3   OH244812   2.642   0.129  16.715  0.3140 -0.0455  0.1759
 7774TIP3    H144813   2.712   0.192  16.733 -1.6912  1.8541  1.7489
 7774TIP3    H244814   2.592   0.169  16.643 -0.2034 -0.4913  0.2823
 7775TIP3   OH244815   5.060   2.721  17.327 -0.2126 -0.7510 -0.1362
 7775TIP3    H144816   5.000   2.752  17.394  0.3543 -1.2249  0.6024
 7775TIP3    H244817   5.112   2.653  17.370  2.6625  1.3857  0.1007
 7776TIP3   OH244818   6.508   6.699   0.037  0.1713  0.6416 -0.2300
 7776TIP3    H144819   6.450   6.751   0.093 -0.0939  0.6630 -0.5185
 7776TIP3    H244820   6.557   6.643   0.097 -0.5074  0.2672 -0.0223
 7777TIP3   OH244821   4.872   3.700   2.868 -0.0693 -0.2186  0.1120
 7777TIP3    H144822   4.940   3.762   2.839 -0.8432  1.6955  2.0999
 7777TIP3    H244823   4.830   3.744   2.942 -1.7659 -2.4843  0.5900
 7778TIP3   OH244824   6.733   4.407  15.520 -0.4593  0.6457  0.4429
 7778TIP3    H144825   6.780   4.403  15.436  0.8053 -2.0694  1.1694
 7778TIP3    H244826   6.791   4.456  15.578 -0.0900  0.2711  0.3997
 7779TIP3   OH244827   0.340   3.964  16.600 -0.0404 -0.1875  0.5435
 7779TIP3    H144828   0.287   3.917  16.665  0.7419 -1.5273  0.2420
 7779TIP3    H244829   0.428   3.965  16.637  0.4076 -0.9423 -0.4611
 7780TIP3   OH244830   2.228   4.844  15.076  0.2316  0.1993 -0.3656
 7780TIP3    H144831   2.277   4.797  15.009  0.2227 -0.3001 -0.0227
 7780TIP3    H244832   2.291   4.905  15.114  1.0900 -1.5993  1.2447
 7781TIP3   OH244833   4.215   4.024  14.829 -0.0720  0.3418 -0.0999
 7781TIP3    H144834   4.246   4.000  14.916  0.0475 -0.1159 -0.2691
 7781TIP3    H244835   4.121   4.011  14.833 -0.1384  0.8328  0.1208
 7782TIP3   OH244836   2.520   1.474   0.180  0.3901  0.2343 -0.1183
 7782TIP3    H144837   2.614   1.490   0.187  0.4813  1.0146 -2.3202
 7782TIP3    H244838   2.502   1.406   0.245  1.9474  1.9283  2.2904
 7783TIP3   OH244839   6.195   6.382  10.911  0.4421 -0.2439 -0.1971
 7783TIP3    H144840   6.287   6.408  10.904  0.1192  0.9039 -0.4303
 7783TIP3    H244841   6.148   6.443  10.854 -0.4606 -0.8562 -0.1347
 7784TIP3   OH244842   3.158   0.899  11.631  0.2114  0.4654 -0.1080
 7784TIP3    H144843   3.091   0.840  11.664  0.2956  0.3649 -0.1158
 7784TIP3    H244844   3.125   0.927  11.545  0.5371 -0.1830 -0.4456
 7785TIP3   OH244845   1.241   1.771   0.538 -0.0739  0.1085  0.0299
 7785TIP3    H144846   1.148   1.775   0.563  0.0477  1.0301  0.4038
 7785TIP3    H244847   1.241   1.732   0.451 -0.9054  0.9737 -0.3837
 7786TIP3   OH244848   4.248   2.406  12.983  0.1964  0.8011  0.1055
 7786TIP3    H144849   4.297   2.453  13.050  0.5234  3.1680 -1.6425
 7786TIP3    H244850   4.156   2.421  13.006  0.1969 -1.4357  1.9205
 7787TIP3   OH244851   4.680   6.785   2.282 -0.1490  0.3058 -0.1653
 7787TIP3    H144852   4.669   6.723   2.354  0.2696 -1.1148 -1.2760
 7787TIP3    H244853   4.598   6.835   2.281 -0.2142  0.2560  1.1860
 7788TIP3   OH244854   5.238   6.198  13.951 -0.1319  0.5741  0.2979
 7788TIP3    H144855   5.158   6.249  13.943  0.0980  0.8073 -0.5827
 7788TIP3    H244856   5.308   6.263  13.953  0.0538  0.3662  0.9178
 7789TIP3   OH244857   5.362   5.291  11.041 -0.3862 -0.4201 -0.1471
 7789TIP3    H144858   5.287   5.245  11.004 -0.7110  0.1736 -0.2391
 7789TIP3    H244859   5.333   5.382  11.049  0.8337  0.1522 -1.6847
 7790TIP3   OH244860   6.091   6.111  11.356  0.5489 -0.8633  0.4033
 7790TIP3    H144861   6.010   6.161  11.347  1.3524  0.3374 -0.6456
 7790TIP3    H244862   6.131   6.115  11.269  1.9521 -0.9880  1.0144
 7791TIP3   OH244863   2.383   1.941   2.791  0.0525 -0.1622  0.3327
 7791TIP3    H144864   2.338   1.969   2.712  0.7603  0.5090  0.1550
 7791TIP3    H244865   2.405   2.022   2.836  1.4857 -0.4308  0.1807
 7792TIP3   OH244866   5.160   6.381   4.660  0.7563 -0.2473 -0.0657
 7792TIP3    H144867   5.235   6.415   4.709  0.6468 -0.8671  0.5589
 7792TIP3    H244868   5.085   6.395   4.718  0.7551 -1.8017  0.3702
 7793TIP3   OH244869   0.291   0.004  14.822 -0.1653 -0.1372 -0.2206
 7793TIP3    H144870   0.368  -0.042  14.855  1.0101  1.5727 -0.4132
 7793TIP3    H244871   0.320   0.095  14.812 -2.3766  0.6873  0.2059
 7794TIP3   OH244872   3.554   5.203   2.074  0.1072  0.0273  0.4848
 7794TIP3    H144873   3.564   5.270   2.007 -1.1313 -1.9839 -1.8617
 7794TIP3    H244874   3.638   5.157   2.076  0.8809  1.4002  1.9403
 7795TIP3   OH244875   0.551   2.054   5.026 -0.3512  0.0477 -0.3011
 7795TIP3    H144876   0.481   2.114   4.999  0.1696 -0.4286 -2.9749
 7795TIP3    H244877   0.523   1.968   4.994  0.9767 -0.3247 -0.5300
 7796TIP3   OH244878   3.554   3.649  14.964 -0.6456 -0.2218  0.3250
 7796TIP3    H144879   3.463   3.638  14.937 -0.5866  0.0493  0.0125
 7796TIP3    H244880   3.597   3.566  14.942 -0.6406 -0.0728 -0.2427
 7797TIP3   OH244881   4.230   5.975   2.429 -0.2283  0.8349  0.9022
 7797TIP3    H144882   4.139   6.005   2.431 -0.8979 -1.0817  1.8350
 7797TIP3    H244883   4.238   5.930   2.345 -0.3728  0.3868  1.1247
 7798TIP3   OH244884   4.398   2.552  14.040 -0.6593  0.3945  0.6218
 7798TIP3    H144885   4.410   2.647  14.043 -0.1540  0.3175  1.3883
 7798TIP3    H244886   4.415   2.522  14.130 -1.6211 -0.3347  0.5866
 7799TIP3   OH244887   3.620   5.235   5.156  0.1470 -0.2019 -0.7000
 7799TIP3    H144888   3.706   5.274   5.174  1.7877 -3.3057 -0.9490
 7799TIP3    H244889   3.582   5.220   5.243 -0.5714  1.9226 -0.6095
 7800TIP3   OH244890   4.811   1.863  15.837  0.1068  0.6037 -0.5365
 7800TIP3    H144891   4.762   1.944  15.825  0.8697  1.1656  0.0327
 7800TIP3    H244892   4.801   1.842  15.930  1.5333  1.1437 -0.2326
 7801TIP3   OH244893   5.647   1.235   3.723 -0.3187 -0.0930  0.2472
 7801TIP3    H144894   5.729   1.281   3.742  0.0212  0.1499 -1.6504
 7801TIP3    H244895   5.662   1.146   3.754  1.2156 -0.4275 -1.2924
 7802TIP3   OH244896   5.540   2.550  17.045  0.1420  0.1581  0.0424
 7802TIP3    H144897   5.586   2.481  17.093 -2.3853 -2.0055 -0.3665
 7802TIP3    H244898   5.529   2.514  16.957  0.7338  2.1278 -0.8941
 7803TIP3   OH244899   0.574   5.967  13.430  0.0618  0.1196  0.3572
 7803TIP3    H144900   0.635   6.034  13.400 -0.0733 -0.4688 -1.3785
 7803TIP3    H244901   0.626   5.911  13.488  0.5553  0.8807  0.6659
 7804TIP3   OH244902   2.506   0.256  13.618  0.2952  0.2047 -0.1745
 7804TIP3    H144903   2.594   0.219  13.620 -0.0864 -0.6994  1.3808
 7804TIP3    H244904   2.448   0.180  13.630 -0.5949  1.0192  0.9329
 7805TIP3   OH244905   6.397   0.557   2.753  0.3078  0.2115 -0.0418
 7805TIP3    H144906   6.467   0.557   2.818 -0.0979 -0.6203  0.4108
 7805TIP3    H244907   6.326   0.508   2.794 -0.2690  0.3963 -0.7900
 7806TIP3   OH244908   2.690   5.101  12.301  0.0574 -0.0580 -0.2362
 7806TIP3    H144909   2.601   5.081  12.329 -0.2099  0.1631 -0.9108
 7806TIP3    H244910   2.703   5.048  12.222  1.4596 -2.1151  1.2940
 7807TIP3   OH244911   3.983   4.773   1.741  0.7234  0.1002 -0.8190
 7807TIP3    H144912   4.038   4.695   1.728 -0.4966 -0.4909 -2.8327
 7807TIP3    H244913   3.916   4.744   1.802  0.2693 -0.4800 -1.5621
 7808TIP3   OH244914   6.193   1.586  12.282 -0.0088  0.2419 -0.2827
 7808TIP3    H144915   6.244   1.667  12.270 -1.0305  0.7826 -1.1015
 7808TIP3    H244916   6.140   1.578  12.203 -2.5611  0.7084  1.2459
 7809TIP3   OH244917   4.447   1.205  15.372 -0.4276 -0.1499 -0.0534
 7809TIP3    H144918   4.482   1.294  15.375  0.1583 -0.3846  1.9763
 7809TIP3    H244919   4.514   1.154  15.325 -1.3802  0.6569 -2.4362
 7810TIP3   OH244920   6.751   3.277  15.564  0.3182 -0.3650 -0.0386
 7810TIP3    H144921   6.755   3.202  15.504 -1.2937 -0.2538 -0.3530
 7810TIP3    H244922   6.751   3.237  15.651  0.7812 -0.6441 -0.1617
 7811TIP3   OH244923   6.483   0.356   1.837  0.1472  0.0067 -0.2996
 7811TIP3    H144924   6.469   0.268   1.871 -1.5828  0.6593  0.8011
 7811TIP3    H244925   6.403   0.376   1.788  0.2697  1.1667 -0.0619
 7812TIP3   OH244926   4.880   5.741  15.700 -0.4648  0.3176  0.2613
 7812TIP3    H144927   4.816   5.787  15.645 -0.2957 -0.2117 -0.3897
 7812TIP3    H244928   4.959   5.738  15.646 -0.4915 -0.7884  0.2645
 7813TIP3   OH244929   1.477   3.621  15.657 -0.1784  0.4491 -0.0998
 7813TIP3    H144930   1.509   3.696  15.607 -0.0060  1.3804  1.3279
 7813TIP3    H244931   1.411   3.659  15.716 -2.1265 -0.9986 -1.2282
 7814TIP3   OH244932   1.886   3.131  15.647 -0.1580  0.1484 -0.6424
 7814TIP3    H144933   1.835   3.212  15.643 -0.6304 -0.0413  1.0174
 7814TIP3    H244934   1.860   3.090  15.729  2.2290 -0.2401  0.0065
 7815TIP3   OH244935   2.811   5.037  13.932  0.2973 -0.1012 -0.3852
 7815TIP3    H144936   2.897   5.080  13.940  1.6246 -2.1689 -2.4233
 7815TIP3    H244937   2.749   5.109  13.939  2.3127  1.9034 -1.5574
 7816TIP3   OH244938   0.686   0.137  11.313  0.5825  0.2082  0.1385
 7816TIP3    H144939   0.658   0.133  11.221  2.4881  1.1487 -0.5255
 7816TIP3    H244940   0.696   0.045  11.338 -0.3122 -0.0716 -0.4581
 7817TIP3   OH244941   4.828   4.284  16.465  0.3926 -0.0363  0.1870
 7817TIP3    H144942   4.857   4.204  16.421 -1.9711 -1.2688  0.6977
 7817TIP3    H244943   4.908   4.334  16.479  1.7974 -1.7445 -1.2555
 7818TIP3   OH244944   0.166   2.197  15.172 -0.6595 -0.2498  0.1350
 7818TIP3    H144945   0.151   2.105  15.150  0.3540 -0.5015  0.4094
 7818TIP3    H244946   0.259   2.211  15.151 -0.8593  0.7755 -0.1230
 7819TIP3   OH244947   0.863   0.759  12.629  0.1652  0.2508 -0.4048
 7819TIP3    H144948   0.921   0.732  12.557  0.8021  1.5749 -0.4155
 7819TIP3    H244949   0.775   0.746  12.594  0.4360 -1.1091 -0.6480
 7820TIP3   OH244950   4.726   1.700  14.823  0.0745 -0.1525 -0.4483
 7820TIP3    H144951   4.676   1.763  14.771 -2.2744  0.3706  2.1911
 7820TIP3    H244952   4.663   1.667  14.888  2.7598 -0.6096  2.1479
 7821TIP3   OH244953   2.453   4.326  12.067 -0.2470  0.4137 -0.9123
 7821TIP3    H144954   2.365   4.332  12.029 -0.6536 -1.3108 -0.2952
 7821TIP3    H244955   2.450   4.386  12.142 -1.2904 -0.5057 -0.1888
 7822TIP3   OH244956   5.334   4.535  13.069 -0.4142 -0.1278  0.6710
 7822TIP3    H144957   5.270   4.464  13.056 -0.9492  0.2783  1.0171
 7822TIP3    H244958   5.353   4.533  13.163  1.0835 -1.0743  0.3770
 7823TIP3   OH244959   4.085   2.833   4.251  0.2253  0.5677 -0.0639
 7823TIP3    H144960   4.037   2.902   4.205 -0.9797  0.0821  0.4285
 7823TIP3    H244961   4.050   2.833   4.339  2.1573  1.1369  0.7696
 7824TIP3   OH244962   3.753   5.484  16.509 -0.1228  0.2416  0.6937
 7824TIP3    H144963   3.743   5.534  16.428  1.7229  0.6114  0.6432
 7824TIP3    H244964   3.732   5.394  16.485 -0.7072  0.5301  0.0901
 7825TIP3   OH244965   6.123   3.368  14.438  0.8062 -0.1807  0.0586
 7825TIP3    H144966   6.101   3.291  14.491 -0.2062  1.5206  2.2725
 7825TIP3    H244967   6.101   3.343  14.349 -2.1705 -1.5444  1.0646
 7826TIP3   OH244968   2.673   1.808   2.840  0.4443 -0.1457 -0.3122
 7826TIP3    H144969   2.632   1.893   2.823 -0.6735 -0.3064  1.3794
 7826TIP3    H244970   2.682   1.805   2.935  0.6670 -1.8227 -0.3718
 7827TIP3   OH244971   2.590   3.137  15.780 -0.3008 -0.2212 -0.2854
 7827TIP3    H144972   2.615   3.221  15.740  1.0435 -0.4573 -0.0039
 7827TIP3    H244973   2.643   3.072  15.734 -1.2438 -0.9108 -0.4164
 7828TIP3   OH244974   6.664   6.191   5.834  0.7941  0.1503 -0.3566
 7828TIP3    H144975   6.619   6.153   5.910  0.8464 -1.2566 -0.9930
 7828TIP3    H244976   6.755   6.200   5.862  0.7770 -0.1943 -0.1876
 7829TIP3   OH244977   2.527   1.409   5.885  0.5252 -0.0453 -0.4059
 7829TIP3    H144978   2.481   1.424   5.968 -0.3988  1.5081 -1.1440
 7829TIP3    H244979   2.575   1.327   5.898 -2.5891 -1.8997  0.3439
 7830TIP3   OH244980   6.178   3.861  13.534 -0.3933  0.4780 -0.2858
 7830TIP3    H144981   6.149   3.874  13.625  0.8943 -0.1265  0.2327
 7830TIP3    H244982   6.253   3.802  13.541 -1.2150 -0.8387 -1.8854
 7831TIP3   OH244983   1.497   5.716   2.048  0.3926  0.4594  0.0812
 7831TIP3    H144984   1.479   5.681   1.961  1.8936  2.4447 -1.1295
 7831TIP3    H244985   1.466   5.649   2.109 -1.6501 -0.5494 -1.9405
 7832TIP3   OH244986   2.363   2.722   3.007  0.3672  0.3383  0.1032
 7832TIP3    H144987   2.417   2.755   3.079 -0.3316 -2.0990  1.8514
 7832TIP3    H244988   2.420   2.660   2.962 -0.7385 -2.0776  1.8226
 7833TIP3   OH244989   1.336   4.871   5.683  0.1521 -0.6092  0.1217
 7833TIP3    H144990   1.374   4.911   5.605  0.7238 -1.7825 -0.2149
 7833TIP3    H244991   1.309   4.946   5.737 -0.0271  0.2144 -1.0750
 7834TIP3   OH244992   4.879   3.846   2.519 -0.2550  0.0959 -0.6580
 7834TIP3    H144993   4.947   3.831   2.585 -0.6700  0.9899 -0.0109
 7834TIP3    H244994   4.921   3.823   2.436 -0.0432 -2.0716 -0.0209
 7835TIP3   OH244995   6.783   4.768  11.940  0.7343  0.2165  0.3270
 7835TIP3    H144996   6.786   4.827  11.865  1.1945 -1.4126 -1.0063
 7835TIP3    H244997   6.873   4.762  11.970  1.0647 -1.2507 -0.7982
 7836TIP3   OH244998   3.762   2.280  16.736  0.1274 -0.0696 -0.0326
 7836TIP3    H144999   3.763   2.357  16.792 -1.1678  0.2876 -0.4574
 7836TIP3    H245000   3.705   2.305  16.662  0.4517 -1.0988 -0.6541
 7837TIP3   OH245001   5.181   5.962   5.426  0.1474 -0.1186  0.1093
 7837TIP3    H145002   5.260   5.952   5.479  1.1268  0.4791 -1.2125
 7837TIP3    H245003   5.155   5.872   5.405 -0.0169 -0.3499  1.2139
 7838TIP3   OH245004   2.158   3.959   5.283 -0.6153 -0.2816 -0.2556
 7838TIP3    H145005   2.111   3.890   5.330 -1.3288  0.4809  0.1808
 7838TIP3    H245006   2.184   4.021   5.351  1.9974 -1.1880 -0.3337
 7839TIP3   OH245007   1.100   2.446  12.936  0.3007 -0.9370 -0.2825
 7839TIP3    H145008   1.190   2.432  12.906 -0.1020 -2.1323 -1.0369
 7839TIP3    H245009   1.055   2.483  12.860  0.1501 -0.3355  0.0952
 7840TIP3   OH245010   2.128   0.306   6.418  0.1078 -0.2450  0.2181
 7840TIP3    H145011   2.199   0.369   6.432 -0.4321  0.2608  0.7804
 7840TIP3    H245012   2.164   0.243   6.356  0.3557  1.1539 -1.1349
 7841TIP3   OH245013   5.582   3.355   5.480  0.2107  0.1078  0.0675
 7841TIP3    H145014   5.600   3.447   5.501 -2.1505  0.7932 -0.6376
 7841TIP3    H245015   5.490   3.343   5.502 -0.6803 -0.9440 -3.5954
 7842TIP3   OH245016   2.439   5.609   3.309  0.1142  0.8094 -0.1285
 7842TIP3    H145017   2.462   5.579   3.397  0.0271 -0.6915 -0.5868
 7842TIP3    H245018   2.348   5.581   3.297  0.5704 -0.3155 -1.2064
 7843TIP3   OH245019   5.578   2.499  10.766  0.3427  0.0269 -0.3377
 7843TIP3    H145020   5.609   2.532  10.851 -0.4447 -1.0861  0.4001
 7843TIP3    H245021   5.610   2.409  10.762 -1.9958 -0.8749  0.0506
 7844TIP3   OH245022   0.692   1.658  15.545  0.0258  0.1767  0.1424
 7844TIP3    H145023   0.638   1.680  15.469  1.6980  0.3225 -1.0329
 7844TIP3    H245024   0.748   1.735  15.558  0.5309 -0.2973  0.8553
 7845TIP3   OH245025   1.766   4.543  14.992 -0.3950 -0.4723 -0.0399
 7845TIP3    H145026   1.742   4.451  14.983 -1.0089 -0.3777  0.6099
 7845TIP3    H245027   1.710   4.576  15.062 -0.4397  0.4879 -0.5174
 7846TIP3   OH245028   5.707   4.364   4.579 -0.1501 -0.5962  0.0520
 7846TIP3    H145029   5.652   4.287   4.567  0.8954 -1.0808 -2.0687
 7846TIP3    H245030   5.654   4.437   4.546  0.6038 -1.1426 -2.5346
 7847TIP3   OH245031   4.946   2.767   1.810  0.1181 -0.1342  0.9752
 7847TIP3    H145032   4.931   2.730   1.897  3.0785 -1.2737  1.1199
 7847TIP3    H245033   5.040   2.756   1.795 -0.2343  0.2341 -2.2790
 7848TIP3   OH245034   3.432   0.316  11.004 -0.1507 -0.1345  0.4273
 7848TIP3    H145035   3.400   0.378  10.938 -0.4443  1.4794  1.9763
 7848TIP3    H245036   3.404   0.230  10.973  1.9530  0.2075 -2.7946
 7849TIP3   OH245037   4.771   0.241   2.488  0.2064 -0.2027  0.1221
 7849TIP3    H145038   4.748   0.148   2.494 -1.3745  0.2362  1.3239
 7849TIP3    H245039   4.743   0.267   2.401  1.4527 -1.0287 -0.5601
 7850TIP3   OH245040   3.880   2.559  11.536  0.2369 -0.4573 -0.1978
 7850TIP3    H145041   3.870   2.471  11.498  0.6718 -2.2810  3.4583
 7850TIP3    H245042   3.960   2.553  11.588  0.5835  2.3649 -0.2658
 7851TIP3   OH245043   0.005   2.842   3.144  0.6582 -0.2362  0.0340
 7851TIP3    H145044   0.082   2.876   3.099 -0.1507 -0.0573 -1.2838
 7851TIP3    H245045  -0.056   2.821   3.074 -0.1761 -1.1732  1.0067
 7852TIP3   OH245046   5.856   2.868   6.724 -0.8979 -0.5251 -0.1591
 7852TIP3    H145047   5.895   2.950   6.694  0.0450 -1.1692 -0.7330
 7852TIP3    H245048   5.767   2.892   6.751 -1.4840  0.2946 -2.5526
 7853TIP3   OH245049   5.554   3.324  15.054  0.7939  0.0506  0.0527
 7853TIP3    H145050   5.479   3.382  15.071 -0.3020 -1.4429  0.5546
 7853TIP3    H245051   5.616   3.344  15.124 -1.2180 -1.9796  2.6714
 7854TIP3   OH245052   4.195   0.162  14.569  0.1114 -0.1375 -0.2998
 7854TIP3    H145053   4.108   0.177  14.607  0.9384 -0.1801  1.7481
 7854TIP3    H245054   4.213   0.241  14.518 -0.7531  0.2768  0.0241
 7855TIP3   OH245055   3.789   6.290  13.477  0.4985 -0.1361  0.4589
 7855TIP3    H145056   3.767   6.317  13.566  1.1806 -1.3536  1.0139
 7855TIP3    H245057   3.750   6.358  13.422  0.2122  0.7333  1.6816
 7856TIP3   OH245058   5.857   3.455   4.806  0.1129 -0.0711 -0.4968
 7856TIP3    H145059   5.874   3.435   4.714  1.2415  0.6626 -0.4662
 7856TIP3    H245060   5.864   3.370   4.850 -1.4626 -0.6097 -1.1886
 7857TIP3   OH245061   5.694   2.787   6.067 -0.6068 -0.1157 -0.4591
 7857TIP3    H145062   5.736   2.858   6.115 -0.4271  0.4672 -1.4394
 7857TIP3    H245063   5.604   2.818   6.052 -0.3960  0.1111 -1.2831
 7858TIP3   OH245064   4.234   1.028  15.378  0.3149  0.9873  0.7614
 7858TIP3    H145065   4.300   1.092  15.404  1.3404  0.3138 -0.1004
 7858TIP3    H245066   4.280   0.944  15.379 -0.5238  0.5016  0.0961
 7859TIP3   OH245067   4.106   1.761  16.408 -0.4801  0.8372 -0.2570
 7859TIP3    H145068   4.100   1.692  16.341 -3.9956  1.0332 -0.3370
 7859TIP3    H245069   4.088   1.715  16.490  1.8694  0.9396  0.3701
 7860TIP3   OH245070   1.041   1.025   0.046  0.0658 -0.1831 -0.9382
 7860TIP3    H145071   0.966   0.981   0.085 -0.2247 -0.7746 -2.1106
 7860TIP3    H245072   1.038   1.114   0.081 -0.1936 -0.6658  0.3225
 7861TIP3   OH245073   2.442   1.747  12.803 -0.5042  0.1863 -0.0613
 7861TIP3    H145074   2.384   1.674  12.823 -0.5686  0.3375  0.3185
 7861TIP3    H245075   2.529   1.707  12.793 -0.9121 -0.2655 -2.2426
 7862TIP3   OH245076   1.430   4.609   2.354 -0.7424  0.0925 -0.6292
 7862TIP3    H145077   1.472   4.687   2.316  0.5252 -0.0949  0.3137
 7862TIP3    H245078   1.420   4.630   2.446 -1.9301 -0.2346 -0.6769
 7863TIP3   OH245079   3.957   1.882   4.300 -0.3518 -0.3146 -0.1913
 7863TIP3    H145080   3.917   1.959   4.259 -0.4914 -0.3561 -0.1348
 7863TIP3    H245081   3.966   1.906   4.392  1.9147  0.5935 -0.5787
 7864TIP3   OH245082   0.230   1.738   6.399  0.1864  0.2567 -0.5037
 7864TIP3    H145083   0.322   1.732   6.425  0.7107  1.5339 -1.9427
 7864TIP3    H245084   0.229   1.799   6.325 -1.5506 -1.3339 -1.8909
 7865TIP3   OH245085   6.088   0.512  14.253  0.5072  0.3102  0.6892
 7865TIP3    H145086   6.184   0.506  14.252  0.4390 -1.1440 -0.1687
 7865TIP3    H245087   6.059   0.423  14.274 -0.6608  0.7033  0.7900
 7866TIP3   OH245088   3.391   3.486   0.920  0.1033  0.3996  0.2632
 7866TIP3    H145089   3.419   3.577   0.934  2.6879 -0.4859  1.6111
 7866TIP3    H245090   3.392   3.447   1.007  0.7484 -1.3462 -0.4814
 7867TIP3   OH245091   1.965   1.091  14.518 -0.1140 -0.3108  0.0983
 7867TIP3    H145092   1.963   1.022  14.585 -0.6794 -1.4864 -1.0686
 7867TIP3    H245093   1.925   1.167  14.560  1.6837 -0.2643  1.8307
 7868TIP3   OH245094   4.615   6.137  11.874  0.0317  0.1473 -0.2960
 7868TIP3    H145095   4.662   6.097  11.801  0.0326 -0.4558  0.0324
 7868TIP3    H245096   4.629   6.231  11.863  1.6406 -0.0294  0.0070
 7869TIP3   OH245097   0.418   0.232  13.598  0.1999 -0.7098 -1.1079
 7869TIP3    H145098   0.395   0.152  13.645 -1.3373  0.1283 -0.3695
 7869TIP3    H245099   0.399   0.213  13.506 -0.6395 -1.0381 -0.8754
 7870TIP3   OH245100   3.714   4.389  15.114 -0.2530  0.2957 -0.4184
 7870TIP3    H145101   3.800   4.420  15.087  0.4765 -0.3788  1.0330
 7870TIP3    H245102   3.665   4.468  15.135  1.0325  0.6039  1.6579
 7871TIP3   OH245103   4.226   4.296  13.059 -0.2434  0.0622  0.1167
 7871TIP3    H145104   4.276   4.303  13.140 -0.7826 -0.5999  0.5230
 7871TIP3    H245105   4.155   4.236  13.080 -0.3275 -0.2103 -0.8813
 7872TIP3   OH245106   3.860   0.688   0.249 -0.3135  0.3817 -0.4074
 7872TIP3    H145107   3.903   0.637   0.318 -2.0942 -1.2506 -0.4140
 7872TIP3    H245108   3.906   0.662   0.169  0.8265  1.1957 -0.0355
 7873TIP3   OH245109   3.771   3.297  12.046  0.0447 -0.2174  0.3696
 7873TIP3    H145110   3.780   3.248  11.965 -1.1723 -1.9617  1.2192
 7873TIP3    H245111   3.680   3.325  12.048  0.4267  1.0731  0.4696
 7874TIP3   OH245112   1.934   5.417   4.143  0.5416 -0.1366  0.3593
 7874TIP3    H145113   2.006   5.373   4.098  0.8894 -0.4544  1.2152
 7874TIP3    H245114   1.944   5.509   4.119  0.2939 -0.3914 -0.7828
 7875TIP3   OH245115   3.205   5.957  14.717  0.0805  0.7897  0.3449
 7875TIP3    H145116   3.205   6.018  14.644 -1.0142 -1.0784 -1.2991
 7875TIP3    H245117   3.294   5.923  14.721  0.6345  2.2328  1.1237
 7876TIP3   OH245118   3.165   0.077   2.442  0.1582  0.1224  0.7128
 7876TIP3    H145119   3.074   0.066   2.417  0.8631  0.5616 -2.6130
 7876TIP3    H245120   3.189  -0.006   2.484 -1.0494 -1.2332 -1.1154
 7877TIP3   OH245121   3.682   3.587  13.920  0.1306  0.0272  0.1556
 7877TIP3    H145122   3.643   3.664  13.877  0.3850  1.3169  2.0841
 7877TIP3    H245123   3.721   3.622  14.000  0.2330 -2.1374  1.1259
 7878TIP3   OH245124   2.875   3.296  15.092  0.2086  0.1950 -0.0792
 7878TIP3    H145125   2.889   3.231  15.161 -0.5594 -2.2265 -2.0358
 7878TIP3    H245126   2.792   3.338  15.115  0.7299  0.5203  1.2449
 7879TIP3   OH245127   4.836   6.322  13.252  0.2256 -0.4233  0.3632
 7879TIP3    H145128   4.903   6.381  13.287  1.9016 -1.4651 -0.9478
 7879TIP3    H245129   4.830   6.345  13.159 -0.7402 -0.8383  0.3070
 7880TIP3   OH245130   6.315   1.584   5.823  0.6066  0.0529  0.8634
 7880TIP3    H145131   6.260   1.539   5.758 -1.0884  1.2894  1.3777
 7880TIP3    H245132   6.316   1.525   5.899 -0.1204  0.0758  0.8929
 7881TIP3   OH245133   4.672   3.212   0.308  0.8952  0.4103  0.1543
 7881TIP3    H145134   4.597   3.219   0.249 -0.9297 -0.3654  2.2397
 7881TIP3    H245135   4.723   3.291   0.292  0.7108  0.0676 -2.6566
 7882TIP3   OH245136   4.243   5.755   0.761  0.3377  0.3927  0.5399
 7882TIP3    H145137   4.306   5.784   0.826  0.7318  0.1665  0.2658
 7882TIP3    H245138   4.282   5.677   0.723 -0.5162 -0.2632  0.9741
 7883TIP3   OH245139   0.613   3.472  17.347  0.6361 -0.5615 -0.4624
 7883TIP3    H145140   0.620   3.504  17.257  0.5501 -3.2012 -1.5072
 7883TIP3    H245141   0.703   3.459  17.375  0.6622  0.2313 -0.1669
 7884TIP3   OH245142   1.003   3.271  11.348  0.2068 -0.1226  0.3717
 7884TIP3    H145143   1.074   3.324  11.384  0.1613  0.3518 -0.2257
 7884TIP3    H245144   0.946   3.334  11.304 -0.8427 -0.4323  1.2456
 7885TIP3   OH245145   2.453   4.811  16.929 -0.0463  0.1852 -0.2354
 7885TIP3    H145146   2.414   4.888  16.971 -0.9810 -0.2813 -0.2189
 7885TIP3    H245147   2.430   4.820  16.837 -1.9393 -1.0926  0.0716
 7886TIP3   OH245148   3.237   5.551  16.233  0.1687 -0.0004  0.1746
 7886TIP3    H145149   3.286   5.515  16.159 -0.4295  0.8897 -0.6759
 7886TIP3    H245150   3.268   5.501  16.309  2.0482  0.2327 -0.3987
 7887TIP3   OH245151   1.536   6.444  12.067  0.3227  0.1360  0.5902
 7887TIP3    H145152   1.573   6.524  12.030 -1.1400  1.1135  1.1570
 7887TIP3    H245153   1.470   6.474  12.130 -1.4208 -1.4979 -0.3488
 7888TIP3   OH245154   0.702   1.691   1.321  0.6426 -0.3253  0.0413
 7888TIP3    H145155   0.647   1.615   1.303  1.8057 -1.0577 -0.5442
 7888TIP3    H245156   0.778   1.656   1.367  0.8466  0.5929  0.4318
 7889TIP3   OH245157   0.325   2.642   1.935 -0.6787  0.1255 -0.2510
 7889TIP3    H145158   0.289   2.592   1.861 -0.2155  0.8880 -1.0144
 7889TIP3    H245159   0.262   2.712   1.949 -1.1662 -0.4795  0.6070
 7890TIP3   OH245160   4.741   5.329  17.201 -0.8154 -0.2680  0.4484
 7890TIP3    H145161   4.819   5.375  17.171 -1.4574  1.3328  1.0854
 7890TIP3    H245162   4.671   5.363  17.146 -1.3064 -0.5354  0.8955
 7891TIP3   OH245163   1.672   5.992   3.057 -0.4340 -0.2934  0.7462
 7891TIP3    H145164   1.626   5.924   3.009 -2.0885  0.8744  0.5861
 7891TIP3    H245165   1.726   5.945   3.121 -1.3833 -1.7451  0.5066
 7892TIP3   OH245166   4.438   0.051  13.212  0.5022  0.2391 -0.2231
 7892TIP3    H145167   4.433  -0.040  13.242 -0.9756  0.3131 -0.1903
 7892TIP3    H245168   4.413   0.104  13.288 -1.3576  0.5077 -0.9512
 7893TIP3   OH245169   1.644   5.540  14.934  0.3951  0.2847  0.0318
 7893TIP3    H145170   1.662   5.589  15.015 -0.3041 -2.3510  1.9208
 7893TIP3    H245171   1.549   5.539  14.928  0.4400  0.3881 -0.8231
 7894TIP3   OH245172   2.173   4.846   0.821  0.3291 -0.3678  0.2510
 7894TIP3    H145173   2.170   4.752   0.838 -0.4587 -0.2725  0.7170
 7894TIP3    H245174   2.137   4.886   0.900  1.2234  0.3669  0.3158
 7895TIP3   OH245175   6.058   0.292   6.594  0.4860  0.3226 -0.1074
 7895TIP3    H145176   6.074   0.213   6.646 -0.5172 -0.0066 -0.2791
 7895TIP3    H245177   6.034   0.259   6.507  0.8909  0.8393 -0.4180
 7896TIP3   OH245178   1.859   3.292  11.675 -0.2044  0.2082  1.0585
 7896TIP3    H145179   1.807   3.233  11.620  0.4910  0.1714  0.4259
 7896TIP3    H245180   1.920   3.334  11.615 -0.2289  1.0683  1.6174
 7897TIP3   OH245181   3.119   3.843  17.056 -0.4966  0.3308  0.2067
 7897TIP3    H145182   3.049   3.908  17.060  0.9603  1.9275  1.7154
 7897TIP3    H245183   3.087   3.769  17.109 -2.0287 -0.0876 -1.2395
 7898TIP3   OH245184   4.373   1.423   0.965 -0.6974  0.1852  0.1947
 7898TIP3    H145185   4.432   1.350   0.981 -0.1830  0.7253  0.8278
 7898TIP3    H245186   4.299   1.385   0.917 -0.6559 -0.8339  0.9160
 7899TIP3   OH245187   4.595   2.030   0.198 -0.2358  0.0617  0.7497
 7899TIP3    H145188   4.688   2.010   0.207 -0.2193 -0.0097  0.4374
 7899TIP3    H245189   4.584   2.115   0.240 -0.3299 -0.6626  2.2400
 7900TIP3   OH245190   3.999   4.065  14.493 -0.3670  0.2239  0.1030
 7900TIP3    H145191   3.926   4.002  14.487  0.5146 -0.9468  1.1292
 7900TIP3    H245192   3.964   4.137  14.545 -1.0307  0.0184 -0.0446
 7901TIP3   OH245193   4.771   4.517   2.932  0.0497 -0.0713  0.8284
 7901TIP3    H145194   4.793   4.606   2.959 -0.9116  0.3949  0.1514
 7901TIP3    H245195   4.685   4.501   2.971 -0.0714 -0.4454  0.4180
 7902TIP3   OH245196   5.897   3.083  11.835  0.3340  0.4938  0.0407
 7902TIP3    H145197   5.881   3.121  11.749  0.3794  0.4961  0.0335
 7902TIP3    H245198   5.812   3.046  11.861  0.9363 -1.9881 -1.2240
 7903TIP3   OH245199   5.364   4.510   5.307  0.3226 -0.6271  0.0465
 7903TIP3    H145200   5.305   4.484   5.379  1.8922 -0.5863  1.4020
 7903TIP3    H245201   5.446   4.533   5.351  1.0297  0.3280 -1.7059
 7904TIP3   OH245202   3.992   5.797   3.578  0.1063  0.0791  0.6654
 7904TIP3    H145203   3.941   5.734   3.629  0.1031  0.7698  1.5363
 7904TIP3    H245204   3.940   5.877   3.579  0.1935  0.1539 -0.2838
 7905TIP3   OH245205   6.056   4.060  14.816 -0.3683 -0.6031  0.8283
 7905TIP3    H145206   5.963   4.037  14.813 -0.7267  0.7767  0.9118
 7905TIP3    H245207   6.077   4.061  14.909 -0.2491 -0.9613  0.8072
 7906TIP3   OH245208   6.762   3.086   2.418  0.0796  0.2809  0.2148
 7906TIP3    H145209   6.845   3.127   2.442 -0.8707  0.9379  2.7825
 7906TIP3    H245210   6.774   2.993   2.438  0.3521  0.2976  0.1329
 7907TIP3   OH245211   2.278   6.218   1.077  0.0842 -0.6453 -0.1452
 7907TIP3    H145212   2.240   6.131   1.089 -0.7672 -0.2987 -0.2384
 7907TIP3    H245213   2.363   6.202   1.035 -0.1243 -1.4222 -0.2870
 7908TIP3   OH245214   3.212   6.252  14.198 -0.3835 -0.2777  0.5668
 7908TIP3    H145215   3.303   6.274  14.215 -0.6053  0.3382  0.9808
 7908TIP3    H245216   3.162   6.304  14.261 -1.0026 -0.8622  0.5740
 7909TIP3   OH245217   0.488   6.495   5.781  0.3044  0.1045 -0.0046
 7909TIP3    H145218   0.453   6.475   5.867  3.0141  1.1674  1.4843
 7909TIP3    H245219   0.539   6.418   5.757 -2.0336 -1.0254 -1.6838
 7910TIP3   OH245220   0.828   1.839  13.328 -0.1567  0.2864 -0.1704
 7910TIP3    H145221   0.736   1.859  13.344 -0.4616 -0.2049 -1.2171
 7910TIP3    H245222   0.843   1.757  13.374  0.4530  1.5789  2.0937
 7911TIP3   OH245223   5.237   0.148  14.415  0.3904 -0.1541  0.0886
 7911TIP3    H145224   5.173   0.183  14.477 -0.8192 -0.7884 -0.7467
 7911TIP3    H245225   5.295   0.221  14.397  0.2447  0.2900  1.2949
 7912TIP3   OH245226   4.717   5.639  13.518 -0.0914 -0.5498 -0.1602
 7912TIP3    H145227   4.670   5.566  13.557  1.3792 -0.1248  2.6381
 7912TIP3    H245228   4.671   5.717  13.550 -0.2424 -0.1909 -1.2126
 7913TIP3   OH245229   6.437   4.500   7.022  0.5539  0.0147  0.0670
 7913TIP3    H145230   6.355   4.543   6.998  1.0332  1.7229  1.3051
 7913TIP3    H245231   6.495   4.514   6.947 -0.1951 -1.0837 -0.7581
 7914TIP3   OH245232   3.723   6.689   1.656  0.1440  0.5010 -0.0947
 7914TIP3    H145233   3.800   6.736   1.623  0.2781  1.1595  1.0949
 7914TIP3    H245234   3.672   6.669   1.577  1.4168  0.2355 -0.8836
 7915TIP3   OH245235   2.395   4.074  15.932 -0.4099  0.1860  0.1131
 7915TIP3    H145236   2.398   4.167  15.954 -1.7541  0.0982  0.7657
 7915TIP3    H245237   2.302   4.054  15.922 -0.0741 -0.7258 -1.6919
 7916TIP3   OH245238   6.038   1.171  13.232 -0.3829 -0.1388  0.7523
 7916TIP3    H145239   6.111   1.230  13.212  1.5080 -2.2575  1.0349
 7916TIP3    H245240   5.964   1.229  13.251  0.9377  2.0831 -0.5356
 7917TIP3   OH245241   2.124   2.892  16.822 -0.0377  0.0626 -0.2716
 7917TIP3    H145242   2.055   2.937  16.870  0.3809 -0.3597  0.7347
 7917TIP3    H245243   2.135   2.944  16.742 -1.0854  0.4811 -0.1556
 7918TIP3   OH245244   6.419   2.810   1.498  0.0392 -0.0729  0.1159
 7918TIP3    H145245   6.370   2.768   1.427 -0.9045  1.1179  0.0221
 7918TIP3    H245246   6.489   2.857   1.454  0.6060 -0.8566  0.1542
 7919TIP3   OH245247   1.735   3.450   1.831 -0.5313 -0.3208 -0.5976
 7919TIP3    H145248   1.740   3.436   1.737  0.1272 -0.1518 -0.5924
 7919TIP3    H245249   1.769   3.539   1.844  0.2972 -0.6925 -0.1086
 7920TIP3   OH245250   5.954   0.262  13.805  0.3190  0.0468  0.2167
 7920TIP3    H145251   5.881   0.230  13.753  0.3541 -0.0150  0.2053
 7920TIP3    H245252   5.913   0.295  13.886  0.1896  0.8257 -0.1582
 7921TIP3   OH245253   3.952   3.461  15.494  0.6592  0.6549  0.4741
 7921TIP3    H145254   3.997   3.522  15.434 -1.2269 -0.1082 -1.8600
 7921TIP3    H245255   4.022   3.405  15.528  1.9916  2.0811  0.2185
 7922TIP3   OH245256   1.653   2.223   3.041 -0.0669 -0.0714  0.4778
 7922TIP3    H145257   1.663   2.258   3.130 -0.6196 -0.3473  0.6577
 7922TIP3    H245258   1.558   2.212   3.031 -0.1144  1.1238 -0.5987
 7923TIP3   OH245259   2.911   5.655  14.027  0.1656  0.5343 -0.2127
 7923TIP3    H145260   2.864   5.572  14.017 -4.0899  2.5855  0.6252
 7923TIP3    H245261   2.956   5.666  13.944 -1.6404 -1.2400 -1.5383
 7924TIP3   OH245262   2.774   5.065  14.337 -0.3047  0.5999 -0.0298
 7924TIP3    H145263   2.716   5.140  14.318 -1.7877 -0.9527 -2.1554
 7924TIP3    H245264   2.728   5.016  14.404 -1.4164 -0.4763 -1.5099
 7925TIP3   OH245265   4.111   3.289   2.988  0.3590  0.6399  0.2930
 7925TIP3    H145266   4.113   3.266   3.080  0.3193 -1.0646 -0.1052
 7925TIP3    H245267   4.020   3.276   2.962  0.9001 -1.8926 -0.6491
 7926TIP3   OH245268   0.436   4.709   1.255 -0.2008 -0.0156  0.4386
 7926TIP3    H145269   0.515   4.719   1.308  0.7540  1.6389 -1.1990
 7926TIP3    H245270   0.364   4.716   1.317  0.8814 -1.4231  1.9556
 7927TIP3   OH245271   0.982   4.190  17.330 -0.4282 -0.0540  0.2031
 7927TIP3    H145272   0.927   4.128  17.282  0.3457  0.8259 -1.9407
 7927TIP3    H245273   0.928   4.269  17.340 -1.1279 -0.7122  2.2338
 7928TIP3   OH245274   4.438   5.597  12.480  0.0195  0.0577  0.3127
 7928TIP3    H145275   4.525   5.605  12.440  0.6168 -0.4957  1.4405
 7928TIP3    H245276   4.412   5.507  12.460  0.6879 -0.5083  1.7929
 7929TIP3   OH245277   5.617   3.585  14.702 -0.0576  0.2892 -0.6120
 7929TIP3    H145278   5.673   3.658  14.675  1.1147 -0.4893 -0.3478
 7929TIP3    H245279   5.569   3.560  14.623  2.1267 -0.9064 -1.6252
 7930TIP3   OH245280   4.714   1.766  15.263  0.3265 -0.4361  0.0998
 7930TIP3    H145281   4.809   1.776  15.261  0.1417  1.9881  0.3860
 7930TIP3    H245282   4.686   1.824  15.334 -1.4706  0.2304 -1.0838
 7931TIP3   OH245283   2.371   5.847  10.718 -0.7214 -0.4406  0.0472
 7931TIP3    H145284   2.400   5.806  10.799 -0.4200  2.1585  1.3763
 7931TIP3    H245285   2.434   5.819  10.652  3.1608  2.4190  2.1551
 7932TIP3   OH245286   3.478   4.998   3.739 -0.2590 -0.5839  0.0084
 7932TIP3    H145287   3.477   4.951   3.823  0.6330 -0.9955 -0.2032
 7932TIP3    H245288   3.531   4.943   3.681 -0.3397  0.0129 -0.6454
 7933TIP3   OH245289   2.494   4.877   1.633 -0.6149  0.6948  0.0799
 7933TIP3    H145290   2.572   4.918   1.596 -0.5598  1.5523  1.1278
 7933TIP3    H245291   2.528   4.813   1.695 -0.7462  0.5766  0.0315
 7934TIP3   OH245292   0.767   4.772  13.796  0.0169 -0.3758 -0.4222
 7934TIP3    H145293   0.685   4.776  13.746 -0.6370 -1.1602  0.5589
 7934TIP3    H245294   0.749   4.825  13.874 -0.1893 -1.9630  0.6505
 7935TIP3   OH245295   3.361   6.342   1.694  0.4661  0.4286 -0.2489
 7935TIP3    H145296   3.271   6.371   1.703  0.3840 -0.1426  1.0160
 7935TIP3    H245297   3.412   6.404   1.746  0.6161 -0.0955  0.2386
 7936TIP3   OH245298   3.653   4.045  12.127 -0.5317  0.5330  0.0301
 7936TIP3    H145299   3.603   3.963  12.122 -0.7642  0.6985 -0.4190
 7936TIP3    H245300   3.600   4.101  12.183 -0.1795  0.2423  0.6555
 7937TIP3   OH245301   0.750   2.165  13.688 -0.3455 -0.5438  0.4438
 7937TIP3    H145302   0.714   2.130  13.770 -1.9584  0.9729  0.4620
 7937TIP3    H245303   0.784   2.251  13.711 -1.3832  0.1721 -0.5604
 7938TIP3   OH245304   2.005   2.843  12.693  0.1410  0.4285  0.2934
 7938TIP3    H145305   2.088   2.874  12.658 -0.0741  2.1441  1.2105
 7938TIP3    H245306   2.026   2.807  12.779  0.1956 -0.9506 -0.2614
 7939TIP3   OH245307   1.407   6.479  14.470 -0.4744 -0.0980 -0.3913
 7939TIP3    H145308   1.342   6.417  14.436 -1.0130  0.6148 -0.6735
 7939TIP3    H245309   1.374   6.565  14.444  0.2249  0.3163  0.0747
 7940TIP3   OH245310   3.589   0.017  12.614  0.6691 -0.1522  0.4485
 7940TIP3    H145311   3.590   0.009  12.518  2.1187  0.5897  0.3721
 7940TIP3    H245312   3.682   0.020  12.639  0.5367  4.8635  1.3654
 7941TIP3   OH245313   1.165   5.040  14.745 -0.3760 -0.8104 -0.1756
 7941TIP3    H145314   1.173   5.126  14.787  2.0794 -0.7235 -0.6643
 7941TIP3    H245315   1.080   5.042  14.703  0.1056  1.9243 -1.2556
 7942TIP3   OH245316   1.102   2.521  12.275  0.1330  0.7362  0.6602
 7942TIP3    H145317   1.046   2.587  12.317  1.8251  1.5493  1.7438
 7942TIP3    H245318   1.134   2.467  12.348 -0.7231 -0.9436 -0.1481
 7943TIP3   OH245319   5.331   6.639   2.890  0.3713 -0.1605 -0.5999
 7943TIP3    H145320   5.282   6.708   2.934  0.7191 -0.8615  0.9504
 7943TIP3    H245321   5.271   6.606   2.823 -1.2700 -0.8813  1.1270
 7944TIP3   OH245322   6.215   2.730   5.679 -0.6890  0.0981 -0.2223
 7944TIP3    H145323   6.258   2.746   5.595 -0.8229 -0.0106 -0.3127
 7944TIP3    H245324   6.135   2.783   5.675 -1.6091 -1.2675 -0.9032
 7945TIP3   OH245325   4.999   6.616   3.025 -0.1853  0.0686 -0.3874
 7945TIP3    H145326   4.983   6.710   3.035  0.5816  0.3327 -1.4345
 7945TIP3    H245327   4.934   6.574   3.081  0.9866  1.2566  1.9970
 7946TIP3   OH245328   2.482   5.001  13.702  0.9205 -0.0655 -0.0144
 7946TIP3    H145329   2.563   5.051  13.708  0.4055  0.6357  1.7736
 7946TIP3    H245330   2.463   4.974  13.792  0.4120 -2.2897 -0.7250
 7947TIP3   OH245331   2.600   2.607   2.903 -0.2514 -0.7367 -0.1372
 7947TIP3    H145332   2.614   2.701   2.908 -1.1295 -0.6512  1.1173
 7947TIP3    H245333   2.622   2.575   2.991  0.8005 -1.8245 -0.7676
 7948TIP3   OH245334   6.779   4.665   1.026  0.0169 -0.1466  0.1192
 7948TIP3    H145335   6.872   4.689   1.026 -0.1409  0.5000  0.8303
 7948TIP3    H245336   6.776   4.581   0.982  0.9619 -0.2203  0.1793
 7949TIP3   OH245337   1.398   2.945   5.819 -0.0973  0.5142  0.0116
 7949TIP3    H145338   1.330   2.893   5.863 -0.7458  2.1385  1.0150
 7949TIP3    H245339   1.356   2.978   5.740 -1.0012  2.5900  1.2687
 7950TIP3   OH245340   0.142   4.976   5.942  0.5585  0.6234 -0.3745
 7950TIP3    H145341   0.183   5.045   5.994  3.0426 -0.3449 -0.9176
 7950TIP3    H245342   0.128   4.904   6.004  0.2151  0.7426 -0.3128
 7951TIP3   OH245343   5.082   1.781  11.140  0.0600  0.7904  0.2083
 7951TIP3    H145344   5.153   1.737  11.093 -0.0143  0.9522 -0.0565
 7951TIP3    H245345   5.017   1.712  11.156 -0.1861  0.8627 -0.4594
 7952TIP3   OH245346   1.783   0.089  11.933  0.0615 -0.7739 -0.2794
 7952TIP3    H145347   1.786   0.139  11.851 -1.1637 -1.3614 -0.7035
 7952TIP3    H245348   1.824   0.146  11.997 -0.2839  0.3089 -0.9914
 7953TIP3   OH245349   4.722   0.245   1.499  0.1502  0.2262 -0.0821
 7953TIP3    H145350   4.717   0.152   1.476  0.0681  0.0890  0.4738
 7953TIP3    H245351   4.696   0.291   1.419 -3.1207 -0.2935  0.5585
 7954TIP3   OH245352   1.616   1.295   0.341 -0.5703  0.4464 -0.5658
 7954TIP3    H145353   1.522   1.314   0.336 -0.5925  0.3651 -0.4643
 7954TIP3    H245354   1.650   1.322   0.256 -0.2265  2.9403  0.2754
 7955TIP3   OH245355   5.500   5.015   4.671  0.8782 -0.2370 -0.3698
 7955TIP3    H145356   5.490   5.101   4.712 -0.1409 -0.6236  0.2269
 7955TIP3    H245357   5.513   5.033   4.579  0.7335  0.5650 -0.2357
 7956TIP3   OH245358   3.245   6.146  16.877 -0.3771  0.2779  0.1137
 7956TIP3    H145359   3.165   6.093  16.874 -0.6382  0.5272  1.7499
 7956TIP3    H245360   3.218   6.228  16.917  0.2400  1.3045 -1.4887
 7957TIP3   OH245361   6.711   6.494   4.463 -0.6187 -0.2586  0.2180
 7957TIP3    H145362   6.739   6.543   4.540  1.4631  0.5584 -0.9932
 7957TIP3    H245363   6.780   6.509   4.398 -1.5678 -2.1256 -1.3170
 7958TIP3   OH245364   1.339   3.491  11.749  0.4099  0.0126 -0.1960
 7958TIP3    H145365   1.294   3.450  11.675 -0.0612 -0.1973  0.2035
 7958TIP3    H245366   1.394   3.558  11.709 -0.1000  0.1319 -0.7076
 7959TIP3   OH245367   3.441   3.203   0.256 -0.4699  0.3726 -0.4660
 7959TIP3    H145368   3.533   3.227   0.266 -0.7668  1.4749 -0.2568
 7959TIP3    H245369   3.407   3.197   0.345 -0.6333  0.0792 -0.5448
 7960TIP3   OH245370   4.668   2.150   2.428  0.0489  0.0333 -0.3350
 7960TIP3    H145371   4.679   2.199   2.510  0.1215  0.0093 -0.3303
 7960TIP3    H245372   4.613   2.076   2.452 -0.5745  0.4461 -0.4723
 7961TIP3   OH245373   3.550   0.710  16.452  0.0242  0.0612 -0.5490
 7961TIP3    H145374   3.471   0.763  16.448  0.3260  0.5086 -0.6500
 7961TIP3    H245375   3.613   0.764  16.501 -0.7150 -1.5447  2.4013
 7962TIP3   OH245376   0.822   5.377   0.992 -0.1840 -0.4175 -0.4469
 7962TIP3    H145377   0.808   5.325   1.071  2.3349 -1.8793 -0.8371
 7962TIP3    H245378   0.851   5.313   0.926 -2.4244  0.6916 -2.6805
 7963TIP3   OH245379   1.426   5.002   1.520  0.3100  0.0522 -0.3618
 7963TIP3    H145380   1.374   5.061   1.574  1.5617 -0.9696  2.1146
 7963TIP3    H245381   1.387   4.916   1.534  0.0036 -0.1085 -1.9970
 7964TIP3   OH245382   5.338   2.890  13.145  0.1817 -0.3366 -0.0443
 7964TIP3    H145383   5.358   2.872  13.053 -0.1812 -0.6339 -0.0679
 7964TIP3    H245384   5.388   2.969  13.166 -0.7763  0.5162 -0.8707
 7965TIP3   OH245385   5.223   0.510   0.350  0.0902  0.2533 -0.3020
 7965TIP3    H145386   5.237   0.415   0.352  0.0343  0.2455 -0.2909
 7965TIP3    H245387   5.131   0.521   0.371  0.0453  0.2969 -0.5174
 7966TIP3   OH245388   0.122   3.996  11.143  0.3774  0.4853 -0.3979
 7966TIP3    H145389   0.163   3.933  11.202 -1.8797 -1.1515 -0.4401
 7966TIP3    H245390   0.187   4.009  11.073  1.1622 -1.3348 -0.0758
 7967TIP3   OH245391   1.493   0.752  11.341  0.0482  0.0135 -0.5398
 7967TIP3    H145392   1.446   0.675  11.373  1.7411 -0.6476  0.4939
 7967TIP3    H245393   1.520   0.730  11.252 -0.0528 -0.3289 -0.4843
 7968TIP3   OH245394   1.532   4.681  10.532 -0.1196  0.5810  0.1665
 7968TIP3    H145395   1.508   4.720  10.447  0.1239  0.0978 -0.1303
 7968TIP3    H245396   1.472   4.607  10.542 -0.2819  0.7612  0.5130
 7969TIP3   OH245397   2.796   2.227  16.239  0.0749 -0.0266 -0.7260
 7969TIP3    H145398   2.856   2.217  16.165  0.6413 -0.5499 -0.2158
 7969TIP3    H245399   2.793   2.140  16.279 -0.1370  0.2745 -0.0695
 7970TIP3   OH245400   1.097   6.580  16.624 -0.0167  0.0819 -0.2493
 7970TIP3    H145401   1.089   6.617  16.537  1.8018  0.0729 -0.4554
 7970TIP3    H245402   1.177   6.527  16.621  0.7234  0.9674  1.7027
 7971TIP3   OH245403   4.891   3.589   1.659 -0.0704 -0.1109 -0.4353
 7971TIP3    H145404   4.904   3.680   1.686  0.0472 -0.2100 -0.1526
 7971TIP3    H245405   4.924   3.586   1.569  1.4282 -0.2326  0.0892
 7972TIP3   OH245406   1.375   5.654  13.205  0.5827  0.3230  0.0169
 7972TIP3    H145407   1.382   5.574  13.154  0.8060  1.8461 -2.5255
 7972TIP3    H245408   1.454   5.703  13.183 -0.9832  2.5579 -1.0439
 7973TIP3   OH245409   0.465   6.193   1.046 -1.0028  0.2581  0.1905
 7973TIP3    H145410   0.516   6.128   0.999 -1.9122 -0.0686 -0.3806
 7973TIP3    H245411   0.518   6.216   1.122  0.5403  0.8257 -0.9877
 7974TIP3   OH245412   1.583   2.203  16.864 -0.3577 -0.1261  0.3279
 7974TIP3    H145413   1.526   2.240  16.797 -0.9681 -0.5727  0.5948
 7974TIP3    H245414   1.665   2.252  16.855 -0.3312 -0.3565 -0.9285
 7975TIP3   OH245415   1.809   6.756   0.036 -0.2816  0.3826 -0.5298
 7975TIP3    H145416   1.719   6.789   0.030 -1.2365 -2.3000 -3.4505
 7975TIP3    H245417   1.856   6.802  -0.033 -0.0924 -0.1091 -0.7278
 7976TIP3   OH245418   1.862   2.646   4.041  0.3602 -0.4608 -0.5600
 7976TIP3    H145419   1.919   2.689   3.977  1.0274 -0.1071  0.2474
 7976TIP3    H245420   1.902   2.561   4.055  1.0161 -0.0187  0.3914
 7977TIP3   OH245421   5.215   2.126   4.820  0.2776 -0.0583  0.4656
 7977TIP3    H145422   5.179   2.091   4.901  0.1660  1.2108  0.9954
 7977TIP3    H245423   5.240   2.216   4.842  0.4760  0.2300 -0.8419
 7978TIP3   OH245424   2.981   0.771  15.673 -0.0340 -0.0444  0.6422
 7978TIP3    H145425   2.951   0.826  15.601 -0.7269 -0.3935  0.6604
 7978TIP3    H245426   2.926   0.796  15.748 -1.1952 -1.5723  0.3539
 7979TIP3   OH245427   6.243   1.818  14.119 -0.4034  0.1288  0.1086
 7979TIP3    H145428   6.283   1.875  14.053 -0.9059  1.2491  0.7454
 7979TIP3    H245429   6.151   1.842  14.120 -0.7358 -1.0708  0.0356
 7980TIP3   OH245430   0.341   5.761   0.659  0.4768 -0.5998 -0.1634
 7980TIP3    H145431   0.354   5.673   0.625  1.1988  0.3399 -2.5345
 7980TIP3    H245432   0.250   5.782   0.638  0.0130 -1.0929  1.2652
 7981TIP3   OH245433   2.140   4.408  12.103 -0.1928 -0.1494  0.1894
 7981TIP3    H145434   2.136   4.342  12.172 -0.9968 -1.4881 -1.0795
 7981TIP3    H245435   2.054   4.404  12.062  0.5430 -0.0148 -1.4223
 7982TIP3   OH245436   2.889   4.017   4.063 -0.4160  0.1855  0.1306
 7982TIP3    H145437   2.937   4.083   4.014  0.3089 -0.6569 -0.3139
 7982TIP3    H245438   2.855   4.064   4.139  0.9692  0.8443  0.3739
 7983TIP3   OH245439   5.465   1.474  12.254 -0.2489 -0.0790 -0.0943
 7983TIP3    H145440   5.515   1.541  12.300 -0.7245  0.5348 -0.4559
 7983TIP3    H245441   5.527   1.438  12.190  0.0143 -0.0154  0.1200
 7984TIP3   OH245442   6.523   2.580   1.068  0.1011 -0.3940  0.1932
 7984TIP3    H145443   6.510   2.489   1.043  0.5369  0.1894 -2.5588
 7984TIP3    H245444   6.614   2.585   1.095 -0.4505 -1.1071  2.3475
 7985TIP3   OH245445   2.957   6.520  15.248  0.0641 -0.1092  0.1503
 7985TIP3    H145446   2.949   6.608  15.285 -3.4733  0.3816 -1.4282
 7985TIP3    H245447   2.918   6.463  15.314 -0.4997 -0.0700 -0.1475
 7986TIP3   OH245448   0.140   6.745  17.181 -0.5121  0.4910 -0.2862
 7986TIP3    H145449   0.096   6.808  17.125 -2.1054 -0.2416  0.0731
 7986TIP3    H245450   0.141   6.664  17.130 -0.1952  0.3150 -0.0103
 7987TIP3   OH245451   3.443   5.609   1.826  0.0049  0.1189 -0.0463
 7987TIP3    H145452   3.397   5.607   1.741  1.1101 -0.1915 -0.6564
 7987TIP3    H245453   3.391   5.668   1.880 -1.4232 -0.6473 -0.5324
 7988TIP3   OH245454   4.639   3.373  16.513 -0.4206  0.1669 -0.1403
 7988TIP3    H145455   4.672   3.302  16.568  0.3738  1.4395  1.0781
 7988TIP3    H245456   4.688   3.364  16.431  3.5104  2.1879  1.6928
 7989TIP3   OH245457   1.115   2.405   4.382 -0.2083 -0.2829  0.0789
 7989TIP3    H145458   1.075   2.459   4.314 -1.7090 -0.8807  0.4202
 7989TIP3    H245459   1.054   2.332   4.392 -0.5311  0.2399  2.6761
 7990TIP3   OH245460   0.543   3.905  14.123  0.1064  0.5839  0.2870
 7990TIP3    H145461   0.608   3.846  14.085 -0.1896 -1.2452  2.4273
 7990TIP3    H245462   0.505   3.950  14.047  0.8882 -1.4212 -1.4110
 7991TIP3   OH245463   3.394   1.083  13.179 -0.4045 -0.2707 -0.0052
 7991TIP3    H145464   3.463   1.123  13.126 -0.3281  0.0433  0.3266
 7991TIP3    H245465   3.426   1.089  13.269 -0.3521 -1.1717  0.0479
 7992TIP3   OH245466   5.073   2.169   4.357 -0.7352 -0.0452  0.2847
 7992TIP3    H145467   4.989   2.213   4.351 -1.5418 -1.6740 -1.3020
 7992TIP3    H245468   5.074   2.109   4.283  1.6951 -0.3132  0.4521
 7993TIP3   OH245469   2.741   1.399   0.812  0.2517  0.5049 -0.7420
 7993TIP3    H145470   2.692   1.437   0.739 -1.4646 -2.1039 -1.0828
 7993TIP3    H245471   2.682   1.333   0.848  2.2180 -0.3324  1.1231
 7994TIP3   OH245472   4.092   5.828   3.340  0.2812  0.1322  0.5678
 7994TIP3    H145473   4.063   5.832   3.432  0.4649 -0.2120  0.6414
 7994TIP3    H245474   4.114   5.736   3.326 -0.9602 -0.0727 -0.1988
 7995TIP3   OH245475   3.748   2.547   5.811  0.5421 -0.2536  0.2270
 7995TIP3    H145476   3.683   2.613   5.788  1.1975 -0.0479 -1.1707
 7995TIP3    H245477   3.804   2.540   5.733  1.1377 -1.6788  0.7366
 7996TIP3   OH245478   2.610   3.372   3.385  0.4087 -0.3355  0.0803
 7996TIP3    H145479   2.530   3.384   3.335 -0.7740 -0.2626  1.9091
 7996TIP3    H245480   2.593   3.296   3.441  1.0283  0.6030  1.5905
 7997TIP3   OH245481   3.034   5.560  15.385  0.1037 -0.9600 -0.2683
 7997TIP3    H145482   3.037   5.597  15.297  0.9926  0.7902  0.4534
 7997TIP3    H245483   3.072   5.473  15.376  1.6299 -0.2141 -1.3615
 7998TIP3   OH245484   3.778   0.272  14.231  0.3927 -0.3386  0.2566
 7998TIP3    H145485   3.798   0.338  14.297 -1.8296 -1.0714  1.7917
 7998TIP3    H245486   3.721   0.317  14.168  0.6516 -0.2413  0.0893
 7999TIP3   OH245487   0.510   1.561   0.186  0.2475 -0.2163 -0.1471
 7999TIP3    H145488   0.528   1.575   0.279 -0.2634  1.4565 -0.2685
 7999TIP3    H245489   0.586   1.513   0.155  1.1172  0.4504  0.8543
 8000TIP3   OH245490   2.854   2.790  15.703 -0.7841 -0.2451  0.3313
 8000TIP3    H145491   2.759   2.789  15.709 -0.7907  1.0389  0.6042
 8000TIP3    H245492   2.881   2.867  15.753  0.4807 -1.2664  1.3074
 8001TIP3   OH245493   1.194   6.769   5.589 -0.0399 -0.1499  0.3043
 8001TIP3    H145494   1.255   6.729   5.651  0.1428 -1.9058 -0.9346
 8001TIP3    H245495   1.121   6.707   5.583 -1.5980  1.5213  1.1270
 8002TIP3   OH245496   3.750   4.690   3.845 -0.4630 -0.0528 -0.0018
 8002TIP3    H145497   3.830   4.706   3.794  0.3637 -1.2078  0.8851
 8002TIP3    H245498   3.745   4.595   3.853 -2.3375 -0.0423 -0.6356
 8003TIP3   OH245499   4.759   3.728   6.103  0.2203 -0.0766 -0.2335
 8003TIP3    H145500   4.712   3.699   6.181 -0.8564  0.9387 -0.4829
 8003TIP3    H245501   4.789   3.816   6.124  0.3362  0.0199 -0.7876
 8004TIP3   OH245502   1.728   6.778   1.644 -0.1247  0.0679  0.0298
 8004TIP3    H145503   1.696   6.865   1.621  2.8011  1.0621 -0.7500
 8004TIP3    H245504   1.760   6.741   1.561 -1.6068 -1.9298  0.2819
 8005TIP3   OH245505   6.251   1.776   0.309  0.3549 -0.1777 -0.0172
 8005TIP3    H145506   6.283   1.806   0.394 -0.1972  1.2298 -0.2799
 8005TIP3    H245507   6.320   1.799   0.247  1.5942 -2.8359  0.2190
 8006TIP3   OH245508   0.831   5.259   0.142 -0.1526  0.0953  0.0772
 8006TIP3    H145509   0.785   5.337   0.174 -0.2294 -1.1339  3.3684
 8006TIP3    H245510   0.870   5.221   0.220  2.5766 -1.4901 -1.8913
 8007TIP3   OH245511   0.332   6.149  12.467 -0.1938 -0.1239 -1.0754
 8007TIP3    H145512   0.317   6.156  12.561  0.5905  0.1282 -0.9625
 8007TIP3    H245513   0.267   6.208  12.428 -1.2339 -1.0396 -0.7627
 8008TIP3   OH245514   0.822   4.980   4.756 -0.7619 -0.6322  0.1412
 8008TIP3    H145515   0.805   4.972   4.850  1.5932 -1.3567  0.5541
 8008TIP3    H245516   0.903   5.030   4.749 -0.0766 -1.8506 -1.4142
 8009TIP3   OH245517   1.740   0.687   4.738  0.1040 -0.3219 -0.2638
 8009TIP3    H145518   1.679   0.749   4.777  0.2184  0.3993 -1.1822
 8009TIP3    H245519   1.704   0.669   4.651 -0.1204 -1.8516  0.1219
 8010TIP3   OH245520   3.006   5.464  14.599  0.4972  0.1741  0.2309
 8010TIP3    H145521   3.052   5.380  14.601  0.2318  0.0090 -0.4088
 8010TIP3    H245522   2.930   5.452  14.656  0.1797 -0.1935 -0.2596
 8011TIP3   OH245523   3.532   6.159   1.817  0.2880 -0.1571 -0.6126
 8011TIP3    H145524   3.444   6.137   1.786  0.2331 -0.6584 -0.1268
 8011TIP3    H245525   3.561   6.229   1.759  0.9980 -2.3566 -3.1421
 8012TIP3   OH245526   3.519   6.283  13.611 -0.0428  0.5045 -0.6934
 8012TIP3    H145527   3.494   6.261  13.521  0.7229  2.0752 -1.3282
 8012TIP3    H245528   3.563   6.204  13.643  1.6522  0.6339 -2.4928
 8013TIP3   OH245529   1.410   5.773   5.528  0.2700 -0.0141  0.0182
 8013TIP3    H145530   1.322   5.779   5.490  0.6847  2.3880 -0.7605
 8013TIP3    H245531   1.438   5.864   5.538  3.3038 -0.6664 -1.3156
 8014TIP3   OH245532   3.864   3.467   6.029  0.3210  0.0453  0.1779
 8014TIP3    H145533   3.864   3.402   6.100  0.6161 -0.2547 -0.0959
 8014TIP3    H245534   3.902   3.545   6.068  1.3883 -0.4169  0.0805
 8015TIP3   OH245535   0.518   4.826  14.451 -0.3658 -0.1050 -0.6370
 8015TIP3    H145536   0.545   4.892  14.515 -1.5651 -0.5744  0.3747
 8015TIP3    H245537   0.507   4.876  14.370  0.4474  0.6278 -0.3165
 8016TIP3   OH245538   2.198   6.023  11.903  0.1114  0.0759  0.1902
 8016TIP3    H145539   2.280   5.993  11.943 -0.0695 -0.3390  0.2622
 8016TIP3    H245540   2.145   5.943  11.896  1.3366 -0.5913 -3.8946
 8017TIP3   OH245541   5.215   2.952  12.188 -0.1755  0.1974 -0.2050
 8017TIP3    H145542   5.219   2.936  12.094  2.5033  0.7092 -0.2674
 8017TIP3    H245543   5.189   2.868  12.226  0.9232 -0.6605 -1.2884
 8018TIP3   OH245544   3.936   2.476   5.415 -0.0183 -0.2740 -0.3960
 8018TIP3    H145545   3.844   2.494   5.432 -0.2608  0.5970 -2.4479
 8018TIP3    H245546   3.980   2.560   5.426  0.5405 -0.6607  0.4594
 8019TIP3   OH245547   1.629   5.923   2.685 -0.3164 -0.2150  0.3607
 8019TIP3    H145548   1.558   5.962   2.635  0.1933 -1.0340 -1.0662
 8019TIP3    H245549   1.666   5.856   2.627  2.3443  0.9194  0.5705
 8020TIP3   OH245550   0.682   0.395  11.150  0.8180 -0.6918  0.2714
 8020TIP3    H145551   0.722   0.310  11.133  1.0464 -0.1108 -2.5054
 8020TIP3    H245552   0.692   0.444  11.068 -0.1819  1.6744  1.4485
 8021TIP3   OH245553   3.630   3.472   1.522  0.4024  0.4849  0.2567
 8021TIP3    H145554   3.598   3.459   1.432  0.2967 -0.2565  0.4002
 8021TIP3    H245555   3.700   3.409   1.532  0.0353  0.1674  0.8868
 8022TIP3   OH245556   1.521   3.304   2.159  0.6492  0.0206  0.2531
 8022TIP3    H145557   1.558   3.317   2.247  2.8300 -2.2916 -0.1924
 8022TIP3    H245558   1.434   3.343   2.164  0.8185  0.2950  3.3391
 8023TIP3   OH245559   6.701   1.217  16.898  0.0443 -0.1801 -0.3171
 8023TIP3    H145560   6.608   1.210  16.879 -0.1679 -0.0637  0.6333
 8023TIP3    H245561   6.707   1.287  16.964  1.0905  1.9311 -2.4602
 8024TIP3   OH245562   2.385   5.345  14.414  1.0411 -0.2139 -0.1292
 8024TIP3    H145563   2.349   5.317  14.498  0.7533  0.3873 -0.0478
 8024TIP3    H245564   2.383   5.441  14.418 -1.0611 -0.1092 -1.6774
 8025TIP3   OH245565   2.685   0.973  11.234  0.0554 -0.2518  0.7598
 8025TIP3    H145566   2.632   0.947  11.309 -2.0200 -1.0317 -0.8720
 8025TIP3    H245567   2.669   1.067  11.225  0.0022 -0.2313  1.0741
 8026TIP3   OH245568   5.999   6.252  16.757 -0.0986  0.6594 -0.0792
 8026TIP3    H145569   5.994   6.180  16.820 -1.6271  0.1031 -0.7771
 8026TIP3    H245570   5.959   6.327  16.803  1.9497  1.2487  0.8304
 8027TIP3   OH245571   0.792   3.085  12.140  0.2007 -0.1062  0.4489
 8027TIP3    H145572   0.827   3.156  12.086 -0.2077  1.2712  1.9298
 8027TIP3    H245573   0.767   3.018  12.077  1.6797  0.5583 -0.9280
 8028TIP3   OH245574   4.181   3.073   1.584 -0.2959 -0.4148  0.7171
 8028TIP3    H145575   4.136   3.048   1.504  0.6952  1.4955 -0.5237
 8028TIP3    H245576   4.231   2.996   1.609  0.9687 -0.4731 -1.7073
 8029TIP3   OH245577   3.366   5.596  12.412 -0.6198  0.5393 -0.2113
 8029TIP3    H145578   3.331   5.550  12.488 -1.2459  1.9002  0.3510
 8029TIP3    H245579   3.291   5.605  12.354 -0.4195  0.5700 -0.4655
 8030TIP3   OH245580   5.399   1.452  16.187 -0.1752 -0.3580 -0.1365
 8030TIP3    H145581   5.387   1.538  16.226  0.0527 -0.9507  1.2744
 8030TIP3    H245582   5.405   1.470  16.093 -1.2397  1.0465  0.0244
 8031TIP3   OH245583   4.305   0.799  12.730  0.0013  0.7825 -0.0439
 8031TIP3    H145584   4.338   0.859  12.663  0.2545  0.3194 -0.3355
 8031TIP3    H245585   4.277   0.856  12.802 -1.7570  1.4109 -1.1651
 8032TIP3   OH245586   5.310   0.216  13.291  0.3606  0.0752 -0.3285
 8032TIP3    H145587   5.304   0.252  13.202 -0.2173  0.6103 -0.0738
 8032TIP3    H245588   5.398   0.180  13.295  0.6138  0.6005 -0.9142
 8033TIP3   OH245589   3.212   0.243  15.050 -0.2396  0.2245 -0.2366
 8033TIP3    H145590   3.169   0.174  15.100  2.5486 -1.7745 -0.3364
 8033TIP3    H245591   3.145   0.274  14.989 -2.3459 -0.5235  1.5496
 8034TIP3   OH245592   3.455   5.175  16.877 -0.1461 -0.4696  0.2435
 8034TIP3    H145593   3.381   5.200  16.932 -0.8584  1.6806 -1.5333
 8034TIP3    H245594   3.531   5.182  16.935 -0.9321  1.0509  1.1708
 8035TIP3   OH245595   3.319   6.029  15.344 -0.4363  0.0167 -0.0679
 8035TIP3    H145596   3.384   5.959  15.339 -2.1731 -1.9363  2.2085
 8035TIP3    H245597   3.284   6.023  15.433 -0.4629  4.0759  0.3576
 8036TIP3   OH245598   3.147   5.939   1.246 -0.3000 -0.1530 -0.1214
 8036TIP3    H145599   3.223   5.921   1.301  0.0321  0.0157 -0.5279
 8036TIP3    H245600   3.128   6.032   1.261 -0.0919 -0.0588 -0.4393
 8037TIP3   OH245601   4.077   3.502   3.592 -0.5592  0.3710 -0.3275
 8037TIP3    H145602   3.989   3.537   3.577 -0.8776 -1.0401 -2.0067
 8037TIP3    H245603   4.135   3.568   3.556 -0.9162  1.2297  0.6213
 8038TIP3   OH245604   0.642   3.773   4.409 -0.1555  0.3630  0.3322
 8038TIP3    H145605   0.672   3.714   4.340 -0.3992  0.1746  0.3872
 8038TIP3    H245606   0.557   3.804   4.379 -0.8299 -0.6609  1.0922
 8039TIP3   OH245607   3.833   6.566  13.360  0.8702  0.0902 -0.6906
 8039TIP3    H145608   3.805   6.486  13.316  1.2717  0.4983 -1.7273
 8039TIP3    H245609   3.818   6.635  13.295  0.7024  0.8267  0.1225
 8040TIP3   OH245610   5.881   4.199   2.359  0.7399 -0.0009  0.6549
 8040TIP3    H145611   5.896   4.273   2.418 -1.1592  1.0882 -0.1154
 8040TIP3    H245612   5.823   4.140   2.408 -0.7497  0.8524  0.0085
 8041TIP3   OH245613   2.364   1.172  12.375  0.0607 -0.8290 -0.1078
 8041TIP3    H145614   2.395   1.247  12.324  0.0066  0.9766  2.3370
 8041TIP3    H245615   2.438   1.150  12.432  0.0692 -2.7009 -0.7617
 8042TIP3   OH245616   5.869   2.759   3.883  0.1319 -0.4077 -0.1091
 8042TIP3    H145617   5.828   2.827   3.829  2.5252  1.6273  0.4848
 8042TIP3    H245618   5.835   2.677   3.847 -2.2162  1.0131 -1.4098
 8043TIP3   OH245619   1.857   4.819   1.869 -0.0433 -0.0067 -0.2436
 8043TIP3    H145620   1.900   4.736   1.889 -1.4318 -0.4882  0.8999
 8043TIP3    H245621   1.928   4.883   1.869  1.0875 -1.1966 -1.3347
 8044TIP3   OH245622   1.016   6.305   2.953  0.2550 -0.0868 -0.1758
 8044TIP3    H145623   1.043   6.365   3.022  0.7950  0.7050 -1.0545
 8044TIP3    H245624   0.990   6.225   2.999 -1.4532  1.1395  1.0931
 8045TIP3   OH245625   3.590   6.368  11.564 -0.4556  0.0883  0.3728
 8045TIP3    H145626   3.582   6.346  11.472  0.1723  2.6558 -0.3590
 8045TIP3    H245627   3.670   6.324  11.593 -1.0178 -1.2858 -0.0821
 8046TIP3   OH245628   0.069   1.815  12.970 -0.5084 -0.4447  0.3254
 8046TIP3    H145629  -0.025   1.798  12.971 -0.5746 -0.1059  2.2067
 8046TIP3    H245630   0.088   1.854  13.055  1.1031  0.8464 -0.5566
 8047TIP3   OH245631   3.975   1.255  16.697 -0.1694  0.4286  0.1453
 8047TIP3    H145632   3.955   1.345  16.722 -2.0604 -0.2338  1.1885
 8047TIP3    H245633   3.993   1.211  16.780 -1.4757 -0.6502 -0.1218
 8048TIP3   OH245634   5.599   5.661   1.252 -0.5520  0.0539  0.2220
 8048TIP3    H145635   5.659   5.731   1.277 -0.6105  0.0549  0.3654
 8048TIP3    H245636   5.526   5.706   1.210  0.0812 -0.0416 -1.0155
 8049TIP3   OH245637   4.609   3.963   2.877 -0.2200 -0.2978  1.1230
 8049TIP3    H145638   4.617   4.053   2.846  0.8738 -0.7721 -0.1046
 8049TIP3    H245639   4.681   3.953   2.940  0.6218 -0.7181  0.1270
 8050TIP3   OH245640   1.739   4.875  11.880  0.0274  0.5355 -0.0312
 8050TIP3    H145641   1.765   4.962  11.912  2.1105  0.9218 -2.4134
 8050TIP3    H245642   1.820   4.823  11.885 -0.5259 -0.4664 -1.1142
 8051TIP3   OH245643   3.834   0.341   2.088 -0.3439  0.4150  0.4988
 8051TIP3    H145644   3.761   0.373   2.140 -1.1152  0.6867 -0.7234
 8051TIP3    H245645   3.905   0.327   2.152 -1.2666  0.6958  1.6073
 8052TIP3   OH245646   1.140   0.791   0.298 -0.1091 -0.4689  0.1637
 8052TIP3    H145647   1.141   0.759   0.208 -0.9714 -0.8966  0.2997
 8052TIP3    H245648   1.190   0.725   0.347  0.8620  0.0595 -0.0803
 8053TIP3   OH245649   3.938   4.218  13.047  0.6604  0.0896  0.3446
 8053TIP3    H145650   3.960   4.218  12.954  0.7865  1.5159  0.3575
 8053TIP3    H245651   3.899   4.304  13.063 -1.2988 -0.8970  1.1821
 8054TIP3   OH245652   0.281   4.165  12.860 -0.2263 -0.1212 -0.0084
 8054TIP3    H145653   0.202   4.175  12.913 -0.7027  0.7364 -0.8437
 8054TIP3    H245654   0.278   4.238  12.799  0.5098 -0.8595 -0.9557
 8055TIP3   OH245655   0.252   4.972   5.275  0.1130 -0.6090  0.0711
 8055TIP3    H145656   0.194   4.952   5.348 -0.3511 -1.2546 -0.4615
 8055TIP3    H245657   0.339   4.945   5.305 -0.0320 -0.6224  0.4806
 8056TIP3   OH245658   3.123   4.053   2.836 -0.9262  0.2464  0.3661
 8056TIP3    H145659   3.074   3.971   2.838 -1.4870  0.5851  0.7082
 8056TIP3    H245660   3.129   4.075   2.743  0.2564 -0.7808  0.1705
 8057TIP3   OH245661   3.579   3.393   0.652 -1.2056 -0.1987  0.2840
 8057TIP3    H145662   3.558   3.469   0.706 -1.1509 -0.7090  1.0427
 8057TIP3    H245663   3.555   3.419   0.563  0.3418  1.3082  0.2512
 8058TIP3   OH245664   6.643   2.346  16.349 -0.6977  0.0438  0.6549
 8058TIP3    H145665   6.570   2.322  16.405 -1.7950 -1.2359 -1.2158
 8058TIP3    H245666   6.698   2.268  16.345 -0.4441  0.2388  0.2248
 8059TIP3   OH245667   0.249   0.047   3.045  0.0606 -0.5716 -0.7138
 8059TIP3    H145668   0.334   0.047   3.090 -0.8016  0.4132  1.0140
 8059TIP3    H245669   0.227   0.140   3.036 -0.6822 -0.8144 -1.4682
 8060TIP3   OH245670   3.908   5.923   2.691 -0.1457 -0.3457  0.1588
 8060TIP3    H145671   3.909   6.018   2.681  1.6783 -0.4571 -1.1637
 8060TIP3    H245672   3.856   5.891   2.617 -1.2118 -0.3833  0.9012
 8061TIP3   OH245673   2.122   2.638  15.896  0.2440 -0.4486  0.3973
 8061TIP3    H145674   2.149   2.548  15.914  0.5860 -0.5168 -0.4302
 8061TIP3    H245675   2.050   2.654  15.957  0.0035 -1.3717  0.3690
 8062TIP3   OH245676   4.104   3.781  14.539  0.0296  0.6214  0.1080
 8062TIP3    H145677   4.027   3.735  14.572 -1.0029  1.8862 -0.4286
 8062TIP3    H245678   4.075   3.872  14.529  1.6585  1.1751  0.0788
 8063TIP3   OH245679   5.706   4.771  13.205 -0.7380  0.4829 -0.0912
 8063TIP3    H145680   5.660   4.754  13.122 -0.1806  0.6305 -0.4352
 8063TIP3    H245681   5.733   4.684  13.235 -1.6062  0.3481  0.3339
 8064TIP3   OH245682   4.699   1.750   2.933 -0.4284 -0.1603  0.0997
 8064TIP3    H145683   4.748   1.761   3.015 -1.5863 -1.1227  0.9549
 8064TIP3    H245684   4.766   1.728   2.868  0.3784 -0.5260  1.0306
 8065TIP3   OH245685   4.354   3.103   1.978  0.3445  0.1125 -0.1557
 8065TIP3    H145686   4.351   3.193   1.945 -0.0411  0.1500 -0.0207
 8065TIP3    H245687   4.401   3.109   2.061  0.1796  0.2113 -0.0701
 8066TIP3   OH245688   0.721   4.625   0.475 -0.0741 -0.6940  0.0485
 8066TIP3    H145689   0.675   4.707   0.491 -0.3363 -1.2199  2.4453
 8066TIP3    H245690   0.653   4.558   0.472  0.0919 -0.8319 -2.3800
 8067TIP3   OH245691   5.380   5.878  15.613  0.2562 -0.3636 -0.0660
 8067TIP3    H145692   5.353   5.923  15.533  0.1931 -0.7838 -0.2867
 8067TIP3    H245693   5.316   5.905  15.678  0.0361 -0.3758 -0.2753
 8068TIP3   OH245694   5.877   1.545  15.864  0.3372 -0.2448 -0.0324
 8068TIP3    H145695   5.932   1.581  15.795 -0.5013  3.2897  0.9336
 8068TIP3    H245696   5.938   1.497  15.921  1.4870 -0.7227 -1.6104
 8069TIP3   OH245697   6.530   5.611   1.871 -0.4658 -0.2037 -0.0421
 8069TIP3    H145698   6.560   5.658   1.793  0.5677 -0.4987  0.1653
 8069TIP3    H245699   6.436   5.599   1.856 -0.2825 -0.2867 -1.2599
 8070TIP3   OH245700   3.816   1.163   0.209 -1.0255 -0.5488  0.1534
 8070TIP3    H145701   3.772   1.078   0.217 -1.0826 -0.6288 -0.8581
 8070TIP3    H245702   3.872   1.153   0.131 -2.0562  0.7690 -0.7911
 8071TIP3   OH245703   0.842   0.792  15.412  0.1999  0.3583 -0.2678
 8071TIP3    H145704   0.826   0.789  15.506 -0.2476  3.8894 -0.1244
 8071TIP3    H245705   0.921   0.845  15.403  1.8935 -2.1885 -1.8616
 8072TIP3   OH245706   5.392   3.020   3.510 -0.7235  0.6525 -0.2388
 8072TIP3    H145707   5.316   3.057   3.555 -0.5942  0.8067 -0.1452
 8072TIP3    H245708   5.364   2.932   3.484 -0.5296  0.2545  0.8427
 8073TIP3   OH245709   5.716   5.656   1.860  0.4374  0.3485  0.0987
 8073TIP3    H145710   5.711   5.636   1.953  0.7067  1.2067  0.3054
 8073TIP3    H245711   5.639   5.614   1.822  0.3690 -0.0726  0.6868
 8074TIP3   OH245712   5.982   6.111   6.850  0.4032  0.2494  0.0728
 8074TIP3    H145713   5.995   6.175   6.919 -1.4791  2.6105 -1.5766
 8074TIP3    H245714   6.038   6.142   6.778  1.0271 -1.1795 -0.0873
 8075TIP3   OH245715   5.358   0.846  16.568  0.2865 -0.5988  0.3629
 8075TIP3    H145716   5.276   0.802  16.590 -0.5107  1.5092  1.9505
 8075TIP3    H245717   5.334   0.910  16.501  0.2407  1.0284  1.8484
 8076TIP3   OH245718   1.561   3.682   4.976 -0.4827  0.1722 -0.0556
 8076TIP3    H145719   1.636   3.668   5.035 -0.7965  0.3188  0.3870
 8076TIP3    H245720   1.495   3.620   5.007 -0.8172  0.5717  0.0396
 8077TIP3   OH245721   4.712   4.616  15.223 -0.2525  0.2732 -0.1923
 8077TIP3    H145722   4.620   4.618  15.247 -1.1903 -1.6083 -3.0549
 8077TIP3    H245723   4.715   4.649  15.133  1.9697  0.8243  0.0151
 8078TIP3   OH245724   1.569   2.044   1.676 -0.1492  0.0931  0.7965
 8078TIP3    H145725   1.575   2.103   1.601 -0.3055 -0.6215  0.2036
 8078TIP3    H245726   1.475   2.029   1.687 -0.1736  0.8126  1.6412
 8079TIP3   OH245727   6.179   5.743  15.070  0.8397  0.1264 -0.0193
 8079TIP3    H145728   6.264   5.706  15.045  1.6356  1.6731  0.2810
 8079TIP3    H245729   6.169   5.819  15.013 -0.5812 -0.2946 -0.3679
 8080TIP3   OH245730   5.213   2.937   5.761  0.7031 -0.6288  0.1761
 8080TIP3    H145731   5.183   2.864   5.815 -1.0552 -0.9122 -1.1059
 8080TIP3    H245732   5.288   2.901   5.713 -0.6431 -1.9470 -1.0634
 8081TIP3   OH245733   2.134   0.060  12.537  0.1091 -0.8014 -0.0342
 8081TIP3    H145734   2.229   0.069  12.532 -0.0161  1.0715  0.2142
 8081TIP3    H245735   2.101   0.150  12.541 -1.5701 -1.4099  1.6397
 8082TIP3   OH245736   2.394   4.585  16.546 -0.8334  0.1322 -0.0058
 8082TIP3    H145737   2.460   4.629  16.600 -0.8550  1.4487 -1.0078
 8082TIP3    H245738   2.311   4.621  16.577 -1.0441 -0.9099  0.6914
 8083TIP3   OH245739   5.950   4.362   2.582  0.0851  0.1748  0.1066
 8083TIP3    H145740   6.007   4.382   2.656 -0.7800 -0.4446  0.9587
 8083TIP3    H245741   5.861   4.371   2.617 -0.3902  1.6087 -1.3107
 8084TIP3   OH245742   3.301   4.133  15.410 -0.3221  0.5480 -0.0029
 8084TIP3    H145743   3.377   4.085  15.442 -0.8131 -0.7999 -0.7616
 8084TIP3    H245744   3.287   4.099  15.322 -2.3063  0.0953  0.4299
 8085TIP3   OH245745   0.016   4.368   5.395 -0.3180  0.2634 -0.6161
 8085TIP3    H145746   0.020   4.322   5.311  0.0546 -1.5352  0.3489
 8085TIP3    H245747  -0.018   4.303   5.457  0.6732  1.1384  0.9125
 8086TIP3   OH245748   4.360   4.492  15.561  0.0672 -0.5527 -0.1261
 8086TIP3    H145749   4.269   4.497  15.590 -0.2588  1.4829 -1.3080
 8086TIP3    H245750   4.395   4.414  15.605 -1.7829 -0.5097  1.5681
 8087TIP3   OH245751   1.452   3.141   2.636 -0.5203  0.3568 -0.4155
 8087TIP3    H145752   1.522   3.120   2.574 -0.2869  2.3459 -0.8972
 8087TIP3    H245753   1.460   3.236   2.650 -0.9949  0.1027  2.1403
 8088TIP3   OH245754   1.448   2.498  15.245  0.0031  0.0065 -0.2527
 8088TIP3    H145755   1.519   2.482  15.307  0.2861  0.2196 -0.5135
 8088TIP3    H245756   1.378   2.439  15.272 -0.0068  0.3508  0.4746
 8089TIP3   OH245757   0.318   4.067  13.262  0.4696  0.0460 -0.0422
 8089TIP3    H145758   0.322   4.163  13.259  0.7125  0.0166 -1.9871
 8089TIP3    H245759   0.225   4.047  13.247 -0.0245 -0.0366  2.6371
 8090TIP3   OH245760   5.322   6.235   0.830 -0.3604 -0.2043  0.1244
 8090TIP3    H145761   5.295   6.278   0.750 -2.1491  1.9024  1.7281
 8090TIP3    H245762   5.264   6.159   0.837 -1.8786  0.9414  0.5404
 8091TIP3   OH245763   4.554   4.514   6.598  0.0674 -0.1632  0.1122
 8091TIP3    H145764   4.647   4.515   6.574  0.1892  1.7291  0.5287
 8091TIP3    H245765   4.554   4.534   6.692 -0.7938  0.6023 -0.0458
 8092TIP3   OH245766   6.017   4.890  12.822  0.0600 -0.1929 -0.2245
 8092TIP3    H145767   5.963   4.925  12.893  0.7730  1.1028 -0.2849
 8092TIP3    H245768   6.103   4.877  12.862  0.2917 -0.0901 -0.6831
 8093TIP3   OH245769   3.606   4.353  12.755  0.1365  0.4142  0.6872
 8093TIP3    H145770   3.536   4.381  12.696 -1.0292  0.5421  2.0819
 8093TIP3    H245771   3.680   4.336  12.697 -1.2727 -0.5149 -0.9498
 8094TIP3   OH245772   1.093   5.345  15.702  0.2647  0.5671 -0.4787
 8094TIP3    H145773   1.119   5.264  15.658  0.5999  0.3041  0.1972
 8094TIP3    H245774   1.146   5.413  15.660  1.9022  0.0772  0.6939
 8095TIP3   OH245775   4.986   3.168  16.042  0.0165  0.0592 -0.6669
 8095TIP3    H145776   5.040   3.155  16.120  0.7587 -1.0584 -1.3398
 8095TIP3    H245777   4.897   3.149  16.071  0.3435 -0.8020 -0.1850
 8096TIP3   OH245778   5.251   5.601  16.940  0.4868  0.0831  0.3074
 8096TIP3    H145779   5.295   5.567  17.017  2.2340 -0.0277 -0.6767
 8096TIP3    H245780   5.322   5.618  16.877 -0.9037 -0.3267 -1.4660
 8097TIP3   OH245781   5.538   2.763  15.760  0.5794 -0.1513 -0.4073
 8097TIP3    H145782   5.467   2.769  15.697  1.0307  0.3747 -0.8725
 8097TIP3    H245783   5.564   2.853  15.777 -1.2147 -0.0329  2.4960
 8098TIP3   OH245784   4.225   6.398  15.468  0.1283  0.4006 -0.1932
 8098TIP3    H145785   4.224   6.460  15.396  3.9819 -0.7480 -1.4868
 8098TIP3    H245786   4.313   6.405  15.504 -0.9779 -0.6385  3.0704
 8099TIP3   OH245787   4.863   3.388   2.226 -0.3523 -0.0037  0.8751
 8099TIP3    H145788   4.883   3.458   2.164  0.1012  1.0700  2.1854
 8099TIP3    H245789   4.859   3.432   2.311  1.9580 -1.8439  2.0598
 8100TIP3   OH245790   6.701   1.491   6.044  0.5790 -0.1942 -0.7508
 8100TIP3    H145791   6.666   1.563   6.098 -0.0961  0.0220 -1.4543
 8100TIP3    H245792   6.787   1.522   6.016  0.8458 -0.2199  0.0276
 8101TIP3   OH245793   6.269   3.043  14.852  0.3108 -0.8471  0.0530
 8101TIP3    H145794   6.194   3.001  14.810  0.4915 -2.9026  1.6114
 8101TIP3    H245795   6.236   3.071  14.937  0.7086  0.5340 -0.2237
 8102TIP3   OH245796   4.534   2.069  13.873 -0.9120  0.0828  0.3864
 8102TIP3    H145797   4.516   1.975  13.878  1.2972 -0.4185  0.0666
 8102TIP3    H245798   4.552   2.085  13.780 -1.0091  0.7573  0.4770
 8103TIP3   OH245799   5.159   3.612   2.874 -0.2110  0.4900 -0.7012
 8103TIP3    H145800   5.152   3.574   2.786 -1.1700  0.2671 -0.5422
 8103TIP3    H245801   5.118   3.698   2.866 -0.1714  0.5275 -0.5068
 8104TIP3   OH245802   0.074   1.140  14.805 -0.1548  0.3128  0.1321
 8104TIP3    H145803   0.017   1.212  14.832  0.5529  0.0889  2.4788
 8104TIP3    H245804   0.161   1.165  14.836  0.8574  0.1095 -2.3446
 8105TIP3   OH245805   4.936   1.877  13.741 -0.6093  0.0188 -0.9359
 8105TIP3    H145806   4.979   1.808  13.792 -0.9823  0.8871  0.6241
 8105TIP3    H245807   4.998   1.897  13.671  0.0955 -0.9636 -0.6235
 8106TIP3   OH245808   3.845   5.307   4.217  0.8511 -0.1688  0.1305
 8106TIP3    H145809   3.756   5.287   4.246  0.9903 -0.1489  0.5758
 8106TIP3    H245810   3.872   5.231   4.166  0.2307  0.2224 -0.8140
 8107TIP3   OH245811   6.493   4.625  15.703 -0.0737 -0.8571  0.1096
 8107TIP3    H145812   6.466   4.631  15.611 -0.1523 -0.7487  0.1389
 8107TIP3    H245813   6.587   4.608  15.699  0.5608  2.0215 -0.0108
 8108TIP3   OH245814   6.188   1.692  17.358  0.0283  0.4612 -0.3725
 8108TIP3    H145815   6.143   1.607  17.367  2.4182 -0.7301  1.6457
 8108TIP3    H245816   6.135   1.752  17.411  0.0000 -0.5413  0.7744
 8109TIP3   OH245817   4.318   2.785   4.403  0.0634 -0.3714  0.2628
 8109TIP3    H145818   4.264   2.786   4.324  0.4201  1.6712  0.0057
 8109TIP3    H245819   4.354   2.696   4.406 -2.8685 -1.6902  0.2043
 8110TIP3   OH245820   1.473   0.295  11.774  0.1103 -0.5627 -0.2310
 8110TIP3    H145821   1.417   0.218  11.767  0.3317 -0.7379 -0.1097
 8110TIP3    H245822   1.454   0.331  11.861 -0.3209 -0.2171 -0.4604
 8111TIP3   OH245823   6.640   2.708   5.125 -0.0703 -0.3535  0.2191
 8111TIP3    H145824   6.643   2.764   5.202  0.5592  0.4443 -0.3648
 8111TIP3    H245825   6.704   2.638   5.144  0.1125 -0.1385  0.3998
 8112TIP3   OH245826   5.560   2.957   3.837 -0.2203 -0.2857 -0.1824
 8112TIP3    H145827   5.517   3.020   3.896 -0.6409 -0.8138  0.0864
 8112TIP3    H245828   5.632   3.006   3.799  0.2518 -0.0078  1.0046
 8113TIP3   OH245829   4.641   5.833  14.161 -0.1050 -0.3607 -0.9873
 8113TIP3    H145830   4.608   5.754  14.119  1.9873 -1.3676 -0.9189
 8113TIP3    H245831   4.658   5.806  14.252  2.0645 -0.3716 -1.3274
 8114TIP3   OH245832   4.406   1.091  15.090 -0.4189  0.3604  0.6109
 8114TIP3    H145833   4.317   1.111  15.120 -0.4534 -0.0154  0.7710
 8114TIP3    H245834   4.393   1.037  15.012 -0.3697 -1.6123  1.8878
 8115TIP3   OH245835   4.140   1.350   2.997  0.6683  0.2549  0.5408
 8115TIP3    H145836   4.233   1.334   3.015  0.8484 -0.1838 -0.6705
 8115TIP3    H245837   4.095   1.275   3.035  0.9639 -0.2656 -0.1028
 8116TIP3   OH245838   6.690   2.861  12.538 -0.4526  0.5090 -0.2081
 8116TIP3    H145839   6.708   2.771  12.512  0.2098  0.8472 -0.9572
 8116TIP3    H245840   6.768   2.909  12.513 -1.2567  1.5065 -0.8937
 8117TIP3   OH245841   1.234   1.063   3.239 -0.3047 -1.0209  0.2712
 8117TIP3    H145842   1.311   1.012   3.211 -0.9650 -2.0800  0.3413
 8117TIP3    H245843   1.163   1.032   3.182 -0.3478  1.1520 -0.9594
 8118TIP3   OH245844   6.302   0.343  16.955  0.0824  0.1385  0.2896
 8118TIP3    H145845   6.268   0.400  17.024 -0.1508 -1.6630  1.7613
 8118TIP3    H245846   6.350   0.401  16.897 -1.6261  2.0746  0.6983
 8119TIP3   OH245847   1.575   2.250  14.651 -0.0818 -0.6467  0.4559
 8119TIP3    H145848   1.561   2.172  14.598 -2.5442 -0.7214  1.1115
 8119TIP3    H245849   1.670   2.261  14.654  0.1999 -1.7982 -2.2315
 8120TIP3   OH245850   2.101   6.142   2.883  0.9403  0.2919 -0.4697
 8120TIP3    H145851   2.013   6.120   2.853  0.6564  0.6900  0.0721
 8120TIP3    H245852   2.158   6.086   2.830  0.3307 -0.4711 -0.3364
 8121TIP3   OH245853   5.310   2.724  11.362  0.2444 -0.1123  0.0487
 8121TIP3    H145854   5.237   2.711  11.302 -0.3479 -0.7283  0.8840
 8121TIP3    H245855   5.275   2.778  11.432  1.3349  1.8816 -0.8583
 8122TIP3   OH245856   0.995   0.595  14.224 -0.5505 -0.4297  0.0062
 8122TIP3    H145857   1.024   0.614  14.135  0.4435  0.3916  0.4870
 8122TIP3    H245858   1.047   0.520  14.251 -0.8552 -0.6813 -0.0897
 8123TIP3   OH245859   1.245   0.010   0.086  0.1299 -0.2718  0.4865
 8123TIP3    H145860   1.267  -0.038   0.006  0.6816 -0.0952  0.5297
 8123TIP3    H245861   1.149   0.012   0.087  0.1101 -0.7699  0.1263
 8124TIP3   OH245862   2.032   6.186  15.315 -0.1302 -0.4818  0.1441
 8124TIP3    H145863   2.081   6.268  15.321  0.1412 -0.3596 -2.5507
 8124TIP3    H245864   2.067   6.143  15.237 -2.2044 -1.8353 -0.1150
 8125TIP3   OH245865   4.008   4.174   0.749 -0.3381 -0.6198 -0.2467
 8125TIP3    H145866   3.957   4.158   0.829  1.5858 -0.2125  1.1297
 8125TIP3    H245867   3.944   4.208   0.687 -2.0457 -1.6415  0.8524
 8126TIP3   OH245868   0.870   6.450   2.748 -0.1459 -0.0666  0.6004
 8126TIP3    H145869   0.900   6.414   2.832 -0.8858 -0.8307  0.5577
 8126TIP3    H245870   0.804   6.387   2.718 -0.0151  0.2910 -0.4730
 8127TIP3   OH245871   1.658   2.452   5.330  0.3052 -0.0556 -0.5465
 8127TIP3    H145872   1.697   2.366   5.313 -1.3713 -1.1675  0.7488
 8127TIP3    H245873   1.686   2.507   5.257  2.3245 -1.3818 -0.8389
 8128TIP3   OH245874   2.376   2.642  15.739  0.7908 -0.6042  0.4673
 8128TIP3    H145875   2.306   2.684  15.789  0.6377  1.3030 -1.2084
 8128TIP3    H245876   2.331   2.603  15.664  1.4825  0.6502 -0.6347
 8129TIP3   OH245877   5.211   2.103  10.715 -0.4151  0.2872 -0.8900
 8129TIP3    H145878   5.141   2.164  10.739 -1.2593 -0.6918 -0.7655
 8129TIP3    H245879   5.168   2.017  10.717  1.1354 -0.5206  0.6768
 8130TIP3   OH245880   2.214   5.911  13.259 -0.1031 -0.6715  0.3703
 8130TIP3    H145881   2.274   5.983  13.278  1.2727 -1.4825 -0.7326
 8130TIP3    H245882   2.127   5.952  13.259  0.4998  0.6854  1.2041
 8131TIP3   OH245883   0.830   0.828   2.878  0.6910  0.1802 -0.5287
 8131TIP3    H145884   0.821   0.770   2.953 -0.0437 -0.3159 -0.9927
 8131TIP3    H245885   0.909   0.880   2.897  0.3829  0.2285  0.6796
 8132TIP3   OH245886   1.744   5.095   2.179 -0.1263 -0.2073  0.9043
 8132TIP3    H145887   1.824   5.144   2.160  1.1439 -1.8325  1.8310
 8132TIP3    H245888   1.743   5.087   2.274 -1.4783 -0.1244  0.9161
 8133TIP3   OH245889   3.692   3.807   3.709 -0.7006 -0.3595 -0.1787
 8133TIP3    H145890   3.715   3.890   3.749 -0.2790 -0.4594 -0.2105
 8133TIP3    H245891   3.658   3.754   3.782  1.4164 -1.0539  0.3721
 8134TIP3   OH245892   2.727   3.220   5.160 -0.2550  0.0858  0.0075
 8134TIP3    H145893   2.709   3.176   5.243  0.2344 -0.7601 -0.3241
 8134TIP3    H245894   2.782   3.158   5.111 -2.3434 -0.4202 -1.8673
 8135TIP3   OH245895   1.805   4.833  13.196 -0.1902 -0.2641  0.7373
 8135TIP3    H145896   1.760   4.760  13.239  0.2727 -0.6923  0.5120
 8135TIP3    H245897   1.766   4.836  13.108 -0.2569 -0.1994  0.7695
 8136TIP3   OH245898   3.239   1.803   4.863  0.4809  0.3701 -0.1309
 8136TIP3    H145899   3.170   1.855   4.820  0.3652  0.5712  0.2951
 8136TIP3    H245900   3.291   1.768   4.790  1.4918  2.3199 -0.4262
 8137TIP3   OH245901   1.658   4.818  11.588 -0.6841 -0.1379 -0.3668
 8137TIP3    H145902   1.695   4.808  11.676 -0.9642  3.4191  0.3205
 8137TIP3    H245903   1.725   4.865  11.539 -1.4470 -0.0168 -1.3355
 8138TIP3   OH245904   6.725   5.910   0.996 -0.2477 -0.5296 -1.0095
 8138TIP3    H145905   6.695   5.951   0.915 -1.2750 -0.6397 -0.6975
 8138TIP3    H245906   6.708   5.816   0.982  0.3280 -0.6393 -0.9806
 8139TIP3   OH245907   5.665   6.061  16.382  0.2794  0.0561  0.1008
 8139TIP3    H145908   5.633   6.129  16.322 -0.2131  0.6715  1.0362
 8139TIP3    H245909   5.729   6.106  16.437 -0.7931  0.0299  1.3959
 8140TIP3   OH245910   4.158   4.607   1.133  0.3592  0.5682 -0.1879
 8140TIP3    H145911   4.118   4.533   1.179 -0.9721  2.0244  1.1230
 8140TIP3    H245912   4.127   4.600   1.043 -0.1761 -0.1769  0.0484
 8141TIP3   OH245913   5.113   2.171  12.739 -0.1245  0.2247  0.2216
 8141TIP3    H145914   5.074   2.254  12.712  0.6076  1.1559  1.8515
 8141TIP3    H245915   5.134   2.184  12.832  0.7611 -1.5036  0.2987
 8142TIP3   OH245916   5.008   1.588   2.092 -0.6139  0.4451  0.0108
 8142TIP3    H145917   5.090   1.632   2.114  1.2983 -2.1593 -1.2657
 8142TIP3    H245918   4.946   1.618   2.158  1.2214  2.8680  0.7795
 8143TIP3   OH245919   5.065   5.378  15.696 -0.1058  0.1691 -0.0905
 8143TIP3    H145920   4.992   5.419  15.649  1.4683  1.1207 -1.8775
 8143TIP3    H245921   5.061   5.415  15.784 -0.7191  1.6129 -0.6936
 8144TIP3   OH245922   6.488   6.627   3.209 -0.2906 -0.2936  0.8664
 8144TIP3    H145923   6.423   6.571   3.166  1.2775 -1.1709 -0.5050
 8144TIP3    H245924   6.481   6.710   3.163 -0.2384 -0.4869  0.5015
 8145TIP3   OH245925   6.394   3.552   5.059 -0.4561  0.2900 -0.0841
 8145TIP3    H145926   6.325   3.575   4.996 -1.2278 -0.8863  0.2884
 8145TIP3    H245927   6.453   3.495   5.010 -0.3994  0.3465 -0.0812
 8146TIP3   OH245928   3.599   6.712   2.963  0.4001 -0.0088 -0.4554
 8146TIP3    H145929   3.525   6.651   2.966 -0.9195  1.3990 -2.0276
 8146TIP3    H245930   3.609   6.733   2.870  2.2176  0.5307 -0.1746
 8147TIP3   OH245931   1.594   3.717   4.721  0.2357  0.5070  0.5116
 8147TIP3    H145932   1.582   3.706   4.816 -2.7930 -0.0444  0.1571
 8147TIP3    H245933   1.550   3.641   4.682  0.8244  1.0845 -1.3871
 8148TIP3   OH245934   4.202   0.438   2.678  0.3436  0.5843 -0.0104
 8148TIP3    H145935   4.130   0.446   2.741  0.5947 -0.3609  0.4174
 8148TIP3    H245936   4.259   0.371   2.715  0.6963  0.2785 -1.0602
 8149TIP3   OH245937   6.167   4.860  16.961  0.0719  0.0617  0.0046
 8149TIP3    H145938   6.122   4.788  16.918  0.8380  0.2731 -1.2019
 8149TIP3    H245939   6.246   4.821  16.997  0.8694  0.3954 -1.3026
 8150TIP3   OH245940   4.120   5.277  14.247 -0.0813  0.3670 -0.2858
 8150TIP3    H145941   4.116   5.187  14.213  2.2704  0.3089 -0.6160
 8150TIP3    H245942   4.165   5.269  14.331 -1.0828  1.1161  0.3485
 8151TIP3   OH245943   1.196   5.279   0.663 -0.2908 -0.1251 -0.0245
 8151TIP3    H145944   1.279   5.239   0.640 -0.5854 -1.0808  0.5402
 8151TIP3    H245945   1.148   5.286   0.580 -0.2456 -0.9644 -0.1215
 8152TIP3   OH245946   2.979   3.029   3.118  0.1150  0.0364 -0.5108
 8152TIP3    H145947   2.903   3.087   3.119  0.9370  1.1506 -0.8588
 8152TIP3    H245948   2.972   2.979   3.200 -0.5445  0.7187 -0.1364
 8153TIP3   OH245949   6.153   3.086  12.430  0.1369 -0.4362  0.3195
 8153TIP3    H145950   6.133   3.082  12.523  0.6321 -0.4811  0.4248
 8153TIP3    H245951   6.109   3.166  12.400  0.9330  0.2121  0.8297
 8154TIP3   OH245952   0.984   1.403  15.270  0.2048  0.0661  0.2182
 8154TIP3    H145953   1.024   1.487  15.290  0.7233 -0.3940  1.2116
 8154TIP3    H245954   0.955   1.369  15.354  2.2123 -1.8267  0.2546
 8155TIP3   OH245955   2.210   3.585   5.411  0.4543  0.0843  0.3775
 8155TIP3    H145956   2.240   3.649   5.476  1.6331  0.7635 -0.7768
 8155TIP3    H245957   2.205   3.503   5.458  3.1936  0.1483  0.9265
 8156TIP3   OH245958   4.157   1.280  13.366 -0.0933 -0.4233  0.4974
 8156TIP3    H145959   4.125   1.327  13.444  0.7376  0.3040  0.4173
 8156TIP3    H245960   4.166   1.348  13.299  0.2172 -0.8653  0.0852
 8157TIP3   OH245961   2.682   6.746  15.871  0.0229  0.0948  0.4412
 8157TIP3    H145962   2.641   6.799  15.802 -0.5331 -2.1151 -1.0378
 8157TIP3    H245963   2.776   6.761  15.860 -0.0497 -0.3603 -0.9510
 8158TIP3   OH245964   5.829   1.868   5.670  0.1525 -0.5528  0.4350
 8158TIP3    H145965   5.896   1.937   5.667  0.4351 -0.8515 -0.1855
 8158TIP3    H245966   5.873   1.793   5.708  0.1923 -0.7820 -0.0692
 8159TIP3   OH245967   4.717   4.673   4.148 -0.2784 -0.9110 -0.4215
 8159TIP3    H145968   4.745   4.589   4.184  0.6995 -0.7850 -0.8488
 8159TIP3    H245969   4.774   4.687   4.073  0.1995  0.5696  0.1849
 8160TIP3   OH245970   6.493   4.305  13.222 -0.4339  0.3492  0.0700
 8160TIP3    H145971   6.464   4.375  13.280  0.5916 -0.6128  1.8227
 8160TIP3    H245972   6.456   4.328  13.136 -4.1574  0.5128  1.5325
 8161TIP3   OH245973   4.399   5.162  14.784 -0.1618 -0.0968  0.1937
 8161TIP3    H145974   4.429   5.147  14.874 -1.5670 -0.4201  0.6383
 8161TIP3    H245975   4.454   5.105  14.731  0.7129  0.1248  0.8394
 8162TIP3   OH245976   6.782   6.216   3.689  0.2336  0.2543 -0.5502
 8162TIP3    H145977   6.703   6.271   3.694 -0.1471 -0.2815 -0.5835
 8162TIP3    H245978   6.837   6.259   3.623 -0.8735 -0.4107 -1.9715
 8163TIP3   OH245979   3.112   3.909   4.167 -0.7030  0.3256 -0.0492
 8163TIP3    H145980   3.035   3.960   4.143 -0.7210  0.3186 -0.0064
 8163TIP3    H245981   3.180   3.937   4.106 -1.2689 -1.0681 -1.3953
 8164TIP3   OH245982   0.857   4.323   5.282  0.4873  0.7844 -0.2157
 8164TIP3    H145983   0.887   4.232   5.274 -0.1400  0.6537 -1.3553
 8164TIP3    H245984   0.922   4.374   5.235  1.6468  1.1510  1.6578
 8165TIP3   OH245985   2.381   0.643  15.246 -0.4318 -0.3729 -0.2535
 8165TIP3    H145986   2.407   0.712  15.184 -1.6069  0.4149  0.0994
 8165TIP3    H245987   2.460   0.627  15.298  0.2862 -0.3611 -1.3110
 8166TIP3   OH245988   6.364   4.286  15.840 -0.0193  0.1826  0.2623
 8166TIP3    H145989   6.348   4.282  15.745  0.7414  0.5283  0.1133
 8166TIP3    H245990   6.276   4.288  15.878 -0.3472 -0.7615 -0.3919
 8167TIP3   OH245991   5.788   4.461  10.584 -0.1666  0.2517  0.5881
 8167TIP3    H145992   5.823   4.383  10.541  2.1887 -0.1949  3.0403
 8167TIP3    H245993   5.724   4.427  10.647 -1.9320  0.6934 -0.9146
 8168TIP3   OH245994   2.979   1.232  15.442  0.1047 -0.0238  0.0105
 8168TIP3    H145995   2.916   1.263  15.378 -0.3665  0.3486  0.6381
 8168TIP3    H245996   3.057   1.211  15.391 -0.9065 -1.6354 -0.9338
 8169TIP3   OH245997   1.971   2.447   4.197  0.4812 -0.0374 -0.3575
 8169TIP3    H145998   2.061   2.423   4.218  0.2230  0.4729  1.5180
 8169TIP3    H245999   1.932   2.366   4.164  0.7820 -1.1716  1.8604
 8170TIP3   OH246000   2.843   2.575   0.493 -0.4085 -0.9633  0.5773
 8170TIP3    H146001   2.818   2.605   0.406  1.9979  1.8405  0.6876
 8170TIP3    H246002   2.833   2.480   0.489 -3.0672 -0.7254 -1.7616
 8171TIP3   OH246003   1.475   6.417  14.760  0.6937 -0.0410  0.1203
 8171TIP3    H146004   1.388   6.396  14.796  0.7046 -0.4525 -0.0826
 8171TIP3    H246005   1.458   6.446  14.671  0.4003  3.5437  1.1856
 8172TIP3   OH246006   6.776   4.708  12.457 -0.6625 -0.5859 -0.0793
 8172TIP3    H146007   6.755   4.755  12.538  1.1016 -1.9402  1.2441
 8172TIP3    H246008   6.749   4.618  12.475  1.2745 -1.2573 -0.2918
 8173TIP3   OH246009   0.118   3.992  16.030  0.3427 -0.1522 -0.4052
 8173TIP3    H146010   0.145   4.040  16.108  1.0419 -0.6161 -0.3566
 8173TIP3    H246011   0.181   3.920  16.023 -1.5258 -1.9705  0.3650
 8174TIP3   OH246012   0.710   6.586   3.378 -0.3954 -0.0997 -0.6859
 8174TIP3    H146013   0.695   6.666   3.429  0.0982 -0.4334  0.0085
 8174TIP3    H246014   0.778   6.539   3.427  0.1671 -0.3893 -1.7156
 8175TIP3   OH246015   2.581   1.909  16.876  0.3345 -0.0765  0.2447
 8175TIP3    H146016   2.597   1.814  16.876  1.1413  0.0498  0.5333
 8175TIP3    H246017   2.557   1.929  16.966  0.3413  0.0177  0.2246
 8176TIP3   OH246018   3.062   5.644   0.410  0.9151  0.0402 -0.0681
 8176TIP3    H146019   3.133   5.699   0.378  0.0126  0.4536 -1.5008
 8176TIP3    H246020   2.997   5.706   0.445 -0.3398  0.0025 -2.1640
 8177TIP3   OH246021   2.170   1.087   4.625 -0.1075 -0.3680 -0.9026
 8177TIP3    H146022   2.207   1.005   4.661  0.0713  0.2176  0.3070
 8177TIP3    H246023   2.232   1.154   4.653 -1.0136  0.3691 -0.6192
 8178TIP3   OH246024   6.415   2.288  16.807  0.0321  0.0366 -0.1184
 8178TIP3    H146025   6.352   2.280  16.878 -1.6790 -0.0627 -1.5677
 8178TIP3    H246026   6.420   2.200  16.769  0.0866  0.3156 -0.7771
 8179TIP3   OH246027   6.340   4.569   4.573 -0.0828 -0.1294  0.3766
 8179TIP3    H146028   6.253   4.530   4.566  0.3485 -1.2403  0.8970
 8179TIP3    H246029   6.355   4.578   4.667  0.4335 -0.1201  0.2969
 8180TIP3   OH246030   1.164   1.798   6.011 -0.0003  0.3630 -0.6537
 8180TIP3    H146031   1.203   1.712   5.992 -0.6526  0.5562 -3.2501
 8180TIP3    H246032   1.228   1.861   5.979  0.1101  0.8602  0.4960
 8181TIP3   OH246033   3.153   1.707  11.182  0.5490 -0.2719 -0.1967
 8181TIP3    H146034   3.158   1.708  11.278  0.3274  1.5996 -0.1600
 8181TIP3    H246035   3.094   1.635  11.162  3.7132 -3.4285  0.8082
 8182TIP3   OH246036   2.624   4.054   4.190 -0.2106 -0.2094 -0.3573
 8182TIP3    H146037   2.683   3.992   4.233 -0.7053  0.1961  0.9650
 8182TIP3    H246038   2.672   4.137   4.193  1.0768 -0.7123 -3.4114
 8183TIP3   OH246039   0.418   5.237   3.107  0.2289 -0.1416  0.2172
 8183TIP3    H146040   0.334   5.281   3.124  0.5895  0.0799  1.5562
 8183TIP3    H246041   0.484   5.304   3.125  0.7566 -0.9401  1.3667
 8184TIP3   OH246042   4.532   1.545  14.959 -1.1656  0.1792 -0.0721
 8184TIP3    H146043   4.457   1.537  14.900 -2.2696 -0.2254  1.3494
 8184TIP3    H246044   4.500   1.596  15.033 -0.1001 -0.1967  0.6786
 8185TIP3   OH246045   0.132   5.103  12.852 -0.2134  0.1705  0.6706
 8185TIP3    H146046   0.187   5.161  12.801  0.6099 -0.9435  0.2537
 8185TIP3    H246047   0.103   5.035  12.791 -0.3938 -0.3794  1.3381
 8186TIP3   OH246048   1.043   6.522   3.468 -0.1350  0.0728 -0.0270
 8186TIP3    H146049   0.965   6.501   3.519 -0.4032 -0.3205 -0.5938
 8186TIP3    H246050   1.034   6.471   3.387  0.9110 -0.2977  0.0751
 8187TIP3   OH246051   4.005   4.591   5.947  0.4625  0.2634 -0.2330
 8187TIP3    H146052   3.918   4.626   5.964  0.1124 -0.3824 -0.6293
 8187TIP3    H246053   4.029   4.548   6.029 -0.1742 -0.7114 -0.5303
 8188TIP3   OH246054   0.622   5.064  14.619  0.1603 -0.0668  0.7907
 8188TIP3    H146055   0.539   5.086  14.661 -0.7217  0.4378 -1.0717
 8188TIP3    H246056   0.639   5.138  14.560  0.8635 -1.0734 -0.3269
 8189TIP3   OH246057   2.134   1.236  11.150  0.1434 -0.0733 -0.1562
 8189TIP3    H146058   2.153   1.220  11.057 -0.7085  1.2536 -0.5881
 8189TIP3    H246059   2.038   1.231  11.155  0.0184  2.0051  0.1908
 8190TIP3   OH246060   5.950   3.361   2.906 -0.4249  0.6401 -0.5034
 8190TIP3    H146061   5.953   3.398   2.994 -0.4892 -2.1845  0.8013
 8190TIP3    H246062   6.007   3.418   2.854 -0.1126  2.1869  1.4242
 8191TIP3   OH246063   6.629   6.474  12.797  0.1177 -0.4585  0.1060
 8191TIP3    H146064   6.563   6.500  12.861  0.8857 -0.5014  0.9308
 8191TIP3    H246065   6.578   6.437  12.724 -0.9496  2.1109 -0.5763
 8192TIP3   OH246066   2.746   5.594  13.401  0.0173  0.8393 -0.5499
 8192TIP3    H146067   2.740   5.506  13.437  0.4371  0.7542 -0.6774
 8192TIP3    H246068   2.798   5.642  13.465 -1.7638  1.5080  0.4537
 8193TIP3   OH246069   5.420   0.102  10.640 -0.1232 -0.1921 -0.3627
 8193TIP3    H146070   5.399   0.009  10.627  1.5557 -0.6667 -0.0129
 8193TIP3    H246071   5.389   0.121  10.729  1.2991 -1.0229  0.3580
 8194TIP3   OH246072   0.791   6.177   2.643 -0.2617  0.3516 -0.8212
 8194TIP3    H146073   0.832   6.111   2.698  0.5212 -0.7713 -2.6798
 8194TIP3    H246074   0.710   6.137   2.613 -0.8683  1.1015 -0.2591
 8195TIP3   OH246075   6.565   0.359   4.334  0.4453  0.4763 -0.3757
 8195TIP3    H146076   6.579   0.286   4.395  1.4179  1.4847  0.6676
 8195TIP3    H246077   6.484   0.400   4.365  0.6288  0.6452 -0.1184
 8196TIP3   OH246078   4.871   1.787   5.686 -0.3233 -0.3601  0.4774
 8196TIP3    H146079   4.898   1.752   5.601 -0.0707  0.7489  0.0823
 8196TIP3    H246080   4.782   1.753   5.699  0.6216 -2.8174  1.0874
 8197TIP3   OH246081   6.474   4.541   1.904 -0.3640 -0.1861 -0.5717
 8197TIP3    H146082   6.449   4.449   1.908  1.8874 -0.8529 -0.4457
 8197TIP3    H246083   6.563   4.540   1.870  0.9658  1.6810  2.4568
 8198TIP3   OH246084   2.191   3.685  12.943  0.3304  0.2965  0.5932
 8198TIP3    H146085   2.164   3.683  13.035  1.8274  0.6727  1.0701
 8198TIP3    H246086   2.220   3.595  12.924 -0.5039  0.0807  0.3104
 8199TIP3   OH246087   6.236   4.454   6.001  0.3455  0.0077 -0.5355
 8199TIP3    H146088   6.328   4.477   6.014  0.3976  0.0620 -0.9978
 8199TIP3    H246089   6.228   4.367   6.040  0.5220  0.1263 -0.2296
 8200TIP3   OH246090   1.476   1.077   5.213  0.3562 -0.7248  0.2179
 8200TIP3    H146091   1.418   1.017   5.259  0.4256 -0.4732  0.6417
 8200TIP3    H246092   1.516   1.130   5.282  0.7476 -0.5917 -0.1014
 8201TIP3   OH246093   6.262   2.751  14.473 -0.1437  0.0129  0.0888
 8201TIP3    H146094   6.255   2.748  14.377  0.1998  0.8817  0.0259
 8201TIP3    H246095   6.356   2.756  14.489 -0.2541  1.2729  0.4133
 8202TIP3   OH246096   2.094   1.136  12.265 -0.2475 -0.6205  0.2712
 8202TIP3    H146097   2.038   1.071  12.307 -0.2799 -0.0969  1.0726
 8202TIP3    H246098   2.172   1.138  12.320  0.0607 -0.4983 -0.1662
 8203TIP3   OH246099   5.240   6.032   3.791  0.9504 -0.2840  0.5125
 8203TIP3    H146100   5.302   6.101   3.766  0.5301  1.1858  3.1338
 8203TIP3    H246101   5.280   5.991   3.868 -1.0842  0.5222  2.0929
 8204TIP3   OH246102   2.417   1.713   0.296 -0.1955  0.6154  0.0075
 8204TIP3    H146103   2.332   1.698   0.337 -0.1231 -1.1111 -0.3934
 8204TIP3    H246104   2.445   1.626   0.266  0.8692  1.4284 -1.5012
 8205TIP3   OH246105   1.995   0.361  16.204 -0.7690  0.1895  0.2049
 8205TIP3    H146106   1.902   0.346  16.215 -0.8453  0.0657 -0.5784
 8205TIP3    H246107   2.006   0.455  16.219 -1.0510  0.2473  0.0474
 8206TIP3   OH246108   5.965   3.796  15.552 -0.3634 -0.2111  0.3640
 8206TIP3    H146109   5.980   3.828  15.462  0.9565 -1.4192  0.1243
 8206TIP3    H246110   6.051   3.769  15.582 -1.1147 -1.6848  1.2816
 8207TIP3   OH246111   2.861   1.147  11.594  0.1294 -0.6808  0.1177
 8207TIP3    H146112   2.886   1.077  11.534  1.9112 -0.9757  1.1122
 8207TIP3    H246113   2.811   1.208  11.540  2.6257 -0.3334 -2.0031
 8208TIP3   OH246114   4.029   0.640  13.561 -0.0900  0.1070 -0.3134
 8208TIP3    H146115   4.066   0.728  13.555 -1.1322  0.7511  1.6980
 8208TIP3    H246116   4.017   0.613  13.470  1.6490  1.4143 -0.9891
 8209TIP3   OH246117   1.989   1.657   6.146  0.1764 -0.0038  0.5314
 8209TIP3    H146118   2.082   1.667   6.165  0.1740  0.6055  0.2631
 8209TIP3    H246119   1.971   1.564   6.159  0.5172  0.1068  1.8959
 8210TIP3   OH246120   5.874   5.614  16.580 -0.0718  0.4995 -0.2971
 8210TIP3    H146121   5.907   5.530  16.612  3.2062  1.5121 -0.6603
 8210TIP3    H246122   5.884   5.673  16.654  0.8530  1.2696 -1.0048
 8211TIP3   OH246123   0.954   2.809   6.977 -0.5406 -0.3954 -0.1719
 8211TIP3    H146124   0.959   2.721   7.014  1.6889 -0.1244  0.3311
 8211TIP3    H246125   1.014   2.806   6.902 -0.0255  0.8180  0.1732
 8212TIP3   OH246126   5.524   3.090   1.341  0.0995 -0.4873 -0.5060
 8212TIP3    H146127   5.598   3.112   1.285  0.3118 -1.4877 -0.6338
 8212TIP3    H246128   5.559   3.027   1.404 -0.7627 -1.3892 -0.9013
 8213TIP3   OH246129   0.105   6.405   5.667 -0.3056 -0.6880 -0.2274
 8213TIP3    H146130   0.146   6.446   5.591  0.2004  0.4598  0.6348
 8213TIP3    H246131   0.015   6.438   5.666  0.1544  0.7171  0.5852
 8214TIP3   OH246132   4.129   5.960  14.517  0.3129 -0.3281  0.0660
 8214TIP3    H146133   4.168   6.046  14.505 -0.0819 -0.3716 -1.7169
 8214TIP3    H246134   4.036   5.977  14.533  0.1966 -0.4296 -0.4963
 8215TIP3   OH246135   5.735   3.197   1.219 -0.6408  0.7561 -0.0709
 8215TIP3    H146136   5.724   3.291   1.203 -1.6693  1.0918  2.2158
 8215TIP3    H246137   5.830   3.184   1.216 -0.5293  1.6646 -1.3423
 8216TIP3   OH246138   2.087   6.751  16.131 -0.0755 -0.4395 -0.5771
 8216TIP3    H146139   2.102   6.812  16.059  1.5754  2.2127  1.7968
 8216TIP3    H246140   2.067   6.668  16.089  2.0631  0.6306 -4.1046
 8217TIP3   OH246141   5.666   1.619  17.165 -0.6373 -0.0254 -0.5429
 8217TIP3    H146142   5.661   1.541  17.110  0.6896 -0.5270 -0.0062
 8217TIP3    H246143   5.757   1.649  17.156 -0.2758 -0.3048  1.5571
 8218TIP3   OH246144   2.487   1.144  15.642 -0.2401 -0.5260 -0.3817
 8218TIP3    H146145   2.573   1.108  15.660 -0.6630 -1.6573 -0.5715
 8218TIP3    H246146   2.503   1.218  15.584  0.7233  0.2299  0.8025
 8219TIP3   OH246147   2.714   1.653   4.546 -0.3944 -0.1966 -0.2312
 8219TIP3    H146148   2.701   1.560   4.563 -1.5017 -0.2053 -0.9744
 8219TIP3    H246149   2.789   1.656   4.486  0.2886 -0.5192  0.5880
 8220TIP3   OH246150   6.008   0.204  12.455  0.4405  0.8865 -0.2924
 8220TIP3    H146151   6.015   0.204  12.359  0.2579  2.2534 -0.3338
 8220TIP3    H246152   5.935   0.147  12.474  1.2344 -0.3652 -0.8861
 8221TIP3   OH246153   1.619   6.003   4.514 -0.4340  0.2476 -0.5595
 8221TIP3    H146154   1.533   6.045   4.509 -0.7642  0.0067  1.7855
 8221TIP3    H246155   1.646   6.014   4.605  1.8947  0.0096 -1.1502
 8222TIP3   OH246156   1.343   1.472   5.105  0.0171 -0.6079  0.0065
 8222TIP3    H146157   1.289   1.513   5.037 -1.3271 -1.0121  0.7842
 8222TIP3    H246158   1.364   1.544   5.164 -2.0326 -0.9002  1.1727
 8223TIP3   OH246159   3.825   1.431  14.126  0.1724 -0.0152  0.1293
 8223TIP3    H146160   3.774   1.418  14.206  1.3511  3.8032  1.7207
 8223TIP3    H246161   3.916   1.432  14.156  0.9386 -1.8732 -1.8987
 8224TIP3   OH246162   3.514   3.552   2.280 -0.0393  0.3186  0.2356
 8224TIP3    H146163   3.533   3.559   2.374  1.3738 -1.1064  0.0998
 8224TIP3    H246164   3.580   3.606   2.238 -0.5589  0.8089  0.0397
 8225TIP3   OH246165   0.224   1.934  15.501  0.5486  0.1998  0.0879
 8225TIP3    H146166   0.293   1.946  15.566 -0.7260  0.3828  1.4642
 8225TIP3    H246167   0.179   2.018  15.498 -0.6872 -0.4058  0.5520
 8226TIP3   OH246168   6.647   1.533  13.470 -0.0398  0.3007 -0.3385
 8226TIP3    H146169   6.592   1.610  13.462  2.1734  1.9657 -0.4021
 8226TIP3    H246170   6.731   1.567  13.500  0.5634 -2.2914  1.2300
 8227TIP3   OH246171   1.082   1.645   2.415 -0.4852 -0.7944 -0.1603
 8227TIP3    H146172   1.143   1.605   2.478 -1.5707 -0.5558  1.0954
 8227TIP3    H246173   1.091   1.592   2.336 -0.0548 -1.9798  0.6458
 8228TIP3   OH246174   1.280   5.046  11.791  0.7046 -0.2019  0.3037
 8228TIP3    H146175   1.285   5.121  11.851  0.7591  0.0266  0.0118
 8228TIP3    H246176   1.356   4.993  11.813 -0.6252 -1.4636  2.2301
 8229TIP3   OH246177   2.570   1.084   1.103  0.0330  0.4379  0.7473
 8229TIP3    H146178   2.478   1.063   1.120 -0.3101  1.3408  0.0530
 8229TIP3    H246179   2.594   1.145   1.172 -0.0946  0.7382  0.5279
 8230TIP3   OH246180   0.305   3.031   6.197  0.0847 -0.0169  0.5469
 8230TIP3    H146181   0.235   3.015   6.259  0.2378  1.2326  1.0669
 8230TIP3    H246182   0.264   3.020   6.111 -0.3716 -0.7621  0.8516
 8231TIP3   OH246183   6.538   4.708  12.603  0.1113 -0.7912 -0.1951
 8231TIP3    H146184   6.494   4.789  12.630  0.0990 -0.2552 -1.7691
 8231TIP3    H246185   6.544   4.657  12.684 -0.5532  0.4576  0.6793
 8232TIP3   OH246186   5.053   5.558   1.224 -0.3198 -0.3681 -0.0419
 8232TIP3    H146187   4.967   5.525   1.252  0.3888 -2.3508 -0.0048
 8232TIP3    H246188   5.036   5.647   1.195 -1.8982  0.2390  2.4496
 8233TIP3   OH246189   4.964   2.429  12.741  0.5107 -0.3189  0.6641
 8233TIP3    H146190   4.921   2.504  12.699  0.3027 -0.7421  0.1135
 8233TIP3    H246191   4.921   2.421  12.826 -0.3906 -0.6273  0.1875
 8234TIP3   OH246192   3.885   6.238  16.467 -0.1325  0.1947  0.0705
 8234TIP3    H146193   3.918   6.245  16.377 -0.9939  0.0709 -0.2611
 8234TIP3    H246194   3.955   6.277  16.521  1.7718 -2.3962 -0.3255
 8235TIP3   OH246195   5.481   0.750  16.308  0.5498 -0.2023  0.0564
 8235TIP3    H146196   5.574   0.731  16.293  0.2187 -0.2465 -2.1935
 8235TIP3    H246197   5.481   0.835  16.353  1.7122 -1.3055  2.3625
 8236TIP3   OH246198   1.986   2.990   3.231  0.1827  0.2462 -0.0723
 8236TIP3    H146199   2.045   2.988   3.155  0.9079  1.7870  0.4134
 8236TIP3    H246200   1.948   3.077   3.230  0.6616  0.5195  1.6450
 8237TIP3   OH246201   2.610   2.890   2.833  0.0515  0.5425 -0.4366
 8237TIP3    H146202   2.620   2.962   2.770  0.4761  0.9613  0.1084
 8237TIP3    H246203   2.697   2.850   2.839 -0.1498  0.0626 -0.6332
 8238TIP3   OH246204   3.425   2.720   0.877  0.3202  0.2819 -0.3062
 8238TIP3    H146205   3.334   2.723   0.848  0.2049 -0.9317 -0.1324
 8238TIP3    H246206   3.437   2.800   0.928 -0.1962  1.1941 -1.5621
 8239TIP3   OH246207   6.170   3.774   3.456  0.1176 -0.2135 -0.2133
 8239TIP3    H146208   6.122   3.810   3.531  0.2825 -1.1683  0.3668
 8239TIP3    H246209   6.253   3.822   3.455  0.9881 -1.5706  1.4973
 8240TIP3   OH246210   5.261   5.408  16.564 -0.3711 -0.7341 -0.6581
 8240TIP3    H146211   5.280   5.502  16.557  0.1073 -0.6496  1.2900
 8240TIP3    H246212   5.330   5.366  16.512 -1.3845 -0.0212 -2.7213
 8241TIP3   OH246213   3.022   0.232  14.710  0.3935 -0.3484  0.0655
 8241TIP3    H146214   3.029   0.279  14.793  0.3595  0.5724 -0.4448
 8241TIP3    H246215   2.971   0.153  14.732 -1.0782  0.6990  0.5972
 8242TIP3   OH246216   2.999   5.515  14.319 -0.2942  0.4383 -0.3754
 8242TIP3    H146217   3.020   5.516  14.412 -0.0993 -0.7396 -0.3986
 8242TIP3    H246218   3.029   5.600  14.287 -0.7591  1.0299  0.7094
 8243TIP3   OH246219   3.867   0.175   4.118 -0.2557 -0.6963 -0.2554
 8243TIP3    H146220   3.845   0.086   4.142  2.1300 -1.2644  0.0786
 8243TIP3    H246221   3.910   0.167   4.033  0.5234  0.0428  0.0547
 8244TIP3   OH246222   4.103   3.097  12.274  0.2792 -0.5714  0.6887
 8244TIP3    H146223   4.052   3.148  12.336 -3.7190 -0.4413 -2.3029
 8244TIP3    H246224   4.070   3.123  12.188  1.6641 -4.4479 -1.2751
 8245TIP3   OH246225   3.306   0.074   4.867  0.5156  0.2290  0.6503
 8245TIP3    H146226   3.256   0.151   4.839  1.2636 -0.4752 -3.2882
 8245TIP3    H246227   3.388   0.110   4.902  0.2492  1.2512  0.2660
 8246TIP3   OH246228   5.603   2.732   5.455 -0.3569  0.1258  0.5108
 8246TIP3    H146229   5.563   2.689   5.380 -0.3878  2.0422 -0.6366
 8246TIP3    H246230   5.697   2.721   5.442 -0.3890 -0.5263  0.8129
 8247TIP3   OH246231   5.707   1.043  11.840  0.0901  0.1679 -0.1222
 8247TIP3    H146232   5.625   1.090  11.828 -0.0660  0.2582  1.1242
 8247TIP3    H246233   5.730   1.011  11.753 -1.1831  0.2753 -0.5193
 8248TIP3   OH246234   4.220   3.356   1.603 -0.1776  0.6072  0.7412
 8248TIP3    H146235   4.188   3.371   1.692  0.3036 -1.5324  1.3236
 8248TIP3    H246236   4.186   3.270   1.579 -0.6985  1.3463 -1.3547
 8249TIP3   OH246237   3.069   0.158   4.080 -0.4822 -0.3509 -0.1181
 8249TIP3    H146238   3.110   0.125   4.160  1.7575  0.4856 -0.8550
 8249TIP3    H246239   3.074   0.254   4.089 -0.8661 -0.2462 -0.9583
 8250TIP3   OH246240   1.817   5.367   4.411  0.9287 -0.2592  0.3984
 8250TIP3    H146241   1.832   5.457   4.439  0.1274  0.3014 -0.8918
 8250TIP3    H246242   1.878   5.354   4.338  0.1852 -0.3334 -0.2233
 8251TIP3   OH246243   4.992   2.189   6.027  0.3134 -0.9666  0.5993
 8251TIP3    H146244   5.061   2.246   6.061  1.5497 -0.9672 -1.7266
 8251TIP3    H246245   4.934   2.248   5.978  1.9598 -1.6316 -2.3778
 8252TIP3   OH246246   2.633   3.282  12.567 -0.3094  0.0682 -0.1382
 8252TIP3    H146247   2.713   3.312  12.525  0.2036 -2.5896 -1.1870
 8252TIP3    H246248   2.663   3.231  12.642 -1.1514  1.3655  1.1540
 8253TIP3   OH246249   3.057   4.242  11.625 -0.0669  0.1407 -0.3699
 8253TIP3    H146250   3.059   4.305  11.698  0.6967 -1.0710  0.6904
 8253TIP3    H246251   3.092   4.161  11.662 -0.4254 -0.7433 -1.8845
 8254TIP3   OH246252   2.778   1.661  16.342 -0.1151 -0.0409 -0.3345
 8254TIP3    H146253   2.773   1.710  16.260  0.3238 -0.1480 -0.4278
 8254TIP3    H246254   2.871   1.643  16.354 -0.3103 -1.3647 -0.6054
 8255TIP3   OH246255   3.556   1.702  12.180 -0.9622 -0.2661  0.4651
 8255TIP3    H146256   3.621   1.730  12.116  0.7764 -2.3682  1.1707
 8255TIP3    H246257   3.471   1.723  12.141  0.0577 -0.5489 -2.0455
 8256TIP3   OH246258   0.646   0.566  13.702 -0.4356  0.5191  0.1025
 8256TIP3    H146259   0.563   0.567  13.749 -0.4103 -1.1874  0.2509
 8256TIP3    H246260   0.622   0.581  13.611 -0.8360  0.6741  0.2316
 8257TIP3   OH246261   6.030   5.439   5.844  0.2715  0.1451  0.5084
 8257TIP3    H146262   5.978   5.359   5.844  1.0751 -0.4173 -0.6205
 8257TIP3    H246263   5.969   5.508   5.870 -0.8101 -0.6284  0.1001
 8258TIP3   OH246264   5.317   2.507   0.433 -0.5021 -0.3877 -0.1122
 8258TIP3    H146265   5.327   2.564   0.510 -1.2175 -0.9708  0.4258
 8258TIP3    H246266   5.224   2.484   0.432 -0.1598 -1.8883 -0.0610
 8259TIP3   OH246267   4.782   4.591   4.946 -0.3901  0.0929  0.4769
 8259TIP3    H146268   4.851   4.655   4.967 -0.9549  0.4983  1.1550
 8259TIP3    H246269   4.829   4.519   4.904  0.4651  0.3379  0.9701
 8260TIP3   OH246270   5.928   1.932   4.828 -0.3884 -0.7087  0.2733
 8260TIP3    H146271   5.894   1.843   4.827 -1.3389 -0.3666 -0.5945
 8260TIP3    H246272   6.017   1.924   4.860 -0.6061 -1.9139  0.6212
 8261TIP3   OH246273   2.992   5.425   0.257 -0.0430  0.1583  0.0956
 8261TIP3    H146274   2.986   5.343   0.306  2.1952 -1.3073 -1.8302
 8261TIP3    H246275   3.005   5.492   0.323  2.2864 -1.6377  1.6303
 8262TIP3   OH246276   0.126   2.089  16.903  0.2462 -0.4690  0.2935
 8262TIP3    H146277   0.170   2.025  16.959 -1.6273 -0.0983  2.3385
 8262TIP3    H246278   0.139   2.172  16.947  1.0041  0.3000 -1.3088
 8263TIP3   OH246279   4.490   0.737   0.949  0.5267 -0.0757  0.1524
 8263TIP3    H146280   4.469   0.655   0.903 -1.2825  0.2239  0.3470
 8263TIP3    H246281   4.546   0.785   0.888 -0.0280 -0.6202 -0.8157
 8264TIP3   OH246282   5.134   4.350  11.909  0.4351 -0.3624  0.5074
 8264TIP3    H146283   5.192   4.408  11.859 -0.1202 -0.2703 -0.0417
 8264TIP3    H246284   5.115   4.399  11.989  0.9312 -0.2985  0.5889
 8265TIP3   OH246285   2.781   4.093  11.227  0.8607  0.2552 -0.1503
 8265TIP3    H146286   2.777   4.173  11.175  2.4065 -0.5148 -1.5764
 8265TIP3    H246287   2.733   4.028  11.176  1.1278 -0.1568  0.1131
 8266TIP3   OH246288   0.254   5.828   2.533  0.2327 -0.0725 -0.1030
 8266TIP3    H146289   0.344   5.801   2.520 -0.1988 -0.9293 -1.5372
 8266TIP3    H246290   0.211   5.752   2.573 -0.3116 -0.4857 -1.4075
 8267TIP3   OH246291   3.246   3.592  15.613 -0.4544  0.3135 -0.6694
 8267TIP3    H146292   3.327   3.628  15.649  0.5648 -1.2432 -1.3176
 8267TIP3    H246293   3.189   3.581  15.688  0.9281 -1.0700  0.2388
 8268TIP3   OH246294   1.138   1.933   2.445 -0.0852 -0.6709  0.0495
 8268TIP3    H146295   1.223   1.967   2.474  0.3833 -0.7069 -1.1961
 8268TIP3    H246296   1.145   1.838   2.458  0.1413 -0.6936 -0.2306
 8269TIP3   OH246297   1.642   5.109   3.481 -0.1245 -0.3529  0.3214
 8269TIP3    H146298   1.663   5.194   3.519  0.7793 -0.1805 -0.5084
 8269TIP3    H246299   1.655   5.122   3.387 -0.0284 -1.3901  0.1836
 8270TIP3   OH246300   6.050   2.547   1.535 -0.1186  0.1562 -0.1221
 8270TIP3    H146301   6.075   2.493   1.611  0.6951 -0.0737 -0.5441
 8270TIP3    H246302   6.121   2.534   1.472 -1.2649 -0.4421 -1.3324
 8271TIP3   OH246303   5.694   4.528   5.742 -0.0224 -0.5301  0.1437
 8271TIP3    H146304   5.683   4.461   5.809 -1.9083  0.8967  1.3751
 8271TIP3    H246305   5.783   4.560   5.754  0.4205 -1.8308  0.4662
 8272TIP3   OH246306   4.828   2.859   0.598 -0.3929  0.0625 -0.6600
 8272TIP3    H146307   4.805   2.826   0.685 -1.7525 -1.5084 -1.5470
 8272TIP3    H246308   4.884   2.792   0.561  2.3783  1.9198 -0.1205
 8273TIP3   OH246309   5.145   4.910  12.481 -0.2430  0.2662  0.1104
 8273TIP3    H146310   5.069   4.854  12.464  0.9985 -0.9488 -1.7098
 8273TIP3    H246311   5.183   4.874  12.561  0.2979 -1.3133 -0.8071
 8274TIP3   OH246312   4.240   3.347   2.227  0.9165  0.3368  0.0899
 8274TIP3    H146313   4.329   3.356   2.193  1.3895 -0.0175  1.1682
 8274TIP3    H246314   4.211   3.437   2.243  0.6421  0.5129 -1.3057
 8275TIP3   OH246315   1.881   2.014   6.297  0.7952  0.3571 -0.1384
 8275TIP3    H146316   1.789   2.014   6.272  0.5486  0.4585  0.7155
 8275TIP3    H246317   1.920   2.085   6.246  0.2943  0.6208 -0.1601
 8276TIP3   OH246318   5.678   4.356  12.286 -0.7472  0.0171  0.1882
 8276TIP3    H146319   5.739   4.287  12.260 -1.1961 -0.3760  0.1600
 8276TIP3    H246320   5.707   4.434  12.239 -1.1147 -0.5094 -0.9401
 8277TIP3   OH246321   1.894   0.473   0.791  0.2595  0.1882  0.0735
 8277TIP3    H146322   1.843   0.498   0.868 -0.6008 -2.0269  0.3009
 8277TIP3    H246323   1.855   0.390   0.762  2.1028 -0.2679 -1.3110
 8278TIP3   OH246324   4.238   4.261   2.106  0.4863 -1.0287  0.2453
 8278TIP3    H146325   4.165   4.201   2.089  0.1685 -0.6290  0.1923
 8278TIP3    H246326   4.235   4.323   2.033  1.1354 -1.2536  0.0169
 8279TIP3   OH246327   1.184   5.877  12.643 -0.3539  0.7001 -0.2701
 8279TIP3    H146328   1.110   5.926  12.678  0.0814  0.2271  1.3935
 8279TIP3    H246329   1.172   5.788  12.675  0.1799  0.2721 -1.2036
 8280TIP3   OH246330   3.697   4.957   4.315  0.7374 -0.0441 -0.5729
 8280TIP3    H146331   3.622   5.010   4.343  0.1737 -0.8259 -0.5537
 8280TIP3    H246332   3.770   5.019   4.311  0.0341  0.7883 -0.8629
 8281TIP3   OH246333   3.654   3.133   5.487 -0.1939 -0.0280  0.5979
 8281TIP3    H146334   3.644   3.204   5.551  1.6156  0.8560 -0.0169
 8281TIP3    H246335   3.685   3.177   5.408 -1.3975 -1.2308 -0.5923
 8282TIP3   OH246336   4.448   0.887   0.426 -0.5323  0.1331  0.0756
 8282TIP3    H146337   4.516   0.820   0.423 -0.5580  0.1170 -0.1593
 8282TIP3    H246338   4.492   0.968   0.403 -0.8251 -0.0686 -1.2934
 8283TIP3   OH246339   2.158   2.109   6.818  0.2746  0.1428  0.5828
 8283TIP3    H146340   2.189   2.177   6.877 -0.1632  0.4838  0.4195
 8283TIP3    H246341   2.062   2.113   6.824  0.2211  0.3488 -0.3385
 8284TIP3   OH246342   3.760   1.621   3.103 -0.7781  0.0123 -0.2836
 8284TIP3    H146343   3.780   1.589   3.191 -0.7269  0.2609 -0.2019
 8284TIP3    H246344   3.845   1.632   3.061 -0.8081 -0.2092 -0.4016
 8285TIP3   OH246345   5.690   6.014   1.805 -0.9047 -0.1174 -0.3741
 8285TIP3    H146346   5.714   6.107   1.809 -0.6271 -0.1638 -0.8409
 8285TIP3    H246347   5.678   5.997   1.711 -1.2832 -0.4707 -0.2629
 8286TIP3   OH246348   4.738   4.793   5.433 -0.0609  0.0803  0.5448
 8286TIP3    H146349   4.755   4.784   5.527 -1.8397  1.1600  1.0295
 8286TIP3    H246350   4.669   4.729   5.415  0.0244  0.1235  0.0522
 8287TIP3   OH246351   0.599   6.167   6.081 -0.0637 -0.7037  0.4715
 8287TIP3    H146352   0.634   6.097   6.136  0.0456 -1.2689 -0.2900
 8287TIP3    H246353   0.524   6.127   6.036  0.2194 -0.4550 -0.2405
 8288TIP3   OH246354   6.176   2.115   5.329  0.0792  0.0083  0.3940
 8288TIP3    H146355   6.114   2.047   5.355  0.2813 -0.1896  0.3580
 8288TIP3    H246356   6.253   2.068   5.299  0.1363  0.2498  0.1538
 8289TIP3   OH246357   6.642   2.986  16.815 -0.4856 -0.3647 -0.1452
 8289TIP3    H146358   6.595   2.925  16.871  0.2797 -1.4798 -0.6627
 8289TIP3    H246359   6.624   3.072  16.852 -4.0267 -0.5561 -1.1148
 8290TIP3   OH246360   4.478   3.155  14.322 -0.1234  0.2938  0.4335
 8290TIP3    H146361   4.561   3.161  14.274  0.1276 -1.0370  0.6459
 8290TIP3    H246362   4.442   3.243  14.320  1.3468  0.9218  0.4023
 8291TIP3   OH246363   4.309   4.243  13.877 -0.7036  0.1926  0.0713
 8291TIP3    H146364   4.215   4.256  13.893 -0.2453  1.0604  2.5513
 8291TIP3    H246365   4.332   4.310  13.813 -1.7619  0.0318 -0.4896
 8292TIP3   OH246366   6.471   5.207   4.412 -0.1077  0.8440 -0.1390
 8292TIP3    H146367   6.562   5.182   4.396 -0.2300 -0.0406  0.4534
 8292TIP3    H246368   6.420   5.156   4.349 -0.2824  0.3594  0.3833
 8293TIP3   OH246369   3.472   5.986   5.703  0.2149  0.5008  0.3910
 8293TIP3    H146370   3.473   5.902   5.658 -0.1559  1.0214 -0.6223
 8293TIP3    H246371   3.565   6.010   5.710  0.3925 -0.3922  1.5165
 8294TIP3   OH246372   1.588   3.018  16.948 -0.0115 -0.4627 -0.4343
 8294TIP3    H146373   1.633   2.987  17.026  0.2824  3.2279  1.0489
 8294TIP3    H246374   1.501   3.044  16.979  0.1377  1.1483 -1.2700
 8295TIP3   OH246375   3.836   1.003  17.214 -0.5397  0.1547 -0.2295
 8295TIP3    H146376   3.881   1.027  17.295  0.0433  0.2907 -0.5834
 8295TIP3    H246377   3.791   1.083  17.186 -0.3932  0.2268 -0.2602
 8296TIP3   OH246378   1.310   6.430  12.714 -0.3711  1.0385 -0.4015
 8296TIP3    H146379   1.365   6.481  12.773  0.3718  0.2036 -0.3403
 8296TIP3    H246380   1.244   6.389  12.770  0.4452  0.0970 -0.0911
 8297TIP3   OH246381   6.404   0.544  13.198  0.7030 -0.3175  0.2206
 8297TIP3    H146382   6.450   0.464  13.222  4.3750  1.1048 -1.2962
 8297TIP3    H246383   6.468   0.614  13.216 -2.6255  2.4716  2.3704
 8298TIP3   OH246384   6.666   6.070   6.086  0.0658  0.0654 -0.1476
 8298TIP3    H146385   6.737   6.024   6.041  0.7905 -0.2411  1.2669
 8298TIP3    H246386   6.600   6.002   6.103 -1.6511  0.7038 -3.3220
 8299TIP3   OH246387   0.291   6.147  14.569  0.1376  0.2213  0.3315
 8299TIP3    H146388   0.232   6.081  14.533  0.2005 -0.0913  0.7950
 8299TIP3    H246389   0.349   6.098  14.627 -0.1531  0.7595  1.0950
 8300TIP3   OH246390   1.608   2.619   0.153  0.3884  0.3294 -0.1677
 8300TIP3    H146391   1.568   2.694   0.108 -1.9834 -0.2617  0.8051
 8300TIP3    H246392   1.665   2.659   0.219  0.0057  1.2570 -0.3820
 8301TIP3   OH246393   3.288   3.179   5.744 -0.0958 -0.2773 -0.5489
 8301TIP3    H146394   3.290   3.274   5.749 -0.2949 -0.2558 -0.8115
 8301TIP3    H246395   3.220   3.153   5.806 -0.3931 -0.2130 -0.8408
 8302TIP3   OH246396   4.193   2.633  13.508 -0.6427 -0.8004 -0.1292
 8302TIP3    H146397   4.180   2.678  13.425  0.9679  2.3596  1.1553
 8302TIP3    H246398   4.266   2.680  13.550  1.4751 -4.8626  1.3396
 8303TIP3   OH246399   3.159   0.663  17.133 -0.3023 -0.2836 -0.3408
 8303TIP3    H146400   3.254   0.652  17.129 -0.2469 -0.4139  0.8600
 8303TIP3    H246401   3.147   0.755  17.157 -0.3082 -1.0559  3.1892
 8304TIP3   OH246402   2.037   1.605  14.320  0.2018  0.0129  0.5061
 8304TIP3    H146403   2.001   1.652  14.395  2.8888  1.3078  1.1103
 8304TIP3    H246404   1.978   1.626  14.248 -1.3117  0.4089  1.8026
 8305TIP3   OH246405   0.200   2.177   1.392 -0.0084  0.0790 -0.9601
 8305TIP3    H146406   0.267   2.123   1.434  0.3270  0.5533 -0.8764
 8305TIP3    H246407   0.231   2.267   1.404 -1.5904  0.4378  0.7248
 8306TIP3   OH246408   1.862   2.633  15.972 -0.1211 -0.0137 -0.4137
 8306TIP3    H146409   1.840   2.541  15.954 -0.8878 -0.2479  1.4449
 8306TIP3    H246410   1.785   2.682  15.942 -0.0099 -0.0484 -0.7590
 8307TIP3   OH246411   1.818   4.027   6.095 -0.4731 -0.1500  0.2195
 8307TIP3    H146412   1.846   3.987   6.177  0.3174  0.7392  0.3996
 8307TIP3    H246413   1.725   4.006   6.088 -0.1140 -1.9083  0.3539
 8308TIP3   OH246414   0.534   6.508  12.375 -0.0795  0.7179 -0.3506
 8308TIP3    H146415   0.558   6.599  12.393  0.5914  0.3500  0.7284
 8308TIP3    H246416   0.617   6.466  12.352 -0.5709  0.6324 -2.1107
 8309TIP3   OH246417   0.982   6.493  12.743  0.4246 -0.2226  0.0526
 8309TIP3    H146418   1.029   6.558  12.794  2.0427  0.2729 -1.9838
 8309TIP3    H246419   1.021   6.409  12.769 -1.4420 -0.4971  2.4285
 8310TIP3   OH246420   0.455   4.614  13.393  0.1441 -0.2406 -0.0229
 8310TIP3    H146421   0.509   4.557  13.448  1.4530  0.0295 -0.9605
 8310TIP3    H246422   0.510   4.691  13.378 -0.9910  0.5776 -0.0430
 8311TIP3   OH246423   0.318   6.124   0.330  0.2555  0.6654 -0.4568
 8311TIP3    H146424   0.244   6.111   0.271 -0.5590  1.2945  0.3880
 8311TIP3    H246425   0.371   6.045   0.321 -0.1037  0.5493 -1.6579
 8312TIP3   OH246426   3.520   5.361  13.253 -0.2472  0.0759  0.4122
 8312TIP3    H146427   3.567   5.369  13.170  1.0650  0.6628  1.1855
 8312TIP3    H246428   3.432   5.334  13.227  0.4941 -1.0918 -1.0843
 8313TIP3   OH246429   0.116   5.967  16.618 -0.1489  0.3721  0.3221
 8313TIP3    H146430   0.043   5.915  16.651  1.6484 -0.9681  2.4551
 8313TIP3    H246431   0.098   5.976  16.524 -3.2448  0.5205  0.8427
 8314TIP3   OH246432   5.900   3.903   1.616 -0.5144 -0.0834 -0.1316
 8314TIP3    H146433   5.929   3.952   1.693 -0.6008  0.9713 -0.7492
 8314TIP3    H246434   5.932   3.814   1.631  1.3879  0.5905  0.1135
 8315TIP3   OH246435   3.168   6.513   5.201 -0.6600 -0.6624 -0.1782
 8315TIP3    H146436   3.082   6.472   5.202 -0.5153 -0.9949 -0.9234
 8315TIP3    H246437   3.224   6.455   5.252 -0.4717 -1.3859 -1.1688
 8316TIP3   OH246438   1.905   0.017  16.354  0.0930  0.3118 -0.2862
 8316TIP3    H146439   1.840   0.034  16.286 -0.0877 -0.7700 -0.4042
 8316TIP3    H246440   1.989   0.028  16.309  0.1108  3.3421  0.2491
 8317TIP3   OH246441   6.315   3.217  17.378  0.2210 -0.0318 -0.1243
 8317TIP3    H146442   6.258   3.233  17.453  0.1908 -0.2833 -0.0941
 8317TIP3    H246443   6.372   3.294  17.375  0.3071 -0.0789  0.2338
 8318TIP3   OH246444   0.201   2.708   5.209  0.2044  0.3305  0.4315
 8318TIP3    H146445   0.181   2.733   5.119  0.1792  0.6664  0.5282
 8318TIP3    H246446   0.254   2.781   5.243 -1.1605  0.9907  1.2010
 8319TIP3   OH246447   2.088   3.834   3.794  0.7175  0.3351 -0.3627
 8319TIP3    H146448   2.061   3.924   3.813 -0.4149  0.0877 -0.7123
 8319TIP3    H246449   2.183   3.834   3.808  0.6454  1.4215  0.2532
 8320TIP3   OH246450   6.762   3.198  12.306  0.2939  0.2726 -0.5507
 8320TIP3    H146451   6.719   3.119  12.338  4.0324 -1.8069 -0.1002
 8320TIP3    H246452   6.762   3.188  12.211  0.7241 -0.2940 -0.4970
 8321TIP3   OH246453   5.195   1.254  12.606  0.2507  0.1210 -0.4962
 8321TIP3    H146454   5.111   1.214  12.626  0.3705  0.3707  0.5586
 8321TIP3    H246455   5.260   1.190  12.635  0.5256  1.9659  3.6956
 8322TIP3   OH246456   0.232   3.097  11.516 -0.4809  0.6075  0.5357
 8322TIP3    H146457   0.240   3.177  11.464 -0.8956 -0.4396 -1.2236
 8322TIP3    H246458   0.320   3.059  11.517 -0.6567  0.1625 -0.2133
 8323TIP3   OH246459   4.994   4.019  13.483 -0.1304  0.0097 -0.2144
 8323TIP3    H146460   4.974   4.097  13.431  0.2430  2.3833  2.8825
 8323TIP3    H246461   4.912   3.997  13.526  0.1552 -0.3435  0.1573
 8324TIP3   OH246462   6.794   3.527  12.530  0.8333 -0.2309 -0.0108
 8324TIP3    H146463   6.760   3.497  12.446  3.9188 -0.8425 -1.1606
 8324TIP3    H246464   6.765   3.618  12.536 -0.2860 -0.4765 -1.2410
 8325TIP3   OH246465   0.888   5.888  14.549 -0.9031 -0.5504 -0.8185
 8325TIP3    H146466   0.821   5.832  14.510 -1.1051 -0.5661 -0.4538
 8325TIP3    H246467   0.851   5.976  14.544 -0.2154 -0.3127 -2.1993
 8326TIP3   OH246468   6.110   4.437   1.925  0.8215 -0.0369  0.4802
 8326TIP3    H146469   6.091   4.435   2.018 -0.4489  0.0915  0.2370
 8326TIP3    H246470   6.127   4.530   1.906 -1.6889  0.4050  0.0898
 8327TIP3   OH246471   6.260   5.403  14.152  0.3014 -0.5815  0.5524
 8327TIP3    H146472   6.218   5.475  14.201  0.3250  0.4683 -0.9078
 8327TIP3    H246473   6.280   5.338  14.219  0.0068  0.6425  1.8926
 8328TIP3   OH246474   5.731   4.329   4.072  0.0868  0.0433  0.2842
 8328TIP3    H146475   5.653   4.342   4.126 -1.0818 -0.1900 -1.2785
 8328TIP3    H246476   5.712   4.253   4.018  0.7625  0.8479 -1.1782
 8329TIP3   OH246477   0.905   1.067   2.600  0.0406  0.0846 -0.0726
 8329TIP3    H146478   0.872   0.986   2.561 -1.7154  1.2748 -1.1698
 8329TIP3    H246479   0.999   1.050   2.612 -0.0428 -1.6648 -1.4084
 8330TIP3   OH246480   6.272   6.648  14.081 -0.7463  0.0354  0.1875
 8330TIP3    H146481   6.180   6.663  14.102 -0.2441  0.5424  2.3035
 8330TIP3    H246482   6.301   6.729  14.040 -0.6333  0.9289  1.9438
 8331TIP3   OH246483   3.973   4.029   4.215  0.1243 -0.2971 -0.4731
 8331TIP3    H146484   3.969   4.124   4.221  2.6106 -0.1513  4.2004
 8331TIP3    H246485   3.881   4.001   4.215 -0.7050  2.1148  0.6109
 8332TIP3   OH246486   0.132   2.777   4.936 -0.6373  0.0451 -0.0958
 8332TIP3    H146487   0.191   2.794   4.863 -0.3501 -0.8123 -0.0752
 8332TIP3    H246488   0.100   2.688   4.920  1.1267 -1.0593  1.9613
 8333TIP3   OH246489   2.021   0.612   1.706 -0.4352 -0.0788 -0.7607
 8333TIP3    H146490   2.009   0.517   1.711 -0.6482 -0.0555 -0.8568
 8333TIP3    H246491   2.110   0.623   1.673 -0.4652 -0.2449 -0.8964
 8334TIP3   OH246492   0.334   2.642  12.390  0.1627 -0.0142  0.2172
 8334TIP3    H146493   0.284   2.640  12.309  1.9557  0.3694 -0.9716
 8334TIP3    H246494   0.287   2.703  12.446 -0.8933  0.0389 -0.6914
 8335TIP3   OH246495   0.487   1.336   5.155 -0.3739  0.1140  0.3467
 8335TIP3    H146496   0.491   1.375   5.067  1.3819  0.6527  0.6230
 8335TIP3    H246497   0.426   1.392   5.202  1.1564  1.8605  0.3693
 8336TIP3   OH246498   5.167   3.299  12.556 -0.7053  0.5639  0.6980
 8336TIP3    H146499   5.117   3.256  12.487 -0.4137  1.9782 -0.4436
 8336TIP3    H246500   5.118   3.281  12.636 -2.6384  1.2586 -0.2685
 8337TIP3   OH246501   4.178   5.755   4.198 -0.3642 -0.2831 -0.0630
 8337TIP3    H146502   4.253   5.696   4.188 -0.1398  0.1542 -1.1135
 8337TIP3    H246503   4.216   5.836   4.234 -0.7931 -0.9958  2.1802
 8338TIP3   OH246504   1.398   0.138   0.264  0.3451  0.1524  0.1629
 8338TIP3    H146505   1.338   0.088   0.209 -0.0370  1.1402 -0.3460
 8338TIP3    H246506   1.468   0.077   0.285 -1.7209 -1.6106  2.3210
 8339TIP3   OH246507   2.015   6.218  15.996  0.3060 -0.4052  0.1206
 8339TIP3    H146508   1.930   6.177  16.011 -1.0692  1.1992 -2.5996
 8339TIP3    H246509   2.067   6.151  15.952 -0.1678 -0.7932  0.1487
 8340TIP3   OH246510   6.287   0.883   6.878 -0.6156 -0.6492  0.0836
 8340TIP3    H146511   6.373   0.862   6.916 -0.2849 -1.0643 -0.8454
 8340TIP3    H246512   6.226   0.824   6.922 -0.2550 -1.0597  0.0470
 8341TIP3   OH246513   5.313   3.661  13.670 -0.6597 -0.9609  0.0393
 8341TIP3    H146514   5.394   3.684  13.715  0.5512 -1.1443 -1.9164
 8341TIP3    H246515   5.267   3.744  13.659  0.5583 -0.4048 -1.1678
 8342TIP3   OH246516   2.521   5.807   3.128 -0.0869 -0.1807  0.1042
 8342TIP3    H146517   2.450   5.813   3.063  0.5933 -1.8118 -0.8727
 8342TIP3    H246518   2.494   5.736   3.186  0.0481  0.2202  0.6646
 8343TIP3   OH246519   5.125   3.115   0.497  0.3150  0.0796 -0.2587
 8343TIP3    H146520   5.166   3.131   0.412  0.5339  0.7693 -0.0233
 8343TIP3    H246521   5.197   3.111   0.559  0.0730  0.8417  0.0863
 8344TIP3   OH246522   3.367   2.199  13.246 -0.1503  0.0430 -0.2938
 8344TIP3    H146523   3.419   2.139  13.300 -0.8302 -0.4158 -0.1352
 8344TIP3    H246524   3.278   2.190  13.280 -0.5529 -0.0987 -1.3594
 8345TIP3   OH246525   5.082   6.536  14.929  0.1420  0.4982 -0.1201
 8345TIP3    H146526   5.088   6.613  14.872 -0.3845  1.1644  0.6875
 8345TIP3    H246527   4.989   6.515  14.930  0.2184  0.1679  0.0765
 8346TIP3   OH246528   2.082   1.176  16.028  0.0032 -0.3946 -0.0988
 8346TIP3    H146529   2.149   1.167  15.960  0.4232 -0.9868  0.3799
 8346TIP3    H246530   2.035   1.092  16.026  0.9173 -0.9733  1.2570
 8347TIP3   OH246531   1.561   0.026  13.283 -0.0640 -0.3541  0.2462
 8347TIP3    H146532   1.504  -0.040  13.324 -0.7428  0.4759  0.6589
 8347TIP3    H246533   1.502   0.097  13.258  0.8650  0.8467  1.3336
 8348TIP3   OH246534   4.530   1.504   6.405 -0.5016 -0.3193 -0.0791
 8348TIP3    H146535   4.522   1.595   6.433 -0.8665 -0.2752 -0.3162
 8348TIP3    H246536   4.552   1.508   6.312 -1.8059 -0.4662 -0.4131
 8349TIP3   OH246537   6.011   2.608  12.395 -0.1963 -0.0741  0.0618
 8349TIP3    H146538   6.069   2.597  12.320  0.1493 -0.4117  0.3774
 8349TIP3    H246539   5.926   2.576  12.364  0.2219 -1.3708  0.1868
 8350TIP3   OH246540   1.224   3.247   2.063 -0.2919  0.6650 -0.3897
 8350TIP3    H146541   1.186   3.181   2.121  0.4168  1.2788  0.8224
 8350TIP3    H246542   1.214   3.211   1.975 -0.9482 -0.5246  0.1496
 8351TIP3   OH246543   0.683   0.241  12.563  0.1184  0.5430 -0.0773
 8351TIP3    H146544   0.760   0.218  12.510 -0.1779 -0.2260 -0.1863
 8351TIP3    H246545   0.715   0.310  12.622  0.8781  0.2867 -0.1704
 8352TIP3   OH246546   1.959   5.693   4.092  0.3416 -0.1233 -0.0602
 8352TIP3    H146547   2.010   5.771   4.072  2.2256 -1.3644 -0.3714
 8352TIP3    H246548   1.896   5.685   4.021 -1.5303  2.3670  1.1849
 8353TIP3   OH246549   2.091   3.736  11.534 -0.2911 -0.1195  0.2732
 8353TIP3    H146550   2.153   3.706  11.601 -0.4055 -1.1684 -0.0765
 8353TIP3    H246551   2.125   3.822  11.508  0.5309 -0.3026  0.6969
 8354TIP3   OH246552   4.244   3.420  14.603 -0.2807  0.5923  0.0078
 8354TIP3    H146553   4.264   3.485  14.536 -3.5389  1.4578 -0.3246
 8354TIP3    H246554   4.165   3.377  14.571  0.2421 -1.6875  1.5349
 8355TIP3   OH246555   5.716   5.302   3.422 -0.8795 -0.2635 -0.1379
 8355TIP3    H146556   5.797   5.335   3.462 -0.7294 -2.5505  1.6342
 8355TIP3    H246557   5.706   5.355   3.343  1.4004  1.2628  0.4729
 8356TIP3   OH246558   3.349   5.023  11.604 -0.1321 -0.3731  0.2179
 8356TIP3    H146559   3.415   4.973  11.651  0.1250 -1.9106 -1.6395
 8356TIP3    H246560   3.377   5.114  11.612  1.9810 -0.9385 -0.1215
 8357TIP3   OH246561   1.459   3.320  13.984  0.1986  0.2197 -0.3776
 8357TIP3    H146562   1.451   3.290  14.075 -1.0170 -1.6161 -1.0440
 8357TIP3    H246563   1.550   3.350  13.977  0.4880 -0.1632  1.2601
 8358TIP3   OH246564   2.586   0.742   1.556  0.3227  0.0298 -0.2036
 8358TIP3    H146565   2.497   0.775   1.543 -0.2295 -1.1305  0.5130
 8358TIP3    H246566   2.585   0.655   1.517  1.3219  0.2161 -0.6886
 8359TIP3   OH246567   0.254   3.847   3.243  0.0281  0.2946  0.0021
 8359TIP3    H146568   0.181   3.881   3.190 -0.4926 -0.8309 -0.0447
 8359TIP3    H246569   0.234   3.877   3.332  0.0436  0.8366 -0.1736
 8360TIP3   OH246570   1.863   6.481   3.522 -0.1399 -0.4783  0.3920
 8360TIP3    H146571   1.802   6.526   3.464 -0.6018  0.3380  1.4810
 8360TIP3    H246572   1.906   6.551   3.570  1.1041 -1.0849  0.2013
 8361TIP3   OH246573   1.507   6.044  12.522  0.0083 -0.1052  0.0662
 8361TIP3    H146574   1.471   5.965  12.482  0.3858  0.0527 -0.5988
 8361TIP3    H246575   1.479   6.115  12.465  1.1575  0.0433 -0.3518
 8362TIP3   OH246576   6.760   6.645  11.936  0.0762  0.2634  0.0102
 8362TIP3    H146577   6.695   6.598  11.885  0.9679 -0.9635 -0.0380
 8362TIP3    H246578   6.790   6.715  11.877  0.7188 -0.8167 -0.9911
 8363TIP3   OH246579   6.739   4.245  16.288  0.1954 -0.1459  0.4953
 8363TIP3    H146580   6.752   4.336  16.264 -0.3837 -0.0613  0.4933
 8363TIP3    H246581   6.699   4.205  16.211 -2.3499  0.2882  1.5023
 8364TIP3   OH246582   1.712   5.763   2.455 -0.6209  0.2120 -0.9983
 8364TIP3    H146583   1.657   5.781   2.379  0.4362 -1.8007 -2.3112
 8364TIP3    H246584   1.783   5.828   2.449 -1.0763  0.7044 -1.1393
 8365TIP3   OH246585   6.595   5.191   4.050 -0.8163  0.5403 -0.4796
 8365TIP3    H146586   6.619   5.120   3.991 -1.5099 -0.8818  0.8829
 8365TIP3    H246587   6.536   5.151   4.113 -1.5310  2.4302  0.1175
 8366TIP3   OH246588   0.160   3.760   6.415  0.3077 -0.5799  0.1269
 8366TIP3    H146589   0.170   3.728   6.505  1.0643 -0.4000  0.1152
 8366TIP3    H246590   0.121   3.847   6.425  0.8291 -0.3631  0.3123
 8367TIP3   OH246591   6.270   5.276  14.835 -0.1285  0.0169  0.0453
 8367TIP3    H146592   6.326   5.321  14.899 -0.9526  1.7869 -0.4153
 8367TIP3    H246593   6.193   5.332  14.827 -1.1398 -1.4178 -0.7163
 8368TIP3   OH246594   6.528   4.039   2.130  0.1053  0.4074 -0.0457
 8368TIP3    H146595   6.544   4.127   2.164 -0.9756  0.0629  1.4812
 8368TIP3    H246596   6.599   3.986   2.166 -0.6556  0.1821  1.1934
 8369TIP3   OH246597   1.520   2.615  12.352  0.0378  0.4500 -0.0123
 8369TIP3    H146598   1.444   2.637  12.298  0.7169  0.9404 -0.7882
 8369TIP3    H246599   1.589   2.675  12.323  0.6230  0.2587  0.9297
 8370TIP3   OH246600   1.606   4.966   5.309 -0.5455  0.2637 -0.3625
 8370TIP3    H146601   1.697   4.965   5.280 -0.5377 -0.3397 -0.3164
 8370TIP3    H246602   1.595   4.886   5.360 -0.6837  1.0602  0.9309
 8371TIP3   OH246603   0.210   6.238   4.692 -0.8486  0.6092 -0.2720
 8371TIP3    H146604   0.245   6.150   4.682 -2.7739 -0.4033  1.2497
 8371TIP3    H246605   0.205   6.252   4.786 -0.3838  2.4662 -0.4766
 8372TIP3   OH246606   0.382   1.328  13.403  0.0331  0.2864 -0.6287
 8372TIP3    H146607   0.379   1.300  13.495  0.8210 -1.1589 -1.0219
 8372TIP3    H246608   0.315   1.397  13.398 -0.6360 -0.2003  0.8299
 8373TIP3   OH246609   0.015   6.589   1.885 -0.0893  0.3313  0.0893
 8373TIP3    H146610  -0.066   6.577   1.934  0.3103  3.2047  1.7156
 8373TIP3    H246611   0.068   6.513   1.907 -0.7670  0.4513  2.5248
 8374TIP3   OH246612   3.970   2.556  16.959  0.4026 -0.3490  0.0117
 8374TIP3    H146613   3.876   2.540  16.946  0.1690  0.1473  0.9692
 8374TIP3    H246614   3.985   2.532  17.050  1.0025  0.4997  0.1399
 8375TIP3   OH246615   5.202   0.958   3.279  1.1206  0.8304  0.4914
 8375TIP3    H146616   5.198   0.949   3.374 -0.3864  0.9531  0.4611
 8375TIP3    H246617   5.111   0.951   3.250  1.4854  1.4062 -0.8890
 8376TIP3   OH246618   6.585   6.729   3.529 -0.2674 -0.3983 -0.0729
 8376TIP3    H146619   6.563   6.811   3.575 -1.5879 -0.8379  0.1140
 8376TIP3    H246620   6.507   6.675   3.538  1.7927 -3.2600  3.1279
 8377TIP3   OH246621   3.533   4.101  14.434 -0.2837 -0.0596  0.7526
 8377TIP3    H146622   3.559   4.128  14.522 -0.2533 -0.4974  0.8806
 8377TIP3    H246623   3.489   4.017  14.447 -0.2217 -0.1565  0.3424
 8378TIP3   OH246624   1.854   6.431  17.227 -0.4003 -0.3153  0.7790
 8378TIP3    H146625   1.847   6.384  17.309 -0.3715  0.5584  1.2937
 8378TIP3    H246626   1.765   6.462  17.209 -0.5556 -1.0982  0.1043
 8379TIP3   OH246627   4.157   4.533  11.232  0.3237 -0.5924 -0.2303
 8379TIP3    H146628   4.162   4.460  11.171  0.1145 -1.2303  0.4967
 8379TIP3    H246629   4.241   4.532  11.278  0.2824 -0.4416 -0.1494
 8380TIP3   OH246630   2.407   2.897   1.168  0.3655  0.7439  0.1940
 8380TIP3    H146631   2.340   2.879   1.234  0.5071  0.5203  0.2822
 8380TIP3    H246632   2.373   2.970   1.117  0.4616  1.2439  0.8187
 8381TIP3   OH246633   2.114   1.350  13.484 -0.2160  0.0560 -0.4457
 8381TIP3    H146634   2.045   1.415  13.498 -1.5434 -1.3254 -0.2359
 8381TIP3    H246635   2.107   1.291  13.560  1.3880  0.0220 -0.2866
 8382TIP3   OH246636   0.845   4.973   0.927  0.1396  0.6191 -0.0029
 8382TIP3    H146637   0.862   4.880   0.934  0.0346  0.6295  0.3947
 8382TIP3    H246638   0.872   4.996   0.838  1.0504  0.3957  0.2073
 8383TIP3   OH246639   2.940   3.755   2.120  0.3565  0.7982  0.8168
 8383TIP3    H146640   2.923   3.839   2.162 -1.6672  1.4519 -1.1563
 8383TIP3    H246641   2.927   3.771   2.027  0.2831 -1.6278  0.3502
 8384TIP3   OH246642   5.010   3.496  11.479  0.4878 -0.3966 -0.6894
 8384TIP3    H146643   4.923   3.470  11.448 -0.7204 -0.0670  2.0992
 8384TIP3    H246644   5.046   3.417  11.519  1.2617 -0.3973 -1.3804
 8385TIP3   OH246645   5.189   1.733   0.381  0.2636 -0.1001 -0.6238
 8385TIP3    H146646   5.098   1.758   0.396 -0.8323 -4.1900  1.0189
 8385TIP3    H246647   5.195   1.724   0.286 -0.3703  2.2050 -0.9287
 8386TIP3   OH246648   1.700   0.188  14.848 -0.1450  0.0459  0.0313
 8386TIP3    H146649   1.711   0.092  14.851 -0.2508  0.0151 -0.4762
 8386TIP3    H246650   1.727   0.218  14.935 -0.7862 -0.5189  0.4378
 8387TIP3   OH246651   1.786   6.445   4.750 -0.3232  0.5056 -0.3322
 8387TIP3    H146652   1.765   6.523   4.699 -0.4926  0.1746 -0.7737
 8387TIP3    H246653   1.773   6.472   4.841  1.5055  1.5695 -0.3541
 8388TIP3   OH246654   4.288   4.576   4.142 -0.4753 -0.0765  0.1366
 8388TIP3    H146655   4.258   4.494   4.181 -0.3622  0.7067  1.9910
 8388TIP3    H246656   4.294   4.637   4.216  0.9879  1.1577 -0.9246
 8389TIP3   OH246657   3.808   5.177   4.845  0.1715 -0.4480  0.1359
 8389TIP3    H146658   3.794   5.265   4.880 -0.6144 -0.6133  0.2488
 8389TIP3    H246659   3.778   5.118   4.914  2.5684 -0.8721  0.8927
 8390TIP3   OH246660   2.769   2.490  13.111  0.2732 -0.1302  0.0607
 8390TIP3    H146661   2.801   2.405  13.142 -0.9292 -0.4205  0.5375
 8390TIP3    H246662   2.685   2.501  13.154  0.9960  1.9340  1.0674
 8391TIP3   OH246663   1.880   4.716  13.910 -0.6058 -0.0608 -0.2035
 8391TIP3    H146664   1.798   4.713  13.860 -0.4477  1.5788 -0.6193
 8391TIP3    H246665   1.932   4.784  13.867  1.5993 -2.0238 -0.8408
 8392TIP3   OH246666   4.256   1.506  14.861  0.2338 -0.4125 -0.6721
 8392TIP3    H146667   4.206   1.457  14.927 -2.7964  0.8877 -1.7764
 8392TIP3    H246668   4.276   1.442  14.793  0.4291 -1.0667 -0.0051
 8393TIP3   OH246669   3.670   0.977  11.790  0.4788  0.1399  0.0743
 8393TIP3    H146670   3.575   0.986  11.796  0.4713  0.0611  0.0815
 8393TIP3    H246671   3.686   0.883  11.803  0.6936  0.3897  1.8786
 8394TIP3   OH246672   1.565   3.750  12.819 -0.2334 -0.6698 -0.0269
 8394TIP3    H146673   1.550   3.662  12.787 -0.8216  0.0447 -1.8540
 8394TIP3    H246674   1.609   3.738  12.903  0.7687 -2.6577 -0.7819
 8395TIP3   OH246675   0.716   6.396   1.853 -0.1736 -0.1603 -0.6411
 8395TIP3    H146676   0.726   6.491   1.855  0.1088 -0.2022  0.3060
 8395TIP3    H246677   0.793   6.364   1.805 -0.7372  0.1342 -1.7758
 8396TIP3   OH246678   3.824   0.612   1.988  0.4917 -0.0176 -0.1434
 8396TIP3    H146679   3.873   0.599   1.906  0.5788  0.4712 -0.1729
 8396TIP3    H246680   3.861   0.548   2.049 -0.9929 -1.8864 -1.0743
 8397TIP3   OH246681   2.027   0.645  11.409 -0.0007 -0.0234  0.0390
 8397TIP3    H146682   1.944   0.597  11.409 -0.7486  1.1178  2.1233
 8397TIP3    H246683   2.075   0.611  11.333 -1.3741 -2.4064  0.1456
 8398TIP3   OH246684   3.814   3.289   1.601  0.2455  0.0070 -0.5130
 8398TIP3    H146685   3.832   3.202   1.566  0.2766 -1.3016  2.5282
 8398TIP3    H246686   3.889   3.342   1.572  0.0923 -0.8445 -2.6217
 8399TIP3   OH246687   0.250   5.691   2.943 -0.3220  0.0976  0.2310
 8399TIP3    H146688   0.159   5.668   2.959 -0.9874  2.5632  0.2631
 8399TIP3    H246689   0.283   5.723   3.027  0.0891  0.7143 -0.1511
 8400TIP3   OH246690   0.150   5.407  15.946 -0.8340  0.0211  0.4190
 8400TIP3    H146691   0.129   5.316  15.964 -0.9716  0.4421  2.6672
 8400TIP3    H246692   0.177   5.443  16.031  0.0902  1.8478 -0.5799
 8401TIP3   OH246693   3.698   3.837  14.098  0.4265  0.0260  0.1411
 8401TIP3    H146694   3.687   3.793  14.183  0.2447 -0.9423 -0.3614
 8401TIP3    H246695   3.784   3.877  14.103  0.8045 -0.7924  0.4652
 8402TIP3   OH246696   6.567   2.573  15.696 -0.0361  0.0880 -0.0429
 8402TIP3    H146697   6.657   2.556  15.667  0.2212  1.3795 -0.0737
 8402TIP3    H246698   6.540   2.492  15.740  1.4719  0.0002  0.7889
 8403TIP3   OH246699   1.594   2.931  11.125  0.4790  0.5288 -0.0825
 8403TIP3    H146700   1.552   3.009  11.090  0.0689 -0.0043 -0.8226
 8403TIP3    H246701   1.532   2.898  11.190 -0.3009 -0.2616 -1.1794
 8404TIP3   OH246702   2.761   6.179   1.870  0.0264  0.1182  0.2100
 8404TIP3    H146703   2.670   6.154   1.883 -0.1946  0.0441 -1.3409
 8404TIP3    H246704   2.759   6.275   1.864 -0.1719  0.0464 -1.2179
 8405TIP3   OH246705   0.074   0.282  15.257  0.4184  0.0802 -0.4482
 8405TIP3    H146706   0.121   0.244  15.331 -0.7669 -0.1215  0.2228
 8405TIP3    H246707  -0.011   0.239  15.258  0.0998  0.6558 -1.4529
 8406TIP3   OH246708   5.449   2.460   3.141 -0.2826 -0.4285 -0.0643
 8406TIP3    H146709   5.400   2.469   3.222  0.9224 -2.2501  0.9219
 8406TIP3    H246710   5.523   2.404   3.163 -0.4714 -1.8768 -2.6342
 8407TIP3   OH246711   1.290   6.291   1.185  0.0363  0.0131 -0.0916
 8407TIP3    H146712   1.302   6.204   1.147  0.9560 -0.4901  1.2680
 8407TIP3    H246713   1.220   6.280   1.250  0.9762 -0.0222  0.9435
 8408TIP3   OH246714   6.046   3.330  12.800  0.1569  0.0080  0.6089
 8408TIP3    H146715   6.026   3.373  12.883  1.4676 -0.3287  1.1336
 8408TIP3    H246716   6.080   3.399  12.744  2.3412 -0.2956  1.4793
 8409TIP3   OH246717   0.709   0.762  16.282  0.2881  0.0932  0.5001
 8409TIP3    H146718   0.769   0.713  16.225  0.3226 -0.7787  1.2837
 8409TIP3    H246719   0.685   0.839  16.229 -1.8685 -2.0079 -1.8401
 8410TIP3   OH246720   5.661   0.627   3.083  0.4475 -0.5410  0.0771
 8410TIP3    H146721   5.642   0.642   2.991 -2.2650  1.7067  0.8565
 8410TIP3    H246722   5.683   0.713   3.118 -0.6783 -0.9288  1.9052
 8411TIP3   OH246723   5.960   3.421  16.568  0.5151 -0.4233  0.2090
 8411TIP3    H146724   5.969   3.359  16.495  0.8610 -0.1516  0.0218
 8411TIP3    H246725   5.945   3.506  16.526 -0.3278 -0.4305  0.4691
 8412TIP3   OH246726   4.011   0.659  14.543  0.0639  0.4375 -0.4993
 8412TIP3    H146727   3.950   0.687  14.611 -0.9831  2.4049 -2.1459
 8412TIP3    H246728   4.073   0.731  14.536  1.2059 -0.5057 -0.4884
 8413TIP3   OH246729   6.070   6.149   2.920  0.4182  0.1958  0.3864
 8413TIP3    H146730   6.135   6.087   2.954  1.3207  0.6302 -0.5042
 8413TIP3    H246731   6.117   6.198   2.853 -0.5064  1.3360  0.5561
 8414TIP3   OH246732   0.370   3.288  16.270 -0.2883 -0.3804 -0.4258
 8414TIP3    H146733   0.296   3.228  16.262 -0.3440 -0.3148 -0.4032
 8414TIP3    H246734   0.445   3.231  16.287 -0.4850 -0.3847  0.4643
 8415TIP3   OH246735   0.400   4.427  15.451  0.0036  0.0026 -0.4034
 8415TIP3    H146736   0.481   4.414  15.499 -0.3386  1.1438  0.5214
 8415TIP3    H246737   0.343   4.355  15.480 -0.5520  1.2329  1.7225
 8416TIP3   OH246738   2.729   1.626  12.328 -0.2225 -0.4231  0.3104
 8416TIP3    H146739   2.812   1.618  12.376  0.8897 -0.5256 -1.5158
 8416TIP3    H246740   2.685   1.701  12.369  0.4571 -0.7710  1.7395
 8417TIP3   OH246741   2.562   2.001   6.315  0.1152 -0.0554  0.1219
 8417TIP3    H146742   2.650   1.964   6.319  0.5494 -0.0559 -4.3819
 8417TIP3    H246743   2.504   1.925   6.319  0.3884 -0.2118  1.3388
 8418TIP3   OH246744   4.444   4.081   1.779  0.2743 -0.6357  0.0394
 8418TIP3    H146745   4.477   4.171   1.775  1.8550 -1.1977 -0.1309
 8418TIP3    H246746   4.523   4.026   1.778 -0.6936 -2.0898 -1.6139
 8419TIP3   OH246747   3.445   5.691  17.159  0.6208 -0.4744 -0.0900
 8419TIP3    H146748   3.522   5.745  17.177 -0.7454  1.1389  1.2448
 8419TIP3    H246749   3.373   5.737  17.202 -1.9489  0.4218 -4.6668
 8420TIP3   OH246750   1.341   4.897   5.305 -0.0208 -0.2505 -0.2080
 8420TIP3    H146751   1.435   4.910   5.290 -0.2777  2.4635  0.0918
 8420TIP3    H246752   1.322   4.814   5.261  2.7742 -1.7246  1.0486
 8421TIP3   OH246753   3.728   3.174   2.358 -0.2558 -0.8320  0.0864
 8421TIP3    H146754   3.792   3.125   2.409 -0.6942  0.5420  2.0789
 8421TIP3    H246755   3.779   3.245   2.319 -0.2835 -0.6077  0.4481
 8422TIP3   OH246756   6.535   4.612  15.411 -0.0652  0.6303 -0.3694
 8422TIP3    H146757   6.553   4.630  15.319  0.0875  1.2967 -0.2183
 8422TIP3    H246758   6.620   4.590  15.449 -0.2411 -0.3823 -0.5361
 8423TIP3   OH246759   2.148   4.295   0.297 -0.2063 -0.5487  0.0130
 8423TIP3    H146760   2.150   4.386   0.325 -0.4376 -0.0879 -1.4114
 8423TIP3    H246761   2.240   4.271   0.286 -0.1305 -0.6040  0.7124
 8424TIP3   OH246762   1.990   4.767  14.178 -0.0091  0.2057  0.6194
 8424TIP3    H146763   1.954   4.856  14.174  0.7634  0.5248  0.7219
 8424TIP3    H246764   1.947   4.721  14.105  0.9540  1.1748 -0.6171
 8425TIP3   OH246765   0.714   3.550  14.272 -0.1156  0.5916 -0.0047
 8425TIP3    H146766   0.622   3.577  14.279 -0.3326  0.4917 -2.0155
 8425TIP3    H246767   0.739   3.530  14.362 -2.6969 -1.4365  0.3955
 8426TIP3   OH246768   2.251   5.585  12.756 -0.0374 -0.7436  0.1298
 8426TIP3    H146769   2.227   5.658  12.812  0.1938 -0.7835  0.2799
 8426TIP3    H246770   2.215   5.508  12.800  2.2861 -1.0922  1.5556
 8427TIP3   OH246771   5.058   1.683  13.873  0.8392  0.3783  0.3244
 8427TIP3    H146772   5.101   1.746  13.931  1.9714  1.6209 -1.7374
 8427TIP3    H246773   5.116   1.607  13.873  1.0100  0.5057  0.5542
 8428TIP3   OH246774   5.417   4.360  11.274  0.3236 -0.4824  0.2402
 8428TIP3    H146775   5.511   4.375  11.280  0.7795 -2.7552 -0.1564
 8428TIP3    H246776   5.394   4.383  11.184  0.6404 -0.5789  0.1364
 8429TIP3   OH246777   5.376   6.510   1.044 -0.2323 -0.2751 -0.1596
 8429TIP3    H146778   5.435   6.436   1.056 -0.4702 -0.4830 -0.2674
 8429TIP3    H246779   5.425   6.585   1.077 -1.2071 -0.9470  3.1581
 8430TIP3   OH246780   0.830   0.520   4.573 -0.1441  0.1816  0.2826
 8430TIP3    H146781   0.835   0.425   4.584 -0.1028 -0.2144 -2.3913
 8430TIP3    H246782   0.847   0.556   4.660  1.2298 -2.2096  1.0820
 8431TIP3   OH246783   3.205   1.870  15.182  0.1244  0.2530  0.2819
 8431TIP3    H146784   3.200   1.805  15.252 -0.2359  0.1803  0.1886
 8431TIP3    H246785   3.218   1.953  15.227 -1.5774  0.4134  0.5246
 8432TIP3   OH246786   4.656   1.260   3.457  0.2879  0.0848  0.3997
 8432TIP3    H146787   4.730   1.201   3.444 -0.9178 -1.5883  0.8042
 8432TIP3    H246788   4.694   1.336   3.501  2.1609  0.3449 -1.4982
 8433TIP3   OH246789   1.968   6.392   4.520 -0.4530  0.1174  0.5410
 8433TIP3    H146790   1.988   6.306   4.558 -0.0436  0.6367  1.5361
 8433TIP3    H246791   1.936   6.444   4.595  1.0626  1.3937  0.3367
 8434TIP3   OH246792   5.204   2.623  12.576 -0.7193  0.0169  0.0690
 8434TIP3    H146793   5.172   2.657  12.660 -1.0860 -2.7840  1.1698
 8434TIP3    H246794   5.234   2.535  12.596 -0.1732 -0.4955 -2.6530
 8435TIP3   OH246795   2.790   1.183   0.542 -0.7055  0.5325  0.5584
 8435TIP3    H146796   2.864   1.171   0.601 -0.7440  0.7067  0.6436
 8435TIP3    H246797   2.742   1.101   0.545  0.3613 -0.1867 -0.7171
 8436TIP3   OH246798   5.019   2.025  15.368  0.6175  0.0773  0.2168
 8436TIP3    H146799   4.976   2.104  15.403  1.2533  0.3115  0.4848
 8436TIP3    H246800   5.055   2.053  15.283  0.7567  0.0509  0.2665
 8437TIP3   OH246801   2.552   5.262  11.744 -0.4002  0.0391  0.3773
 8437TIP3    H146802   2.482   5.318  11.711 -1.0857  0.5437  2.5852
 8437TIP3    H246803   2.632   5.310  11.722 -0.7704  0.0923 -0.9808
 8438TIP3   OH246804   5.033   1.596  12.893 -0.4361  0.1205  0.5140
 8438TIP3    H146805   5.073   1.563  12.813  0.3340  1.1078  0.4670
 8438TIP3    H246806   5.095   1.663  12.925 -1.5006  0.8855  1.0495
 8439TIP3   OH246807   6.413   0.482  15.270 -0.0089  0.5029  0.3393
 8439TIP3    H146808   6.323   0.511  15.254 -0.3788  0.1991  1.6805
 8439TIP3    H246809   6.426   0.410  15.208 -0.5510  0.7972 -0.1312
 8440TIP3   OH246810   2.375   1.342   5.192  0.2508 -0.7465  0.2603
 8440TIP3    H146811   2.343   1.400   5.260 -0.2711 -1.1901  0.3981
 8440TIP3    H246812   2.379   1.255   5.233  0.3737 -0.9347 -0.1364
 8441TIP3   OH246813   3.934   2.151   0.717 -0.3771  0.1186 -0.4412
 8441TIP3    H146814   3.887   2.231   0.743 -0.2850 -0.2360  0.8815
 8441TIP3    H246815   3.865   2.084   0.713 -0.4528  0.2428 -1.5414
 8442TIP3   OH246816   3.848   3.624  12.007 -0.3673 -0.0172 -0.2021
 8442TIP3    H146817   3.753   3.619  12.019 -0.4840 -0.5827 -1.1980
 8442TIP3    H246818   3.859   3.685  11.933  0.1844  1.7688  1.2778
 8443TIP3   OH246819   0.354   0.446  16.524 -0.0246  0.2567  0.2042
 8443TIP3    H146820   0.365   0.517  16.460 -0.4648  0.1440 -0.0050
 8443TIP3    H246821   0.442   0.428  16.555  0.5172 -1.0111 -1.8262
 8444TIP3   OH246822   1.715   6.593   4.157 -0.2654  0.3249  0.1088
 8444TIP3    H146823   1.691   6.583   4.249  0.3624 -1.9827  0.0801
 8444TIP3    H246824   1.781   6.662   4.157 -3.1679  3.3450  0.7671
 8445TIP3   OH246825   5.859   1.838  14.953 -0.0499 -0.2529 -0.1131
 8445TIP3    H146826   5.769   1.867  14.966  0.5404  1.2879  0.7346
 8445TIP3    H246827   5.896   1.901  14.890  1.0280  0.4238  1.1523
 8446TIP3   OH246828   4.197   6.467  14.978  0.1560  0.3284 -0.0163
 8446TIP3    H146829   4.168   6.552  15.012 -1.4212  0.0190 -0.4940
 8446TIP3    H246830   4.269   6.487  14.919 -1.6300  1.6311 -1.8948
 8447TIP3   OH246831   5.198   0.160   4.162 -0.1146 -0.4849  0.1306
 8447TIP3    H146832   5.197   0.250   4.196  1.2757 -0.0076 -0.9866
 8447TIP3    H246833   5.260   0.163   4.089 -0.5369 -2.2177 -0.3376
 8448TIP3   OH246834   5.200   2.059   2.743  0.1255  0.2393  0.4379
 8448TIP3    H146835   5.235   2.055   2.832 -3.2258  1.2708  1.9983
 8448TIP3    H246836   5.178   2.152   2.730 -0.4028 -0.0664 -1.0293
 8449TIP3   OH246837   4.717   6.427   3.965  0.1617  0.0924  0.7244
 8449TIP3    H146838   4.648   6.450   4.028  0.8422  0.7238  1.2541
 8449TIP3    H246839   4.681   6.453   3.880  0.2782  1.7209  1.1370
 8450TIP3   OH246840   5.820   4.917   3.251  0.4875  0.2974 -0.3886
 8450TIP3    H146841   5.833   4.993   3.307  1.0852  0.6782 -1.0322
 8450TIP3    H246842   5.891   4.856   3.276 -0.2373 -0.2427  0.4194
 8451TIP3   OH246843   5.244   2.107   3.039 -0.0393  0.3365  0.0238
 8451TIP3    H146844   5.303   2.176   3.009 -1.0531  1.7211  1.0893
 8451TIP3    H246845   5.271   2.089   3.129 -0.2722 -0.1121  0.0084
 8452TIP3   OH246846   4.057   3.073   0.969  0.3811 -0.3995  0.0834
 8452TIP3    H146847   4.078   3.002   1.030  0.1679  0.3065  0.9919
 8452TIP3    H246848   4.030   3.028   0.889  2.1647 -1.3408 -0.0343
 8453TIP3   OH246849   3.682   3.053   4.566 -0.2608  0.3045 -0.3668
 8453TIP3    H146850   3.677   3.120   4.634 -1.1166 -1.2041  1.1584
 8453TIP3    H246851   3.774   3.051   4.540  0.6924 -0.7372  2.6217
 8454TIP3   OH246852   5.320   2.548   1.111  0.3517  0.0417  0.1467
 8454TIP3    H146853   5.383   2.620   1.112 -0.3502  0.6818  2.3241
 8454TIP3    H246854   5.374   2.469   1.118  0.9843  0.6181  3.4964
 8455TIP3   OH246855   1.951   4.086  14.888  0.0285 -0.0395  0.4798
 8455TIP3    H146856   1.989   4.009  14.932 -1.5497 -0.0489  1.9547
 8455TIP3    H246857   2.015   4.156  14.901  1.4923 -1.0510 -0.8823
 8456TIP3   OH246858   0.994   0.769  12.412  0.1507  0.0139 -0.3271
 8456TIP3    H146859   0.972   0.803  12.326  0.3250 -0.0500 -0.3988
 8456TIP3    H246860   1.076   0.813  12.435  0.0054  0.1745 -0.1096
 8457TIP3   OH246861   2.863   0.635  12.996 -0.1311  0.3645 -0.4242
 8457TIP3    H146862   2.847   0.554  13.045  1.0035 -0.0461 -0.7054
 8457TIP3    H246863   2.945   0.620  12.949  0.5049  1.9299  0.0863
 8458TIP3   OH246864   2.802   2.417  12.779 -0.0310 -0.4000 -0.1170
 8458TIP3    H146865   2.856   2.409  12.700  0.0729  1.3587 -0.2809
 8458TIP3    H246866   2.864   2.442  12.848 -0.2412 -1.1411  0.3486
 8459TIP3   OH246867   0.960   1.808   0.837 -0.0527  0.4069 -0.0799
 8459TIP3    H146868   0.917   1.799   0.923 -0.8913  1.0203 -0.4165
 8459TIP3    H246869   0.897   1.771   0.775  0.9647 -0.9427 -0.3513
 8460TIP3   OH246870   4.577   4.705   3.187 -0.5330 -0.3680  0.1551
 8460TIP3    H146871   4.605   4.739   3.102 -0.5292 -2.5635 -0.8048
 8460TIP3    H246872   4.617   4.618   3.191 -1.6875 -0.8522  1.7864
 8461TIP3   OH246873   4.263   1.804  16.934 -0.1285 -0.6251  0.3534
 8461TIP3    H146874   4.339   1.780  16.988  1.9136  0.9035 -1.6437
 8461TIP3    H246875   4.192   1.817  16.997  2.2250  1.6278  2.7960
 8462TIP3   OH246876   5.655   4.819   4.740  0.7481  0.2813  0.3183
 8462TIP3    H146877   5.600   4.895   4.721  0.3771 -0.2676 -0.8841
 8462TIP3    H246878   5.745   4.853   4.736  0.5689  0.7651  0.3329
 8463TIP3   OH246879   5.667   6.673  15.255  0.2414  0.2036  0.2640
 8463TIP3    H146880   5.709   6.622  15.325  1.3814  1.8320  0.8210
 8463TIP3    H246881   5.652   6.609  15.185  1.9651 -0.8455  0.7887
 8464TIP3   OH246882   5.688   2.544  15.131  0.2793 -0.2693  0.3642
 8464TIP3    H146883   5.647   2.470  15.086 -0.3371  1.1219 -1.4638
 8464TIP3    H246884   5.688   2.518  15.223 -3.0634 -1.1521  0.2574
 8465TIP3   OH246885   2.317   0.104   3.548 -0.0692  0.3672 -0.5995
 8465TIP3    H146886   2.235   0.150   3.534 -1.0853 -0.9930  0.6427
 8465TIP3    H246887   2.293   0.011   3.548  1.2602 -0.0171  1.0286
 8466TIP3   OH246888   6.196   0.297   4.449  0.4385  0.2342  0.0524
 8466TIP3    H146889   6.201   0.209   4.411  0.8206 -0.0189  0.6618
 8466TIP3    H246890   6.163   0.352   4.378  1.3631 -0.1739 -0.7236
 8467TIP3   OH246891   6.070   5.002   1.420  0.2787  0.3570 -0.6572
 8467TIP3    H146892   6.103   5.062   1.353  1.7029 -0.2763 -0.5645
 8467TIP3    H246893   6.108   5.034   1.501  0.2543 -0.0793 -0.4696
 8468TIP3   OH246894   6.004   2.231  17.108  0.1123 -0.0686 -0.1705
 8468TIP3    H146895   5.950   2.294  17.060 -0.5991 -0.2620  0.3687
 8468TIP3    H246896   6.093   2.247  17.075 -0.1181  0.9344 -0.3484
 8469TIP3   OH246897   3.887   4.557   0.422 -0.6280 -0.2672  0.3824
 8469TIP3    H146898   3.837   4.483   0.387  4.1600 -3.3345 -0.9574
 8469TIP3    H246899   3.905   4.612   0.346  0.4384 -0.8064  0.2343
 8470TIP3   OH246900   4.897   4.881   1.615 -0.1028  0.4938 -0.7890
 8470TIP3    H146901   4.858   4.925   1.690  1.2187 -0.7331  0.6939
 8470TIP3    H246902   4.991   4.882   1.633  0.0755 -1.7063 -1.3670
 8471TIP3   OH246903   4.034   1.156  11.234 -0.2545  0.0864  0.1343
 8471TIP3    H146904   4.036   1.126  11.144 -3.4405  0.9655 -0.3715
 8471TIP3    H246905   4.087   1.236  11.234  0.7298 -0.5450 -0.6423
 8472TIP3   OH246906   0.954   1.227  15.787 -0.0185 -0.3943  0.0087
 8472TIP3    H146907   0.884   1.286  15.759  0.6855  1.2362  1.4740
 8472TIP3    H246908   0.965   1.166  15.715 -1.5673  0.5736 -1.0971
 8473TIP3   OH246909   2.013   3.800   0.598 -0.2050 -0.1657 -0.2875
 8473TIP3    H146910   2.028   3.798   0.692 -0.4806  0.1175 -0.2357
 8473TIP3    H246911   1.955   3.874   0.584  0.3340  0.1776 -0.7563
 8474TIP3   OH246912   3.271   4.166  13.087  0.8402  0.0655 -0.3698
 8474TIP3    H146913   3.299   4.170  12.996 -0.8978 -0.1610 -0.9639
 8474TIP3    H246914   3.289   4.076  13.114  0.7046 -0.0749 -0.7379
 8475TIP3   OH246915   2.632   4.092   2.807 -0.1071  0.2165 -0.0993
 8475TIP3    H146916   2.716   4.133   2.787 -0.6691  2.5208  1.7942
 8475TIP3    H246917   2.575   4.117   2.733  0.6769 -0.9382 -1.1370
 8476TIP3   OH246918   1.765   5.723  16.760 -0.2572  0.3547 -0.3141
 8476TIP3    H146919   1.691   5.664  16.775 -0.1598 -0.0080 -1.1834
 8476TIP3    H246920   1.777   5.722  16.665 -0.3609  1.9304 -0.3547
 8477TIP3   OH246921   1.062   3.004  16.863 -0.1493  0.2682 -0.1305
 8477TIP3    H146922   1.144   3.005  16.814 -0.1946  0.5372 -0.2065
 8477TIP3    H246923   0.995   2.982  16.798 -0.1778  0.3760 -0.1388
 8478TIP3   OH246924   2.485   4.413  13.771 -0.7633  0.0555  0.3993
 8478TIP3    H146925   2.553   4.467  13.812 -0.1072 -0.1522 -0.3838
 8478TIP3    H246926   2.402   4.450  13.802 -0.3533  1.7697 -0.4228
 8479TIP3   OH246927   2.563   1.622   0.549  0.1831  0.5038 -0.0878
 8479TIP3    H146928   2.566   1.703   0.498 -0.6653  1.7669  1.7497
 8479TIP3    H246929   2.519   1.647   0.631  1.1122 -1.5108  1.0991
 8480TIP3   OH246930   5.765   4.546   1.854 -0.0827  0.0441 -0.0599
 8480TIP3    H146931   5.790   4.497   1.933 -1.4724  0.4770  0.6752
 8480TIP3    H246932   5.846   4.552   1.804  0.6975 -0.7835  1.0381
 8481TIP3   OH246933   2.237   5.095   4.599  0.4056 -0.2441 -0.1141
 8481TIP3    H146934   2.150   5.064   4.573 -0.1027  1.1278 -0.1586
 8481TIP3    H246935   2.298   5.032   4.561 -0.5672 -1.1837 -0.1538
 8482TIP3   OH246936   0.153   5.643  15.337 -0.0662  0.2968 -0.1567
 8482TIP3    H146937   0.230   5.699  15.353  0.5161 -0.5484  0.0458
 8482TIP3    H246938   0.153   5.630  15.242  0.3572 -0.1413 -0.0991
 8483TIP3   OH246939   1.567   3.244  13.616 -0.2637  0.0869 -0.8042
 8483TIP3    H146940   1.496   3.189  13.650 -0.2405  0.1371 -0.6752
 8483TIP3    H246941   1.595   3.297  13.691  0.2688 -0.3132 -0.7118
 8484TIP3   OH246942   0.335   4.862  11.050 -0.2951  0.5040 -0.1150
 8484TIP3    H146943   0.282   4.832  10.977 -0.3609  0.9040 -0.2387
 8484TIP3    H246944   0.425   4.863  11.016 -0.3710  1.0549 -0.3211
 8485TIP3   OH246945   6.027   0.254  15.926 -0.5033 -0.5416 -1.1361
 8485TIP3    H146946   5.991   0.335  15.962  0.2181 -0.5009 -0.4897
 8485TIP3    H246947   6.119   0.272  15.911  0.2830 -1.9409  1.3517
 8486TIP3   OH246948   0.605   6.029   1.315  0.2715  0.4291  0.0938
 8486TIP3    H146949   0.688   6.003   1.355 -0.1487 -1.6616 -0.2462
 8486TIP3    H246950   0.612   6.123   1.302  1.9780  0.5339  1.4573
 8487TIP3   OH246951   6.303   1.605   4.142  0.0614 -0.3019  0.0458
 8487TIP3    H146952   6.261   1.627   4.059 -0.8122 -1.4295  0.1595
 8487TIP3    H246953   6.238   1.553   4.189  0.8427 -0.3617  1.1048
 8488TIP3   OH246954   6.787   2.603  12.471 -0.2988  0.0646  0.2134
 8488TIP3    H146955   6.824   2.564  12.550 -1.0756 -0.3219  0.3959
 8488TIP3    H246956   6.708   2.552  12.453 -0.3431  0.3963 -0.5916
 8489TIP3   OH246957   3.480   5.474   3.218  1.2223 -0.0145  0.2995
 8489TIP3    H146958   3.473   5.557   3.266  0.9321  0.7264 -0.9809
 8489TIP3    H246959   3.510   5.411   3.283 -0.2353  0.6983  1.7251
 8490TIP3   OH246960   3.813   3.717   1.202  0.9043 -0.9125  0.5146
 8490TIP3    H146961   3.889   3.679   1.158 -0.2511  0.4301 -2.9524
 8490TIP3    H246962   3.836   3.809   1.214  0.3541 -0.7968  0.7035
 8491TIP3   OH246963   5.431   0.254  14.069  0.6766  0.2312 -0.6275
 8491TIP3    H146964   5.400   0.174  14.026 -1.6030  1.0459 -0.6356
 8491TIP3    H246965   5.458   0.311  13.997 -0.9840  0.7420 -0.8710
 8492TIP3   OH246966   5.491   4.682  12.874  0.6766 -0.5171 -0.2920
 8492TIP3    H146967   5.456   4.611  12.928  1.9272  0.4995  2.0174
 8492TIP3    H246968   5.499   4.644  12.786 -0.7554 -2.4994  0.3653
 8493TIP3   OH246969   5.585   2.942   1.588  0.7794 -0.1690  0.7916
 8493TIP3    H146970   5.565   3.026   1.629  2.7567  0.6583  0.2244
 8493TIP3    H246971   5.640   2.897   1.652  1.5744 -0.0397  0.2336
 8494TIP3   OH246972   1.633   5.979  11.319  0.0002  0.0584 -0.5089
 8494TIP3    H146973   1.602   5.968  11.409  0.5920  1.7669 -0.0653
 8494TIP3    H246974   1.677   6.063  11.319  0.7147 -0.2770 -2.2225
 8495TIP3   OH246975   0.414   5.131  12.242  0.1849 -0.2666  0.3219
 8495TIP3    H146976   0.460   5.048  12.244 -0.5220 -0.7219 -0.8485
 8495TIP3    H246977   0.343   5.118  12.179  0.9362  1.6601 -1.0348
 8496TIP3   OH246978   3.508   4.111  16.799 -0.5262 -0.4579 -0.2752
 8496TIP3    H146979   3.413   4.106  16.806 -0.7002  0.3979 -1.6650
 8496TIP3    H246980   3.532   4.189  16.849 -0.6896 -0.0376 -0.8396
 8497TIP3   OH246981   4.799   3.966  17.379  0.0087 -0.0499 -0.1625
 8497TIP3    H146982   4.838   3.889  17.337  0.3353 -1.3341  2.2900
 8497TIP3    H246983   4.706   3.961  17.356 -0.0459 -1.4229  0.2733
 8498TIP3   OH246984   3.657   5.364  13.009 -0.4412 -0.1019  0.1944
 8498TIP3    H146985   3.715   5.289  13.025  0.5586  0.6954  0.4042
 8498TIP3    H246986   3.634   5.357  12.917 -0.6129 -0.8475  0.2897
 8499TIP3   OH246987   4.042   2.079  15.047 -0.1178 -0.4386 -0.3150
 8499TIP3    H146988   4.109   2.141  15.074  0.5240 -1.1806 -0.1566
 8499TIP3    H246989   3.972   2.133  15.012  0.5813  0.3524 -0.5271
 8500TIP3   OH246990   5.997   5.952   1.679  0.2586  0.4205 -0.2653
 8500TIP3    H146991   5.998   5.929   1.772  0.2242 -0.4206 -0.4614
 8500TIP3    H246992   5.917   5.911   1.645 -1.1248  2.8188 -0.1812
 8501TIP3   OH246993   3.278   2.909   3.169  0.0274  0.0646 -0.0744
 8501TIP3    H146994   3.331   2.831   3.151  1.6900  0.9359  0.8229
 8501TIP3    H246995   3.197   2.894   3.121 -0.3185 -2.8866  1.1726
 8502TIP3   OH246996   5.208   0.024   2.400  0.2186  0.2461  0.0715
 8502TIP3    H146997   5.118   0.037   2.373 -0.6261 -3.6889  0.3684
 8502TIP3    H246998   5.259   0.027   2.319 -0.5895 -0.2514 -0.4611
 8503TIP3   OH246999   2.990   3.288  15.443 -0.1106 -0.4643  0.4479
 8503TIP3    H147000   2.978   3.213  15.385  1.0583 -0.3247 -0.0015
 8503TIP3    H247001   3.083   3.310  15.436 -0.2890  0.6033  1.0937
 8504TIP3   OH247002   4.592   4.085  11.667 -0.5444  0.0691 -0.0387
 8504TIP3    H147003   4.621   4.009  11.617 -0.1745 -0.6066  1.1679
 8504TIP3    H247004   4.524   4.051  11.725 -0.1576  0.5787  0.7336
 8505TIP3   OH247005   1.028   6.524  16.092  0.9336 -0.1199  0.1969
 8505TIP3    H147006   1.095   6.522  16.161  0.1052  1.7425  1.1521
 8505TIP3    H247007   0.946   6.538  16.140  0.3340  1.2559 -1.1469
 8506TIP3   OH247008   5.399   6.036   6.001  0.4020  0.3867  0.0214
 8506TIP3    H147009   5.305   6.033   5.983  0.7376 -0.2982 -1.8362
 8506TIP3    H247010   5.405   6.034   6.097 -1.4473 -1.5342  0.1866
 8507TIP3   OH247011   1.367   5.425   0.456  0.6242 -0.3928  0.3579
 8507TIP3    H147012   1.454   5.432   0.494  0.9846 -0.4470 -0.4468
 8507TIP3    H247013   1.353   5.507   0.410  0.0006 -0.1391  0.9793
 8508TIP3   OH247014   5.520   1.625  14.273  0.0447 -0.0223 -0.5970
 8508TIP3    H147015   5.525   1.696  14.337  0.6940 -0.0058 -0.6627
 8508TIP3    H247016   5.512   1.670  14.188 -0.5756 -0.0419 -0.5539
 8509TIP3   OH247017   4.280   3.425   4.060  0.2214 -0.8603  0.9200
 8509TIP3    H147018   4.263   3.341   4.103 -0.6244 -1.1606  0.0477
 8509TIP3    H247019   4.295   3.486   4.132  0.8955 -1.7575  1.5714
 8510TIP3   OH247020   2.879   3.978  16.642 -0.0646  0.1178  0.5348
 8510TIP3    H147021   2.968   4.011  16.653  0.5449 -1.2694  0.0720
 8510TIP3    H247022   2.860   3.932  16.724 -1.0488  1.8446  1.3269
 8511TIP3   OH247023   6.151   2.790   0.342  0.5874 -0.3054  0.4598
 8511TIP3    H147024   6.132   2.705   0.302 -1.3822  0.1553  0.2953
 8511TIP3    H247025   6.228   2.821   0.295 -0.1551 -0.8972 -1.2700
 8512TIP3   OH247026   6.448   2.149   4.170 -0.6384  0.0630 -0.1587
 8512TIP3    H147027   6.475   2.141   4.079 -0.6436 -0.1089 -0.1464
 8512TIP3    H247028   6.438   2.058   4.200 -2.1078  0.1230 -0.4094
 8513TIP3   OH247029   1.652   5.912  16.540  0.2166  0.2540  0.4857
 8513TIP3    H147030   1.661   5.852  16.467 -2.2999  1.4779 -0.9793
 8513TIP3    H247031   1.738   5.913  16.582  1.0428 -2.3389 -0.9539
 8514TIP3   OH247032   0.477   0.839  13.224 -0.9085 -0.0012 -0.1231
 8514TIP3    H147033   0.555   0.858  13.171  1.7121 -2.5634  2.4164
 8514TIP3    H247034   0.485   0.897  13.300 -0.6673 -1.2180  0.8089
 8515TIP3   OH247035   4.924   1.380  13.086  0.0366 -0.0386 -0.2185
 8515TIP3    H147036   4.908   1.473  13.101  0.9817  0.4758 -2.0571
 8515TIP3    H247037   5.004   1.361  13.134 -0.8235 -0.2466  1.1830
 8516TIP3   OH247038   6.761   5.005  14.278  0.0533 -0.0624  0.1842
 8516TIP3    H147039   6.757   5.095  14.310 -2.2615 -0.0310 -0.0467
 8516TIP3    H247040   6.764   5.014  14.183 -0.6392 -0.2259  0.1449
 8517TIP3   OH247041   0.224   5.618  10.503  0.1063  0.1308 -0.3847
 8517TIP3    H147042   0.293   5.567  10.460 -0.6444 -0.0319 -1.4517
 8517TIP3    H247043   0.196   5.563  10.576  0.9196  0.0793 -0.1006
 8518TIP3   OH247044   4.256   2.819  12.607  0.0787 -0.8212  1.2343
 8518TIP3    H147045   4.276   2.815  12.513 -0.1977 -0.4919  1.1562
 8518TIP3    H247046   4.222   2.732  12.628 -0.6724 -0.6350  0.8287
 8519TIP3   OH247047   1.154   3.514  12.577  0.3249 -0.5110  0.3286
 8519TIP3    H147048   1.100   3.454  12.526  1.6054 -0.6498 -0.9133
 8519TIP3    H247049   1.240   3.509  12.537  1.7379 -1.4662  3.2040
 8520TIP3   OH247050   2.115   6.592   6.717  0.4651 -0.9342 -0.1569
 8520TIP3    H147051   2.152   6.599   6.629  0.0177  0.4875 -0.2723
 8520TIP3    H247052   2.146   6.671   6.762 -1.3121 -0.3442  0.1387
 8521TIP3   OH247053   4.132   1.857   5.706 -0.4172 -1.0950 -0.0644
 8521TIP3    H147054   4.098   1.838   5.618 -2.4669  2.7761 -0.3259
 8521TIP3    H247055   4.200   1.924   5.691 -2.8344  1.8909  1.2834
 8522TIP3   OH247056   3.627   6.655   4.841 -0.7464 -0.3183  0.5825
 8522TIP3    H147057   3.609   6.563   4.825 -0.1639 -0.6164  1.5652
 8522TIP3    H247058   3.702   6.676   4.785  0.1699 -0.8900  1.5572
 8523TIP3   OH247059   1.994   6.026   4.373 -0.0891  0.2896 -0.4342
 8523TIP3    H147060   1.994   6.045   4.466 -1.2677 -0.2524 -0.2993
 8523TIP3    H247061   2.082   6.050   4.343 -0.0138  1.3979  0.6063
 8524TIP3   OH247062   5.494   6.647  11.980 -0.0803  0.4640 -0.2633
 8524TIP3    H147063   5.476   6.658  11.887  0.7333  0.3811 -0.4363
 8524TIP3    H247064   5.409   6.658  12.022 -1.0072 -2.1649 -1.2228
 8525TIP3   OH247065   3.467   5.329   0.261 -0.7260 -0.5353 -0.3358
 8525TIP3    H147066   3.375   5.334   0.287 -0.9230  0.0465 -1.0874
 8525TIP3    H247067   3.465   5.343   0.166  0.0389 -1.6595 -0.5380
 8526TIP3   OH247068   5.913   2.677  13.736 -0.0146  0.9405  0.2684
 8526TIP3    H147069   5.863   2.744  13.688 -0.5203  0.3896  0.0104
 8526TIP3    H247070   5.852   2.645  13.802  0.1194  0.5088  0.1843
 8527TIP3   OH247071   2.894   2.029  15.237  0.3773 -0.4434  0.1436
 8527TIP3    H147072   2.811   2.049  15.194  0.6086  0.4612  0.0936
 8527TIP3    H247073   2.880   1.943  15.277 -0.4103 -0.5281 -0.2880
 8528TIP3   OH247074   3.008   0.262   6.290  0.7036 -0.3045  0.0383
 8528TIP3    H147075   2.999   0.187   6.348  3.9144 -0.0741  1.0339
 8528TIP3    H247076   3.000   0.338   6.348 -2.2253  0.2440 -0.9125
 8529TIP3   OH247077   3.629   2.370  10.788 -0.0705 -0.5295 -0.0258
 8529TIP3    H147078   3.637   2.434  10.858 -0.5847 -2.1525  1.5822
 8529TIP3    H247079   3.535   2.368  10.767  0.1810  0.5849 -1.4421
 8530TIP3   OH247080   5.403   0.604  12.503  0.7771  0.0330  0.1950
 8530TIP3    H147081   5.332   0.624  12.564  1.6081 -0.8472  1.4768
 8530TIP3    H247082   5.406   0.680  12.445 -0.1551  0.8059  1.1090
 8531TIP3   OH247083   3.854   1.201  12.288 -0.1453 -0.0490  0.1472
 8531TIP3    H147084   3.925   1.224  12.229  0.7278 -1.8595  0.4506
 8531TIP3    H247085   3.776   1.241  12.248  0.8000  0.7992 -0.9090
 8532TIP3   OH247086   5.835   1.419   0.316  0.2620  0.3052 -0.2444
 8532TIP3    H147087   5.907   1.449   0.372  0.4023  0.8336 -0.6978
 8532TIP3    H247088   5.837   1.323   0.324  0.4876  0.3584  0.3912
 8533TIP3   OH247089   2.205   6.349   4.397 -0.5025  0.3522  0.0934
 8533TIP3    H147090   2.231   6.422   4.341  0.6262  0.5034  0.7877
 8533TIP3    H247091   2.113   6.367   4.418  0.0197  2.1475  1.0900
 8534TIP3   OH247092   0.102   5.460   0.400 -0.1126 -0.5232  0.7837
 8534TIP3    H147093   0.103   5.525   0.330 -1.8026 -0.7940  0.4641
 8534TIP3    H247094   0.099   5.511   0.481  0.8165 -0.2231  0.6506
 8535TIP3   OH247095   1.209   5.574  11.854  0.0089 -0.4112 -0.5676
 8535TIP3    H147096   1.190   5.539  11.767 -0.6200 -1.9365  0.1333
 8535TIP3    H247097   1.129   5.619  11.880 -0.4102 -1.3550 -0.1596
 8536TIP3   OH247098   6.231   4.033   4.020 -0.1994 -0.3750  0.2040
 8536TIP3    H147099   6.180   4.018   4.100  0.5071  0.2406  0.7789
 8536TIP3    H247100   6.182   4.101   3.974 -0.9348 -1.1535 -0.1934
 8537TIP3   OH247101   5.885   6.448   4.203  0.1252  0.4583  0.0863
 8537TIP3    H147102   5.814   6.398   4.162  0.0562  0.1463  0.5762
 8537TIP3    H247103   5.848   6.535   4.216 -0.3537  0.1575  0.8134
 8538TIP3   OH247104   2.342   5.163  13.522 -0.1429  0.6684  0.3298
 8538TIP3    H147105   2.247   5.159  13.531 -0.1609 -1.1527 -0.3444
 8538TIP3    H247106   2.375   5.094  13.580  0.7087  0.5458 -0.2777
 8539TIP3   OH247107   4.443   0.783   1.220 -0.0059 -0.2744 -0.4905
 8539TIP3    H147108   4.421   0.780   1.126 -0.7645 -1.9517 -0.2862
 8539TIP3    H247109   4.390   0.714   1.259  0.4507  0.2778  1.1677
 8540TIP3   OH247110   0.863   1.441   0.957 -0.1586  0.1199  0.1236
 8540TIP3    H147111   0.880   1.350   0.934 -0.3272 -0.1276  0.9325
 8540TIP3    H247112   0.768   1.449   0.954 -0.1318  0.3374 -0.1796
 8541TIP3   OH247113   4.719   3.979  15.068 -0.0435 -0.7264 -0.1408
 8541TIP3    H147114   4.725   3.995  15.162 -1.8558 -0.3440 -0.0526
 8541TIP3    H247115   4.806   4.001  15.034  0.7307 -1.1508  1.4647
 8542TIP3   OH247116   2.906   5.391  13.909  0.0263 -0.2438  0.8985
 8542TIP3    H147117   2.811   5.377  13.913 -0.0669 -0.1275 -0.3205
 8542TIP3    H247118   2.943   5.303  13.914 -0.2171 -0.3902  0.2988
 8543TIP3   OH247119   6.343   3.919  10.794  0.7176 -0.1332 -1.0662
 8543TIP3    H147120   6.352   4.014  10.796 -0.8140  0.0665 -1.9066
 8543TIP3    H247121   6.399   3.888  10.864  0.5400  1.4530 -0.1754
 8544TIP3   OH247122   6.239   4.997  13.683  0.5807 -0.0432  0.2385
 8544TIP3    H147123   6.193   4.915  13.666  0.5090  0.0092  0.1773
 8544TIP3    H247124   6.170   5.063  13.691  0.6543  0.0832 -0.1295
 8545TIP3   OH247125   2.033   6.676  10.844 -0.4834 -0.3436 -0.4051
 8545TIP3    H147126   2.053   6.661  10.752 -0.0557  3.0859 -0.9933
 8545TIP3    H247127   1.945   6.713  10.844 -0.4617 -0.2714  0.5769
 8546TIP3   OH247128   0.637   2.065  13.965  0.3702 -0.3875 -0.1414
 8546TIP3    H147129   0.600   2.128  13.904  0.9968  0.2910  0.1668
 8546TIP3    H247130   0.590   1.983  13.947  0.5882 -0.2200 -1.5703
 8547TIP3   OH247131   3.232   0.026   4.273  0.3879  0.6493  0.3048
 8547TIP3    H147132   3.314   0.026   4.223 -0.2155 -0.7156 -0.7545
 8547TIP3    H247133   3.215  -0.066   4.292 -1.2554  0.8144 -0.1433
 8548TIP3   OH247134   3.310   6.073   1.701 -0.2648  0.2930 -0.2950
 8548TIP3    H147135   3.230   6.024   1.721 -0.5216  1.1407  0.8101
 8548TIP3    H247136   3.280   6.162   1.686  0.3779  0.4288 -0.7862
 8549TIP3   OH247137   3.415   6.702  11.823  0.7034 -0.0424 -0.3488
 8549TIP3    H147138   3.449   6.643  11.891 -2.1631 -2.6033 -0.8936
 8549TIP3    H247139   3.460   6.674  11.743  2.5826  1.5984  0.0786
 8550TIP3   OH247140   0.867   2.966   0.596 -0.3209 -0.3942  0.4407
 8550TIP3    H147141   0.805   2.919   0.652 -1.0783 -0.7199 -0.6382
 8550TIP3    H247142   0.814   3.031   0.551  0.6031  1.0686  1.4099
 8551TIP3   OH247143   6.790   0.537   2.271  0.0012  0.4664 -0.7203
 8551TIP3    H147144   6.745   0.454   2.253  0.1995  0.3550 -0.7098
 8551TIP3    H247145   6.872   0.531   2.221  1.1257 -0.3609  1.1250
 8552TIP3   OH247146   0.277   5.010  11.765  0.5869  0.1735 -0.2544
 8552TIP3    H147147   0.294   4.927  11.721  1.2880 -0.8407  1.7749
 8552TIP3    H247148   0.182   5.013  11.776  0.4603  0.1776 -1.2994
 8553TIP3   OH247149   4.382   4.723  13.112  0.8872 -0.3601 -0.0986
 8553TIP3    H147150   4.340   4.801  13.076 -0.9325 -1.9406 -1.6065
 8553TIP3    H247151   4.348   4.717  13.202 -0.0951 -0.1735 -0.4438
 8554TIP3   OH247152   3.507   1.157   0.734  0.6478  0.8291 -0.4395
 8554TIP3    H147153   3.514   1.062   0.736  1.2503  0.8719 -0.1760
 8554TIP3    H247154   3.504   1.179   0.641  3.1912  0.7018 -0.6340
 8555TIP3   OH247155   4.739   4.129  15.678 -0.7660 -0.1537 -0.2594
 8555TIP3    H147156   4.805   4.185  15.637 -0.3559  0.7532  1.5327
 8555TIP3    H247157   4.760   4.131  15.772 -2.3406 -1.1862  0.1584
 8556TIP3   OH247158   4.759   0.631   1.844 -0.1051  0.2696 -0.3448
 8556TIP3    H147159   4.794   0.554   1.799  2.0072  0.1922  1.3045
 8556TIP3    H247160   4.687   0.596   1.897  1.3265 -0.8078  1.0008
 8557TIP3   OH247161   3.240   0.354  11.853  0.4549  0.1934  0.1508
 8557TIP3    H147162   3.180   0.363  11.779  1.1828 -0.1760 -0.4971
 8557TIP3    H247163   3.223   0.267  11.888 -1.1905  1.0381  1.6101
 8558TIP3   OH247164   2.536   1.398  14.560 -0.8971  0.0934  0.5629
 8558TIP3    H147165   2.610   1.418  14.503 -1.2515 -0.8604 -0.2563
 8558TIP3    H247166   2.536   1.468  14.625  1.3309 -0.4285  1.2039
 8559TIP3   OH247167   0.602   0.019  16.158  0.7912 -0.3193  0.1948
 8559TIP3    H147168   0.553   0.064  16.226 -0.2052 -0.4022 -0.4478
 8559TIP3    H247169   0.572   0.059  16.076 -0.6778 -2.5484 -0.4668
 8560TIP3   OH247170   3.464   2.892  11.805 -0.0012  0.2211 -0.9177
 8560TIP3    H147171   3.452   2.910  11.711  0.6691  1.7703 -0.7305
 8560TIP3    H247172   3.406   2.954  11.848 -3.4186 -3.0327 -0.2686
 8561TIP3   OH247173   0.609   0.721  11.737 -0.0457  0.0146 -0.6697
 8561TIP3    H147174   0.548   0.791  11.758  0.8545  0.6423 -0.0808
 8561TIP3    H247175   0.679   0.763  11.687  0.8963 -0.2777  0.3428
 8562TIP3   OH247176   2.577   0.229  14.390  0.3266 -0.2259 -0.1343
 8562TIP3    H147177   2.607   0.202  14.477 -1.9329 -1.6441  0.2847
 8562TIP3    H247178   2.507   0.292  14.407 -0.6761 -1.1105 -0.8638
 8563TIP3   OH247179   1.197   2.883  17.083  0.3146 -0.2495 -0.8328
 8563TIP3    H147180   1.111   2.916  17.057  0.1999 -0.7380 -1.0863
 8563TIP3    H247181   1.257   2.957  17.070  0.1107 -0.2216 -1.6513
 8564TIP3   OH247182   5.007   4.361   5.298 -1.3543  0.0027 -0.1717
 8564TIP3    H147183   5.024   4.399   5.212 -4.1773  2.4125  0.2062
 8564TIP3    H247184   5.092   4.363   5.342 -0.2633  0.5304 -2.1988
 8565TIP3   OH247185   2.522   6.107   4.000 -0.0780 -0.1507 -0.3611
 8565TIP3    H147186   2.597   6.082   3.947 -0.8389 -1.1364 -0.9938
 8565TIP3    H247187   2.446   6.069   3.955 -0.7109 -1.3773  1.6068
 8566TIP3   OH247188   1.401   5.426  12.693  0.1225  0.4596  0.2100
 8566TIP3    H147189   1.436   5.370  12.762  1.3685 -0.1874 -0.9037
 8566TIP3    H247190   1.335   5.479  12.737  1.9995  1.2428  2.2655
 8567TIP3   OH247191   2.157   1.327  16.670  0.6405  0.3558  0.1064
 8567TIP3    H147192   2.212   1.319  16.592  0.2865 -0.3956 -0.0755
 8567TIP3    H247193   2.208   1.286  16.740  0.1837 -0.6884 -0.1422
 8568TIP3   OH247194   1.178   2.068   3.827  0.0037  0.5823 -0.3689
 8568TIP3    H147195   1.153   1.991   3.776 -1.6769 -0.3417  1.7064
 8568TIP3    H247196   1.157   2.142   3.771 -1.2440 -0.4052 -1.2567
 8569TIP3   OH247197   6.227   6.033   0.112  0.1221  0.3870 -0.2796
 8569TIP3    H147198   6.139   6.026   0.147  0.2129  0.0690 -0.1093
 8569TIP3    H247199   6.235   6.124   0.083 -0.5061  0.2419 -0.9494
 8570TIP3   OH247200   3.879   4.304  12.000  0.2128  0.1292  0.0389
 8570TIP3    H147201   3.793   4.262  11.996 -0.2377  1.0052  0.3993
 8570TIP3    H247202   3.926   4.255  12.066 -1.0913  1.5600  2.1380
 8571TIP3   OH247203   5.516   6.141  11.118 -0.4368 -0.4490 -0.5294
 8571TIP3    H147204   5.445   6.143  11.054 -0.2739  0.5887 -0.6847
 8571TIP3    H247205   5.477   6.099  11.195 -1.4684  0.8243 -0.3249
 8572TIP3   OH247206   3.833   6.727  15.161  0.2013 -0.2023  0.0779
 8572TIP3    H147207   3.864   6.734  15.252  0.0276 -0.2064  0.1379
 8572TIP3    H247208   3.751   6.777  15.159  0.0036 -0.5231  0.0192
 8573TIP3   OH247209   5.779   1.853  14.516 -0.1998 -0.0021 -0.9868
 8573TIP3    H147210   5.804   1.776  14.464  0.4442  0.9302 -2.0982
 8573TIP3    H247211   5.706   1.892  14.467 -0.5912  0.0562 -0.3719
 8574TIP3   OH247212   6.657   0.698  13.188 -0.1350 -0.3887  0.2607
 8574TIP3    H147213   6.701   0.747  13.118  0.3277 -1.8464 -0.4912
 8574TIP3    H247214   6.718   0.629  13.212  0.1094  0.5708  2.7697
 8575TIP3   OH247215   6.495   6.775  11.774  0.6609 -0.2688  1.0213
 8575TIP3    H147216   6.425   6.755  11.712  1.1000 -0.9564  0.7302
 8575TIP3    H247217   6.517   6.691  11.813  1.1428 -0.0176  1.3051
 8576TIP3   OH247218   4.316   5.208  17.182  0.6828  0.4552  0.2012
 8576TIP3    H147219   4.273   5.286  17.147  1.4112  0.9456  0.3823
 8576TIP3    H247220   4.376   5.181  17.112 -0.8575 -1.0253 -0.6102
 8577TIP3   OH247221   3.291   0.042   3.777 -0.0218 -0.1904 -0.6140
 8577TIP3    H147222   3.243  -0.021   3.830  0.6378 -0.8772 -0.8275
 8577TIP3    H247223   3.376   0.050   3.820  1.3029 -2.3026 -2.6629
 8578TIP3   OH247224   6.377   1.639  14.873 -0.7466 -0.4578  0.1643
 8578TIP3    H147225   6.431   1.588  14.812  0.2780  0.3424  0.3643
 8578TIP3    H247226   6.306   1.673  14.819  0.0551  0.1067 -0.5722
 8579TIP3   OH247227   1.211   0.047  15.375  0.0909  0.5102 -0.6726
 8579TIP3    H147228   1.277  -0.010  15.336  1.6151  0.6751  1.5218
 8579TIP3    H247229   1.131   0.027  15.326  1.1307 -1.6746 -1.6181
 8580TIP3   OH247230   0.888   2.156   0.773  0.0825  0.2739  1.0504
 8580TIP3    H147231   0.811   2.139   0.828 -0.1994 -1.5018  0.1617
 8580TIP3    H247232   0.953   2.091   0.801 -0.1594 -0.8527 -0.8443
 8581TIP3   OH247233   4.152   3.345   5.790  0.1643  0.2586  0.3084
 8581TIP3    H147234   4.174   3.423   5.841 -0.1371  2.2370 -2.3830
 8581TIP3    H247235   4.236   3.307   5.765  0.3413  0.7228  0.2001
 8582TIP3   OH247236   4.802   0.963  14.017 -0.2218  0.0056 -0.5673
 8582TIP3    H147237   4.786   1.034  13.956  0.6081 -0.2196 -1.0700
 8582TIP3    H247238   4.831   0.890  13.962  0.8396 -0.1093  0.1010
 8583TIP3   OH247239   3.246   2.590   3.810 -0.1745 -0.0411 -0.1607
 8583TIP3    H147240   3.311   2.646   3.852 -0.0701 -1.2898  1.4569
 8583TIP3    H247241   3.194   2.554   3.882 -1.1959 -0.8501 -1.2418
 8584TIP3   OH247242   1.153   4.776  16.234  0.2143 -0.3092  0.3269
 8584TIP3    H147243   1.136   4.683  16.254  1.7444 -0.4089  1.3834
 8584TIP3    H247244   1.196   4.809  16.313 -2.2815  1.9325  0.8714
 8585TIP3   OH247245   5.684   3.267  13.850 -0.3855  0.4926 -0.5393
 8585TIP3    H147246   5.590   3.252  13.841 -0.3946 -0.7098  1.1143
 8585TIP3    H247247   5.690   3.353  13.893 -0.5591  2.0879 -3.4383
 8586TIP3   OH247248   4.709   2.791   5.544 -0.1168  0.5737 -0.1226
 8586TIP3    H147249   4.733   2.853   5.613 -1.3199  0.7444  0.1682
 8586TIP3    H247250   4.711   2.706   5.587  1.7873  0.3318 -0.5859
 8587TIP3   OH247251   1.089   1.502  13.532 -0.3311  0.1816  0.2582
 8587TIP3    H147252   1.111   1.566  13.599 -0.2546 -0.8527  1.2503
 8587TIP3    H247253   1.017   1.451  13.569  0.1840 -0.8711 -0.1327
 8588TIP3   OH247254   4.596   0.130  13.705 -0.0163  0.1563  0.0847
 8588TIP3    H147255   4.668   0.193  13.709  0.1413 -0.0759  1.4232
 8588TIP3    H247256   4.560   0.140  13.617 -0.3864  2.5563  0.4416
 8589TIP3   OH247257   6.234   5.234   1.278 -0.2264  0.3226  0.0704
 8589TIP3    H147258   6.159   5.280   1.316 -0.1402  1.2427 -0.8332
 8589TIP3    H247259   6.293   5.221   1.352 -1.6737 -1.3295  1.0135
 8590TIP3   OH247260   2.912   3.350   2.937 -0.0194  0.1153  0.0361
 8590TIP3    H147261   2.942   3.411   3.005  1.2051 -0.0446 -0.3447
 8590TIP3    H247262   2.902   3.267   2.982 -1.2768  0.4798  0.4653
 8591TIP3   OH247263   6.599   4.985  16.063 -0.1018 -0.0751 -0.9213
 8591TIP3    H147264   6.524   4.981  16.123  0.6046 -1.3950 -0.0668
 8591TIP3    H247265   6.585   4.912  16.002 -0.0430  0.3239 -1.4116
 8592TIP3   OH247266   3.510   0.020  16.372 -0.1822 -0.3140 -0.0392
 8592TIP3    H147267   3.479   0.110  16.382  1.4145  0.0233  2.8729
 8592TIP3    H247268   3.444  -0.033  16.417  0.3272 -0.2602  0.7849
 8593TIP3   OH247269   0.651   6.111   0.226  0.3289 -0.2120 -0.3131
 8593TIP3    H147270   0.703   6.049   0.175 -0.7439 -1.4709  0.0575
 8593TIP3    H247271   0.619   6.060   0.301 -1.5938  0.4150 -0.6342
 8594TIP3   OH247272   4.067   6.203   2.361  1.2218  0.1292  0.2943
 8594TIP3    H147273   4.127   6.265   2.403 -0.9149  3.1379 -0.7593
 8594TIP3    H247274   4.106   6.187   2.274  1.2168  0.9643  0.1304
 8595TIP3   OH247275   0.975   4.111   4.128 -0.2107  0.3704 -0.1234
 8595TIP3    H147276   0.904   4.056   4.159 -0.3469  0.6828  0.1333
 8595TIP3    H247277   1.055   4.071   4.164 -0.2703  0.1148 -0.2739
 8596TIP3   OH247278   6.623   5.369  12.795  0.4192  0.3419  0.0127
 8596TIP3    H147279   6.626   5.464  12.805  0.5544  0.6379 -2.3452
 8596TIP3    H247280   6.530   5.350  12.781  0.3030  0.0210  1.1360
 8597TIP3   OH247281   1.478   6.031  14.091  0.4227 -0.1326  0.2012
 8597TIP3    H147282   1.506   6.067  14.175 -1.0024  1.0480  0.2042
 8597TIP3    H247283   1.420   5.959  14.114  1.5235 -1.0496  0.1964
 8598TIP3   OH247284   3.349   4.692   3.980  0.1819  0.5142  0.0224
 8598TIP3    H147285   3.411   4.671   4.050 -1.0146 -0.6009  0.8131
 8598TIP3    H247286   3.322   4.606   3.947 -1.2506  0.9549  0.0070
 8599TIP3   OH247287   5.920   0.988  14.809 -0.0040  0.1827  0.0061
 8599TIP3    H147288   5.831   0.957  14.827  0.0508 -0.1523 -0.2847
 8599TIP3    H247289   5.964   0.984  14.893  0.1324 -0.9718 -0.0987
 8600TIP3   OH247290   2.253   4.787   2.047 -0.0372  0.1251  0.3418
 8600TIP3    H147291   2.248   4.728   1.972  0.1575 -0.3456  0.6915
 8600TIP3    H247292   2.174   4.767   2.098  0.9008 -1.1384  1.3920
 8601TIP3   OH247293   6.416   1.859   4.211  0.7935  0.2020  0.1916
 8601TIP3    H147294   6.366   1.880   4.290  1.7078 -0.4477  0.9827
 8601TIP3    H247295   6.394   1.768   4.192  1.7657 -0.1461  0.6501
 8602TIP3   OH247296   3.792   3.785   6.619 -0.3901 -0.2650  0.1274
 8602TIP3    H147297   3.736   3.707   6.614 -0.6831 -0.0425 -0.1212
 8602TIP3    H247298   3.730   3.859   6.617 -0.0013  0.0563 -2.3133
 8603TIP3   OH247299   5.699   1.058   1.210  0.3269 -0.0465 -0.4146
 8603TIP3    H147300   5.777   1.105   1.179 -0.6199  1.9369  0.0579
 8603TIP3    H247301   5.711   1.051   1.304  0.3449 -0.5570 -0.4530
 8604TIP3   OH247302   1.580   1.218   5.466 -0.2880 -0.1570  0.3121
 8604TIP3    H147303   1.529   1.154   5.514 -2.2777 -0.7925 -2.3802
 8604TIP3    H247304   1.563   1.301   5.511 -2.2353 -0.6691  0.6035
 8605TIP3   OH247305   1.520   6.161   5.954  0.0234  0.4191 -0.7548
 8605TIP3    H147306   1.540   6.141   6.045 -1.6555  0.2770 -0.3759
 8605TIP3    H247307   1.432   6.201   5.957 -0.7745 -1.0741 -2.4437
 8606TIP3   OH247308   2.830   3.444  13.332  0.6752  0.1270 -0.0118
 8606TIP3    H147309   2.801   3.488  13.253  0.2103  1.2414  0.7669
 8606TIP3    H247310   2.910   3.490  13.358  0.8368 -0.2406  0.1541
 8607TIP3   OH247311   6.076   6.621  15.668 -0.4393 -0.1847  0.2590
 8607TIP3    H147312   6.117   6.536  15.653 -0.1090 -0.0501  0.3779
 8607TIP3    H247313   6.011   6.629  15.599  0.1647 -0.1374 -0.3172
 8608TIP3   OH247314   3.319   5.348  16.684  0.0008  0.4353  0.3970
 8608TIP3    H147315   3.311   5.316  16.594 -1.6682  1.6917  0.0583
 8608TIP3    H247316   3.373   5.282  16.728  1.6739  0.2759 -1.7267
 8609TIP3   OH247317   2.277   5.734   0.214  0.3979  0.1127 -0.8237
 8609TIP3    H147318   2.300   5.786   0.137  1.1812 -2.4985 -2.4677
 8609TIP3    H247319   2.347   5.753   0.277 -0.3368  2.4022 -0.5929
 8610TIP3   OH247320   1.396   3.839   5.567 -0.4387 -0.0041 -0.5784
 8610TIP3    H147321   1.383   3.770   5.632  1.4096  1.7110  1.8139
 8610TIP3    H247322   1.309   3.876   5.553 -0.9210 -0.5340  0.8514
 8611TIP3   OH247323   1.784   4.190  16.128 -0.4910 -0.0203  0.0436
 8611TIP3    H147324   1.865   4.156  16.091 -1.4334 -2.8500  0.3315
 8611TIP3    H247325   1.731   4.214  16.052 -0.4768 -0.9118 -0.2482
 8612TIP3   OH247326   2.663   5.991   4.474  0.2692  0.1779 -0.6760
 8612TIP3    H147327   2.664   6.060   4.407  1.1937 -0.2445 -1.1144
 8612TIP3    H247328   2.635   6.036   4.553  0.7281  1.0426 -0.9838
 8613TIP3   OH247329   0.849   1.005   6.116  0.7478  0.1308 -0.4306
 8613TIP3    H147330   0.799   1.086   6.124  1.6532  0.7677 -1.0792
 8613TIP3    H247331   0.915   1.023   6.050  0.1218 -1.5877 -1.5980
 8614TIP3   OH247332   5.615   6.537  12.267 -0.8347 -0.8109 -0.4231
 8614TIP3    H147333   5.653   6.508  12.350 -0.2171 -2.1512 -1.1278
 8614TIP3    H247334   5.544   6.475  12.251 -2.1368  0.5272 -0.0516
 8615TIP3   OH247335   3.246   0.180   5.397 -0.3541  0.9124  0.1255
 8615TIP3    H147336   3.228   0.092   5.364 -0.6506  0.9012  0.3078
 8615TIP3    H247337   3.161   0.213   5.425 -0.1064  0.8881  0.9456
 8616TIP3   OH247338   0.398   2.687   1.465  0.5472 -0.4416 -0.5771
 8616TIP3    H147339   0.411   2.698   1.371  1.7872 -2.1113 -0.6476
 8616TIP3    H247340   0.366   2.772   1.495  0.2274  0.1549 -2.4769
 8617TIP3   OH247341   3.346   4.519  12.984  0.2522  0.1108 -0.2847
 8617TIP3    H147342   3.419   4.576  12.956  0.2760  0.0367 -0.3748
 8617TIP3    H247343   3.296   4.504  12.904 -0.4512  1.0029 -0.0342
 8618TIP3   OH247344   6.774   0.634   6.253 -0.6670 -0.0022 -0.8245
 8618TIP3    H147345   6.864   0.663   6.265 -0.4743 -0.7503 -0.3365
 8618TIP3    H247346   6.754   0.584   6.333 -1.3576 -0.2259 -1.1249
 8619TIP3   OH247347   1.774   6.207  15.396 -0.8449 -0.3949 -0.0267
 8619TIP3    H147348   1.863   6.181  15.375 -0.4142 -0.4627  1.6893
 8619TIP3    H247349   1.729   6.212  15.312  1.1042  0.9165 -1.0480
 8620TIP3   OH247350   0.873   0.647   0.026 -0.0778  0.5028  0.0880
 8620TIP3    H147351   0.863   0.727  -0.027 -2.3269  0.3752  0.2157
 8620TIP3    H247352   0.802   0.590  -0.003  0.9692 -1.1363  0.6106
 8621TIP3   OH247353   5.094   6.148   3.478  0.3417 -0.0876  0.5027
 8621TIP3    H147354   5.088   6.059   3.443 -1.5429 -0.1741  0.9690
 8621TIP3    H247355   5.019   6.156   3.537  1.2752  1.3536  1.5483
 8622TIP3   OH247356   6.147   5.802   3.170  0.0015  0.5010  0.1117
 8622TIP3    H147357   6.086   5.821   3.099  0.6427  0.5258 -0.4382
 8622TIP3    H247358   6.233   5.827   3.136  0.1729  1.8566  1.3841
 8623TIP3   OH247359   0.139   3.905  11.773 -0.3061 -0.4915  0.2630
 8623TIP3    H147360   0.169   3.847  11.843 -0.3009 -1.8018 -0.7852
 8623TIP3    H247361   0.074   3.853  11.725 -0.5410  0.4936 -0.5135
 8624TIP3   OH247362   3.919   3.635   6.386 -0.1365  0.0774 -0.5206
 8624TIP3    H147363   3.849   3.621   6.322 -1.1697  2.7449 -0.1074
 8624TIP3    H247364   3.923   3.554   6.436 -2.9056 -0.1895 -0.6101
 8625TIP3   OH247365   1.989   4.186  12.250  0.5071 -0.4562 -0.4466
 8625TIP3    H147366   1.923   4.118  12.260  0.1767 -0.1561 -0.5417
 8625TIP3    H247367   2.063   4.156  12.302  0.4169 -0.9493 -0.5967
 8626TIP3   OH247368   1.529   4.927  16.556 -0.0918  0.3257 -0.0174
 8626TIP3    H147369   1.585   4.850  16.546 -1.0434 -0.5334  0.8747
 8626TIP3    H247370   1.442   4.896  16.531 -0.5004  1.0916  0.4095
 8627TIP3   OH247371   5.856   4.191  15.689  0.0048 -0.2804 -0.1170
 8627TIP3    H147372   5.872   4.125  15.756  2.9752 -0.3123 -0.7364
 8627TIP3    H247373   5.804   4.145  15.622  0.3697 -1.4150  0.3556
 8628TIP3   OH247374   4.288   5.810  13.114  0.4025 -0.0755 -0.3249
 8628TIP3    H147375   4.310   5.761  13.034 -1.1305 -0.1400 -0.7413
 8628TIP3    H247376   4.269   5.898  13.084 -0.2006 -0.1031 -0.0368
 8629TIP3   OH247377   4.923   1.243   1.704  0.0881  0.1279  0.1791
 8629TIP3    H147378   4.888   1.180   1.767  1.9366  0.0619  1.2096
 8629TIP3    H247379   4.922   1.327   1.750 -0.7304  0.5468 -0.5684
 8630TIP3   OH247380   1.633   3.286  13.110 -0.3891  0.3960 -0.6095
 8630TIP3    H147381   1.696   3.237  13.163  0.0673  0.2989 -1.2312
 8630TIP3    H247382   1.548   3.256  13.142 -0.1326  0.6807  0.3778
 8631TIP3   OH247383   1.361   3.486   5.033 -0.3745  0.3262 -0.2077
 8631TIP3    H147384   1.269   3.471   5.011 -0.4354 -0.7384  0.6722
 8631TIP3    H247385   1.364   3.485   5.128  0.4785  0.8568 -0.2133
 8632TIP3   OH247386   5.445   6.452   2.231  0.3697 -0.5536  0.0852
 8632TIP3    H147387   5.434   6.402   2.151 -2.9191  1.1378 -0.7130
 8632TIP3    H247388   5.532   6.490   2.225  0.5828 -1.2902 -2.1722
 8633TIP3   OH247389   6.318   6.208   0.579  0.1245 -0.0552 -0.0967
 8633TIP3    H147390   6.234   6.246   0.551  0.2982  0.7449  0.4675
 8633TIP3    H247391   6.294   6.141   0.643 -0.2548 -1.6552 -1.7870
 8634TIP3   OH247392   0.100   4.259  12.457 -0.2029  0.8843  0.3230
 8634TIP3    H147393   0.112   4.267  12.362  0.3244 -0.4845  0.2422
 8634TIP3    H247394   0.102   4.165  12.473  0.8218  1.1207  1.8198
 8635TIP3   OH247395   5.335   6.326  16.027 -0.8068 -0.3131 -0.3657
 8635TIP3    H147396   5.291   6.311  15.944  1.5423 -0.8989 -1.6087
 8635TIP3    H247397   5.396   6.252  16.035 -0.9151 -0.2394  1.8659
 8636TIP3   OH247398   0.638   2.448  16.100  0.1507 -0.2082 -0.0801
 8636TIP3    H147399   0.597   2.362  16.088  1.2113 -1.2540  2.7890
 8636TIP3    H247400   0.573   2.497  16.152  1.0702 -0.7193  1.6356
 8637TIP3   OH247401   4.548   5.310  16.790  0.2819 -0.3298  0.0196
 8637TIP3    H147402   4.612   5.323  16.719 -0.6864 -0.3633 -0.8789
 8637TIP3    H247403   4.464   5.302  16.745 -0.1489 -2.0893  1.0438
 8638TIP3   OH247404   3.944   2.668  14.657 -0.1030  0.5158 -0.1777
 8638TIP3    H147405   3.922   2.594  14.715  1.8332  0.1444  0.1501
 8638TIP3    H247406   4.035   2.687  14.677  0.0569  1.6137 -1.8207
 8639TIP3   OH247407   4.624   4.518   2.250  0.1256  0.5366 -0.1504
 8639TIP3    H147408   4.702   4.567   2.224  1.1802 -0.6880  0.6101
 8639TIP3    H247409   4.559   4.586   2.269  1.0885  1.5968 -0.5179
 8640TIP3   OH247410   1.143   1.976   5.586 -0.4293  0.1016 -0.6474
 8640TIP3    H147411   1.209   1.995   5.520 -1.1142  2.1381 -0.7975
 8640TIP3    H247412   1.140   1.880   5.589  0.0452 -0.0689 -3.1336
 8641TIP3   OH247413   0.317   0.974  15.400 -0.4751 -0.8214  0.2675
 8641TIP3    H147414   0.340   0.925  15.322  2.5695  0.2356  0.3801
 8641TIP3    H247415   0.333   0.913  15.472 -3.2595 -1.7881  0.1745
 8642TIP3   OH247416   4.540   5.402   4.566 -0.2111  0.6180 -0.0673
 8642TIP3    H147417   4.512   5.356   4.486 -0.3913 -0.0173  0.3522
 8642TIP3    H247418   4.474   5.470   4.578 -0.3509  0.5262 -0.3005
 8643TIP3   OH247419   6.455   4.564   5.385  0.7190 -0.4566  0.3548
 8643TIP3    H147420   6.489   4.546   5.472  0.0222 -1.7170  0.3804
 8643TIP3    H247421   6.384   4.502   5.373 -1.1902  1.6583  0.0462
 8644TIP3   OH247422   4.377   5.938   1.465  0.3093 -0.0299  0.0898
 8644TIP3    H147423   4.291   5.978   1.481  0.4507  0.3553 -0.1111
 8644TIP3    H247424   4.359   5.845   1.457 -0.0913  0.0492  0.0587
 8645TIP3   OH247425   6.228   5.258   6.826  0.1068 -0.4625 -0.5466
 8645TIP3    H147426   6.304   5.315   6.816 -0.9380  1.0257 -0.3494
 8645TIP3    H247427   6.161   5.297   6.769 -1.6250  0.3311  1.8996
 8646TIP3   OH247428   3.969   3.130  15.875 -0.1368 -0.5396 -0.2244
 8646TIP3    H147429   4.056   3.091  15.885 -0.0827  0.1045  2.8219
 8646TIP3    H247430   3.909   3.056  15.875  0.3140 -0.9124 -0.7342
 8647TIP3   OH247431   6.097   0.032  13.813  0.6067  0.5810 -0.2559
 8647TIP3    H147432   6.058   0.118  13.798  1.3567  0.8881 -0.5102
 8647TIP3    H247433   6.023  -0.028  13.817 -0.0497  1.4361  1.4687
 8648TIP3   OH247434   4.743   2.353  16.893  0.1862 -0.5637 -0.5471
 8648TIP3    H147435   4.704   2.409  16.959  0.6791 -0.7866 -0.0528
 8648TIP3    H247436   4.705   2.266  16.910  1.8675 -1.1020  0.8395
 8649TIP3   OH247437   3.620   4.839  13.391 -0.0555 -0.4690 -0.1074
 8649TIP3    H147438   3.684   4.825  13.320  0.4627 -0.0281  0.2647
 8649TIP3    H247439   3.566   4.760  13.390  1.7122 -1.7775  0.8137
 8650TIP3   OH247440   1.146   2.535   5.077  0.4155  0.0106 -0.2480
 8650TIP3    H147441   1.231   2.509   5.041 -0.0963 -0.0296 -1.4897
 8650TIP3    H247442   1.168   2.595   5.149  1.5872 -2.8364  1.9596
 8651TIP3   OH247443   1.014   6.224  14.578 -0.0979 -0.5049 -0.1234
 8651TIP3    H147444   0.969   6.278  14.643  1.1665 -0.4633  0.7468
 8651TIP3    H247445   1.015   6.278  14.499 -0.1539  0.1406  0.3063
 8652TIP3   OH247446   2.744   3.518   4.798  0.3386 -0.3163  0.5895
 8652TIP3    H147447   2.700   3.439   4.768 -0.2054 -0.0821  0.7649
 8652TIP3    H247448   2.824   3.522   4.746  0.3411 -0.9457  0.5373
 8653TIP3   OH247449   5.128   4.055   2.539 -0.3724 -0.1513 -0.6648
 8653TIP3    H147450   5.138   4.131   2.481 -1.6091  0.3528 -0.2635
 8653TIP3    H247451   5.036   4.059   2.567 -0.7642 -2.3951 -1.4632
 8654TIP3   OH247452   2.307   6.314   6.509  0.1806  0.4857  0.8027
 8654TIP3    H147453   2.313   6.404   6.540  0.1245  0.8991 -0.3297
 8654TIP3    H247454   2.392   6.297   6.468  0.4435 -0.2242  1.6083
 8655TIP3   OH247455   0.307   2.668   5.494  0.0656 -0.3031 -0.1144
 8655TIP3    H147456   0.275   2.620   5.418  0.2469  0.6334 -0.8006
 8655TIP3    H247457   0.402   2.669   5.485  0.4480 -3.4098  2.1234
 8656TIP3   OH247458   0.760   6.795  17.221 -0.5563  0.1908 -0.6884
 8656TIP3    H147459   0.717   6.820  17.303  1.7443  0.2875  0.5912
 8656TIP3    H247460   0.710   6.839  17.153 -2.3967  0.3225  0.6661
 8657TIP3   OH247461   3.022   1.481   1.956 -0.1829  0.6134  0.0110
 8657TIP3    H147462   2.969   1.484   1.876 -0.1908  1.9449  0.0383
 8657TIP3    H247463   2.959   1.476   2.027 -0.2347  0.9132 -0.0116
 8658TIP3   OH247464   0.340   5.208   0.150  0.1663 -0.1187  0.0558
 8658TIP3    H147465   0.258   5.172   0.115  0.6673 -2.2696  0.9448
 8658TIP3    H247466   0.315   5.247   0.234  0.0280 -0.7206  0.3009
 8659TIP3   OH247467   4.149   0.331   0.885  0.3233  0.0559 -0.4873
 8659TIP3    H147468   4.207   0.386   0.832 -0.3869  0.5660 -0.7557
 8659TIP3    H247469   4.064   0.336   0.841  0.3843 -1.8400 -0.9249
 8660TIP3   OH247470   3.069   6.227   1.733 -0.6358  1.0812  0.3577
 8660TIP3    H147471   3.008   6.233   1.659 -0.8088 -0.0585  0.3934
 8660TIP3    H247472   3.029   6.282   1.800 -3.1125 -1.6493  1.3562
 8661TIP3   OH247473   4.818   3.624  15.443  0.2964  0.0467 -0.2204
 8661TIP3    H147474   4.751   3.681  15.406 -0.7536 -0.8248  0.2885
 8661TIP3    H247475   4.844   3.666  15.525  0.9353  0.7665 -0.7738
 8662TIP3   OH247476   1.301   2.703  12.193  0.0631  0.2701 -0.4953
 8662TIP3    H147477   1.284   2.725  12.102  0.5632 -4.0808 -1.8943
 8662TIP3    H247478   1.235   2.637  12.214  1.3198 -0.4308  1.5587
 8663TIP3   OH247479   5.701   1.766  12.895 -0.1501 -0.5277 -0.3714
 8663TIP3    H147480   5.792   1.740  12.887  0.1659  0.3650  0.0788
 8663TIP3    H247481   5.700   1.857  12.864 -0.9713 -0.6754 -0.7930
 8664TIP3   OH247482   3.050   3.844  12.994  0.2856  0.3542  0.0752
 8664TIP3    H147483   2.977   3.840  12.932  0.9773  2.3742 -0.9859
 8664TIP3    H247484   3.114   3.782  12.960 -0.1951 -0.1026 -0.0139
 8665TIP3   OH247485   5.023   2.817  14.123 -0.2652  0.3949 -0.1142
 8665TIP3    H147486   5.103   2.774  14.152  0.3165  2.9825  2.5257
 8665TIP3    H247487   4.966   2.745  14.096  1.5940 -1.8053  1.4032
 8666TIP3   OH247488   2.420   6.159  13.690  0.1265  0.7027  0.8548
 8666TIP3    H147489   2.360   6.104  13.640 -0.1574  2.5918 -1.0121
 8666TIP3    H247490   2.482   6.097  13.730 -0.8213 -1.0159 -0.2429
 8667TIP3   OH247491   3.236   2.893  13.447 -0.2382 -0.0378 -0.1344
 8667TIP3    H147492   3.144   2.916  13.439 -0.6042 -1.4114 -0.0506
 8667TIP3    H247493   3.239   2.799  13.428  1.0385 -0.1602  0.5912
 8668TIP3   OH247494   1.326   3.162  15.418 -0.0294 -0.3519  0.8873
 8668TIP3    H147495   1.361   3.081  15.382  1.5620  1.1675 -1.2117
 8668TIP3    H247496   1.370   3.171  15.503  0.4064 -1.2438  0.7713
 8669TIP3   OH247497   1.841   5.040  14.332 -0.2241  0.6859  0.1437
 8669TIP3    H147498   1.895   5.064  14.256 -0.5389  0.5888 -0.1115
 8669TIP3    H247499   1.791   5.119  14.352 -0.4541  0.5799 -0.0143
 8670TIP3   OH247500   4.870   2.234   1.532  0.7170 -0.1724 -0.3000
 8670TIP3    H147501   4.788   2.220   1.579  0.3993  1.6783 -0.2350
 8670TIP3    H247502   4.922   2.155   1.551 -1.3132 -1.7998 -1.0459
 8671TIP3   OH247503   3.885   5.251  17.301 -0.1099 -0.7462  0.5400
 8671TIP3    H147504   3.883   5.245  17.206  0.3262 -0.3227  0.4979
 8671TIP3    H247505   3.960   5.197  17.327  0.3347 -0.1223  0.5719
 8672TIP3   OH247506   0.717   6.261   0.872  0.4364 -0.5107 -0.1962
 8672TIP3    H147507   0.809   6.287   0.879 -0.1834  1.6686  0.7842
 8672TIP3    H247508   0.711   6.180   0.922  1.7064 -0.3620  0.2422
 8673TIP3   OH247509   2.285   2.445  15.542  0.2316  0.1202  0.0869
 8673TIP3    H147510   2.328   2.403  15.468  0.4431 -1.7490  1.1985
 8673TIP3    H247511   2.203   2.398  15.552  0.2573  0.2661  1.1114
 8674TIP3   OH247512   1.362   0.541   1.518 -0.2000 -0.7234  0.3178
 8674TIP3    H147513   1.285   0.595   1.534  0.3840 -0.1033  1.1177
 8674TIP3    H247514   1.327   0.456   1.492 -1.1477 -0.4053  0.5156
 8675TIP3   OH247515   0.440   0.646  12.312  0.5004 -0.3690  0.0511
 8675TIP3    H147516   0.354   0.659  12.273  0.6445  1.2406  0.1910
 8675TIP3    H247517   0.490   0.599  12.246 -0.4124 -1.1315 -0.1124
 8676TIP3   OH247518   6.587   6.651  16.767  0.0974 -0.6435  0.0992
 8676TIP3    H147519   6.600   6.744  16.749 -2.9620 -0.0785  0.2862
 8676TIP3    H247520   6.620   6.607  16.689  0.1364  0.7196 -0.6794
 8677TIP3   OH247521   5.151   5.546   3.246  0.0598 -0.0456  0.2071
 8677TIP3    H147522   5.126   5.624   3.197 -1.6454 -0.2682  0.6469
 8677TIP3    H247523   5.246   5.553   3.256  0.0530  1.5144 -0.5132
 8678TIP3   OH247524   3.078   4.714  14.558 -0.6261  0.7034 -0.6518
 8678TIP3    H147525   3.002   4.659  14.539 -0.3577 -1.0944  2.7168
 8678TIP3    H247526   3.041   4.797  14.586 -1.4306 -0.0882  0.7712
 8679TIP3   OH247527   0.240   1.597   0.061  0.5809  0.0375 -0.2621
 8679TIP3    H147528   0.192   1.527   0.107  0.1169  1.8188  2.1560
 8679TIP3    H247529   0.320   1.608   0.112 -0.6444  3.1077  1.2146
 8680TIP3   OH247530   0.503   3.331  14.826  0.3639 -0.3355 -0.1741
 8680TIP3    H147531   0.516   3.278  14.904  0.5484 -0.0338  0.0030
 8680TIP3    H247532   0.468   3.414  14.858 -1.0646 -0.7643 -0.5538
 8681TIP3   OH247533   2.509   5.500   3.801  0.3360  0.1654 -0.1929
 8681TIP3    H147534   2.501   5.423   3.857 -0.0062  1.3470  1.4462
 8681TIP3    H247535   2.500   5.574   3.861  2.3549  1.5134 -1.4346
 8682TIP3   OH247536   4.848   5.342   1.372  0.0792 -0.4778  0.6006
 8682TIP3    H147537   4.876   5.267   1.424 -0.5968 -0.4212  1.0602
 8682TIP3    H247538   4.837   5.413   1.436  1.4696  0.2394  0.0726
 8683TIP3   OH247539   0.248   6.737   4.755  0.6701 -0.2021  0.3087
 8683TIP3    H147540   0.335   6.739   4.715  0.9611 -1.8784  0.7744
 8683TIP3    H247541   0.248   6.811   4.816  1.8376 -0.2658  0.4123
 8684TIP3   OH247542   3.690   3.177   3.452  0.5188  0.4441 -0.5051
 8684TIP3    H147543   3.625   3.219   3.508  0.2999 -0.9945  0.3746
 8684TIP3    H247544   3.672   3.211   3.365 -2.4568 -0.9871 -0.5976
 8685TIP3   OH247545   2.474   2.962   4.983 -0.4145 -0.3120  0.1921
 8685TIP3    H147546   2.458   3.046   4.940  0.5627 -0.1161  0.1865
 8685TIP3    H247547   2.514   2.908   4.915 -1.5829 -0.9880  0.0271
 8686TIP3   OH247548   2.886   2.960  12.965  0.1080  0.2299 -0.0110
 8686TIP3    H147549   2.933   2.965  12.882 -1.1542 -1.5029 -0.9043
 8686TIP3    H247550   2.875   2.866  12.981 -1.8199  0.5475  0.8270
 8687TIP3   OH247551   4.762   3.177   0.809  0.0470  0.6997  0.0770
 8687TIP3    H147552   4.706   3.252   0.787 -0.5854 -0.0081 -0.7994
 8687TIP3    H247553   4.792   3.144   0.724 -0.1317 -0.3727  0.4186
 8688TIP3   OH247554   5.226   4.257  12.193  0.2942 -0.4781 -0.6092
 8688TIP3    H147555   5.186   4.214  12.118 -0.6346  2.3431 -1.8965
 8688TIP3    H247556   5.159   4.254  12.261 -0.7151  0.9091 -1.4873
 8689TIP3   OH247557   4.130   2.247   1.422 -0.1521  0.0054  0.2038
 8689TIP3    H147558   4.187   2.269   1.348 -0.3843 -0.0729 -0.0001
 8689TIP3    H247559   4.079   2.327   1.438 -0.8806 -0.3147 -0.4328
 8690TIP3   OH247560   0.694   4.673  12.875  0.0534  0.2179 -0.4742
 8690TIP3    H147561   0.679   4.650  12.967 -2.0926 -1.5601 -1.1817
 8690TIP3    H247562   0.756   4.746  12.878 -0.3745  0.5700  2.4007
 8691TIP3   OH247563   6.158   0.238  13.271 -0.1605  0.1219 -0.2953
 8691TIP3    H147564   6.253   0.226  13.261  0.0689  1.5706 -0.0358
 8691TIP3    H247565   6.130   0.159  13.318  0.4991 -1.4754 -2.4220
 8692TIP3   OH247566   3.877   2.527   4.503  0.2262 -0.1268 -0.1315
 8692TIP3    H147567   3.797   2.573   4.528 -0.5392 -0.4605 -1.8457
 8692TIP3    H247568   3.881   2.451   4.561 -0.6382 -0.0431  0.0417
 8693TIP3   OH247569   2.460   0.663  17.154 -0.4205 -0.5912  0.3448
 8693TIP3    H147570   2.498   0.603  17.089 -1.1285 -0.2887 -0.3672
 8693TIP3    H247571   2.469   0.616  17.237  1.1392 -0.6864  0.1478
 8694TIP3   OH247572   6.351   6.416   3.091 -0.3442  0.6468 -0.6906
 8694TIP3    H147573   6.395   6.332   3.078 -1.8898 -0.1956 -0.5878
 8694TIP3    H247574   6.260   6.394   3.108 -0.6563  2.3176  0.0127
 8695TIP3   OH247575   3.126   1.207   2.265  0.0050 -0.0721  0.0871
 8695TIP3    H147576   3.107   1.113   2.266 -0.4364  0.0037 -0.4084
 8695TIP3    H247577   3.046   1.247   2.300 -1.1496  0.3028 -2.7195
 8696TIP3   OH247578   2.964   5.655   2.257 -0.7013 -0.6979 -0.1341
 8696TIP3    H147579   2.930   5.744   2.255  1.6050  0.2537 -0.3857
 8696TIP3    H247580   3.004   5.642   2.171  0.4067 -1.3480  0.4448
 8697TIP3   OH247581   5.819   5.108   0.180  0.0859  0.4551 -0.4474
 8697TIP3    H147582   5.846   5.158   0.257 -3.2343  1.7846  0.0602
 8697TIP3    H247583   5.811   5.174   0.111 -0.7461  0.0065 -0.8007
 8698TIP3   OH247584   2.971   1.188  15.706 -0.1046 -0.1480  0.3194
 8698TIP3    H147585   2.946   1.279  15.721 -1.2513 -0.4913  0.5596
 8698TIP3    H247586   3.015   1.189  15.621  0.0973  0.6588  0.4240
 8699TIP3   OH247587   5.890   4.169  17.162 -0.3300  0.3957  0.1710
 8699TIP3    H147588   5.966   4.126  17.123  1.6112  4.4200 -1.0847
 8699TIP3    H247589   5.829   4.181  17.088 -1.3934 -1.0679  0.7586
 8700TIP3   OH247590   4.305   2.478   2.450 -0.2366  0.0260 -0.3278
 8700TIP3    H147591   4.210   2.483   2.445 -0.3478  0.3183  1.4419
 8700TIP3    H247592   4.325   2.385   2.435 -0.7927 -0.0092 -0.8582
 8701TIP3   OH247593   6.117   5.646   1.245 -0.2415 -0.0591  0.2763
 8701TIP3    H147594   6.083   5.725   1.202  0.2788 -0.2086 -0.4262
 8701TIP3    H247595   6.086   5.653   1.335 -0.9589  0.4998  0.0004
 8702TIP3   OH247596   0.429   2.565   2.476  0.2934  1.4748 -0.3510
 8702TIP3    H147597   0.438   2.524   2.562  0.2377  2.1706 -0.0054
 8702TIP3    H247598   0.518   2.594   2.454  0.1777  1.9708 -0.1805
 8703TIP3   OH247599   2.520   1.981   3.547  0.1162  0.8192  0.0421
 8703TIP3    H147600   2.577   1.985   3.471  3.4825 -0.6073  2.2464
 8703TIP3    H247601   2.532   2.065   3.591  1.5445  0.1156  1.0843
 8704TIP3   OH247602   0.260   0.847   4.021 -0.3992  0.6651 -0.2855
 8704TIP3    H147603   0.277   0.931   3.978 -2.7545  0.7948 -1.0761
 8704TIP3    H247604   0.243   0.871   4.113 -0.0438  0.9187 -0.2817
 8705TIP3   OH247605   2.095   1.402   2.383  0.7979 -0.0392  0.1389
 8705TIP3    H147606   2.083   1.310   2.408 -1.0347  0.4882  1.3719
 8705TIP3    H247607   2.012   1.426   2.341  1.1465  1.1305  0.0845
 8706TIP3   OH247608   1.131   2.222  16.929  0.5822 -0.2937  0.1485
 8706TIP3    H147609   1.188   2.290  16.965  0.0614 -0.2936  1.0063
 8706TIP3    H247610   1.181   2.141  16.938  0.8041 -0.1653  0.0635
 8707TIP3   OH247611   4.288   0.148  16.996 -0.6721 -0.5232 -0.0804
 8707TIP3    H147612   4.290   0.167  16.902 -2.6545  2.8819  0.4396
 8707TIP3    H247613   4.221   0.080  17.005 -1.5821  0.2124 -1.0250
 8708TIP3   OH247614   1.288   1.753   0.826  0.2812 -0.3239  0.5337
 8708TIP3    H147615   1.296   1.739   0.732  0.1756  0.3588  0.4158
 8708TIP3    H247616   1.363   1.706   0.864  2.2265  2.0159 -0.1659
 8709TIP3   OH247617   4.023   4.802  14.578  0.0965  0.4208  0.0533
 8709TIP3    H147618   4.095   4.745  14.550 -0.1232  0.2061 -0.0794
 8709TIP3    H247619   4.013   4.785  14.671 -0.3240 -0.1574 -0.0953
 8710TIP3   OH247620   2.234   6.214   0.702  0.3085 -0.1172 -0.2383
 8710TIP3    H147621   2.279   6.293   0.732  2.3523 -0.4532 -2.1570
 8710TIP3    H247622   2.158   6.247   0.653  1.0805  0.7043 -0.9374
 8711TIP3   OH247623   5.757   2.432  11.565  0.1124  0.0232 -0.3076
 8711TIP3    H147624   5.837   2.397  11.604 -0.8385 -1.4067  0.4547
 8711TIP3    H247625   5.688   2.406  11.626 -0.9685  1.0576 -1.0495
 8712TIP3   OH247626   0.507   4.275   4.483  0.0585  0.1308  0.3035
 8712TIP3    H147627   0.487   4.189   4.446  0.4264 -0.7320  1.9838
 8712TIP3    H247628   0.569   4.313   4.422 -0.1566 -0.7646 -0.5108
 8713TIP3   OH247629   2.232   3.493   4.800 -0.0373 -0.2014 -0.1918
 8713TIP3    H147630   2.225   3.523   4.710  1.0817 -0.2085 -0.2849
 8713TIP3    H247631   2.154   3.438   4.813 -0.3080 -0.0342 -1.0811
 8714TIP3   OH247632   3.583   5.189  15.988 -0.1689  0.0544  0.2444
 8714TIP3    H147633   3.641   5.145  16.050  0.3215 -0.3778 -0.4909
 8714TIP3    H247634   3.568   5.124  15.919  0.0825  0.8317 -0.5712
 8715TIP3   OH247635   1.304   5.188  15.137 -0.5489  0.0497  0.4216
 8715TIP3    H147636   1.358   5.266  15.124 -1.6057  0.6159 -0.8253
 8715TIP3    H247637   1.364   5.123  15.173  0.0974  1.7778  2.7571
 8716TIP3   OH247638   1.993   3.786   5.590 -0.0588  0.3704 -0.5609
 8716TIP3    H147639   1.917   3.760   5.641 -0.7049  0.2387 -1.5618
 8716TIP3    H247640   1.957   3.828   5.512  0.9080  0.8924 -0.7460
 8717TIP3   OH247641   6.753   5.817   4.987 -0.8540 -0.2167 -0.4991
 8717TIP3    H147642   6.669   5.857   4.964 -0.5026  0.4452 -0.6346
 8717TIP3    H247643   6.807   5.830   4.909 -0.2671  0.3334 -0.0012
 8718TIP3   OH247644   5.546   3.297   0.025  0.1799 -0.3378 -0.0429
 8718TIP3    H147645   5.603   3.325   0.097  0.0213 -1.0317  0.3560
 8718TIP3    H247646   5.603   3.300  -0.052  0.9749 -1.7010  0.4560
 8719TIP3   OH247647   3.217   4.389   6.559 -0.1936  0.0889  0.0704
 8719TIP3    H147648   3.187   4.477   6.534 -1.2235  0.5906  2.7898
 8719TIP3    H247649   3.304   4.404   6.597 -0.5371 -0.0166  0.8937
 8720TIP3   OH247650   2.100   0.349  15.015 -0.5850 -0.3055 -0.2442
 8720TIP3    H147651   2.162   0.362  15.087 -0.7908 -0.9260  0.0518
 8720TIP3    H247652   2.052   0.270  15.038  0.0632 -1.1339 -1.5805
 8721TIP3   OH247653   6.417   4.372  11.657  0.3300  0.1592  0.5161
 8721TIP3    H147654   6.511   4.378  11.639 -0.0673  1.9838 -1.3367
 8721TIP3    H247655   6.411   4.331  11.743  2.8721  0.9048  1.1199
 8722TIP3   OH247656   1.501   1.895  13.802 -0.2119 -0.2670  0.3514
 8722TIP3    H147657   1.462   1.973  13.764 -1.5380 -1.0806 -0.0285
 8722TIP3    H247658   1.540   1.924  13.885 -0.2814  0.8642 -0.0060
 8723TIP3   OH247659   4.338   4.652  11.584 -0.5452  0.1143  0.0612
 8723TIP3    H147660   4.412   4.694  11.540 -0.1346  0.0896  0.7089
 8723TIP3    H247661   4.325   4.570  11.537 -0.4289  0.3124 -0.3187
 8724TIP3   OH247662   0.597   4.094  12.118  0.1587 -0.1155  0.1341
 8724TIP3    H147663   0.545   4.122  12.043  0.5880  0.9412  0.2118
 8724TIP3    H247664   0.677   4.058  12.080  0.6659  1.0289  0.0854
 8725TIP3   OH247665   6.561   5.699   6.011  0.4081 -0.4528 -0.1933
 8725TIP3    H147666   6.593   5.755   6.082 -0.0933 -0.4497  0.0315
 8725TIP3    H247667   6.625   5.628   6.006 -0.1357 -1.0504  1.0023
 8726TIP3   OH247668   2.282   5.916  11.438  0.1055 -0.0569 -0.3159
 8726TIP3    H147669   2.262   5.872  11.355  1.7045  0.3123 -0.9327
 8726TIP3    H247670   2.244   6.003  11.428  1.4343  0.4506 -1.2448
 8727TIP3   OH247671   2.022   2.798  14.417 -0.0035 -0.2002  0.2968
 8727TIP3    H147672   1.929   2.804  14.392 -0.0406  0.0998  0.5020
 8727TIP3    H247673   2.027   2.717  14.468 -0.3011  0.1606  0.9090
 8728TIP3   OH247674   1.414   2.239   3.878 -0.1288  0.2398  0.1578
 8728TIP3    H147675   1.336   2.196   3.842 -0.0118  1.1271 -1.2542
 8728TIP3    H247676   1.468   2.167   3.911 -0.4028 -0.6250 -1.2068
 8729TIP3   OH247677   1.272   3.744  12.298  0.1955 -0.1641  0.0900
 8729TIP3    H147678   1.297   3.807  12.365 -1.9640  0.9442 -0.0602
 8729TIP3    H247679   1.193   3.780  12.259 -0.4120 -2.3532 -0.8826
 8730TIP3   OH247680   5.245   3.974  15.781  0.2959  0.0661 -0.1208
 8730TIP3    H147681   5.218   4.060  15.814  0.6054 -0.2637  1.0210
 8730TIP3    H247682   5.277   3.992  15.692  1.8133  1.3932  0.6419
 8731TIP3   OH247683   1.073   4.230  11.327 -0.0920 -0.0332  0.1285
 8731TIP3    H147684   1.052   4.155  11.382 -0.9021  0.6136  0.7165
 8731TIP3    H247685   1.078   4.195  11.238  0.9579 -1.0368  0.5605
 8732TIP3   OH247686   1.119   2.263   3.374 -0.3776 -0.6800  0.4258
 8732TIP3    H147687   1.123   2.320   3.298 -0.0981 -1.8185 -0.4400
 8732TIP3    H247688   1.205   2.271   3.415 -0.0836 -1.0020 -0.1078
 8733TIP3   OH247689   0.065   4.795  11.643  0.4292 -0.0528 -0.6755
 8733TIP3    H147690   0.030   4.884  11.640  0.2551 -0.0874  0.0190
 8733TIP3    H247691   0.109   4.783  11.559  0.1010  0.5419 -0.9367
 8734TIP3   OH247692   6.137   1.497   0.845 -0.2671  0.9833  0.0899
 8734TIP3    H147693   6.216   1.443   0.843 -1.1770 -0.3890 -1.5963
 8734TIP3    H247694   6.097   1.478   0.930  1.0954  1.6031  0.9151
 8735TIP3   OH247695   3.358   0.283   1.193 -0.0511  0.4207  0.2180
 8735TIP3    H147696   3.290   0.258   1.131 -0.7373  2.9834 -0.1798
 8735TIP3    H247697   3.312   0.339   1.256  1.6445  2.2113 -0.0633
 8736TIP3   OH247698   4.903   3.306  15.784 -0.1565  0.2727 -0.0253
 8736TIP3    H147699   4.852   3.370  15.833 -1.3319 -0.8313  0.2514
 8736TIP3    H247700   4.941   3.249  15.852  0.1735  0.1495 -0.3107
 8737TIP3   OH247701   5.292   0.048  15.501  0.1558 -0.3007 -0.2478
 8737TIP3    H147702   5.227  -0.021  15.519 -0.4321  0.1471 -0.5967
 8737TIP3    H247703   5.286   0.107  15.577 -0.9256  0.5355 -0.9439
 8738TIP3   OH247704   1.024   1.504  16.505 -0.6492 -0.0758 -0.3383
 8738TIP3    H147705   0.994   1.473  16.420 -1.3025 -1.4908  0.3649
 8738TIP3    H247706   0.945   1.537  16.548 -0.3756  0.3612 -0.1638
 8739TIP3   OH247707   5.976   1.154   3.693  0.2231  0.3114  0.1384
 8739TIP3    H147708   6.016   1.211   3.628  1.1380  2.5136  2.4790
 8739TIP3    H247709   5.968   1.069   3.649  1.8737  1.3636 -2.4053
 8740TIP3   OH247710   1.546   4.838   2.242  0.0849 -0.3721 -0.2726
 8740TIP3    H147711   1.559   4.902   2.312  0.8105 -0.3183 -0.4472
 8740TIP3    H247712   1.563   4.887   2.161  2.0238 -1.0885 -0.3510
 8741TIP3   OH247713   0.407   1.098   3.970  0.2788  0.1800  0.0237
 8741TIP3    H147714   0.495   1.076   4.000 -0.6907 -1.9984  1.5295
 8741TIP3    H247715   0.377   1.167   4.029 -0.5924 -2.1842  2.5567
 8742TIP3   OH247716   1.970   4.708   3.848 -0.2150 -0.3688 -0.3144
 8742TIP3    H147717   1.961   4.780   3.911  1.2400 -0.3550 -0.0933
 8742TIP3    H247718   1.889   4.711   3.797 -2.0396 -1.1086  2.2712
 8743TIP3   OH247719   5.878   3.022   1.432  0.1774 -0.2210 -0.1099
 8743TIP3    H147720   5.961   3.071   1.426 -0.3642  0.9443  1.2340
 8743TIP3    H247721   5.889   2.968   1.511  0.8729 -2.6047 -1.7110
 8744TIP3   OH247722   1.864   0.678  17.106 -0.3033  0.6117  0.0184
 8744TIP3    H147723   1.810   0.704  17.180 -0.2801 -1.5266  0.8656
 8744TIP3    H247724   1.844   0.585  17.093  0.5915  0.6327 -1.8983
 8745TIP3   OH247725   0.300   1.719  14.380  0.9525  0.9560  0.2448
 8745TIP3    H147726   0.284   1.802  14.425 -0.3989  0.6831  0.3134
 8745TIP3    H247727   0.250   1.654  14.429  0.3387  0.4604 -0.9690
 8746TIP3   OH247728   4.917   2.336  13.696  0.3068 -0.3784  0.2011
 8746TIP3    H147729   4.913   2.273  13.624  2.5110  0.0979 -0.4164
 8746TIP3    H247730   4.933   2.284  13.774 -2.1322 -0.9048  0.4200
 8747TIP3   OH247731   1.825   2.388  16.500  0.2551  0.3647  0.0858
 8747TIP3    H147732   1.756   2.453  16.491 -3.4116 -3.3370 -1.9969
 8747TIP3    H247733   1.871   2.390  16.416 -0.0065  0.1313 -0.0638
 8748TIP3   OH247734   1.703   5.428   2.138 -0.0979  0.4747  0.0386
 8748TIP3    H147735   1.727   5.406   2.229 -1.8389  3.1926  1.2717
 8748TIP3    H247736   1.774   5.484   2.108 -0.5186  1.2741  0.5033
 8749TIP3   OH247737   5.179   2.994   6.082 -0.2262  0.3112 -0.1608
 8749TIP3    H147738   5.084   2.980   6.086 -0.1054 -0.7030 -0.5640
 8749TIP3    H247739   5.207   2.989   6.174 -0.6076  1.0000 -0.0004
 8750TIP3   OH247740   5.470   3.812  15.601  0.6044 -0.7917  0.5927
 8750TIP3    H147741   5.530   3.873  15.644  1.0812 -0.6074 -0.3057
 8750TIP3    H247742   5.470   3.734  15.658  3.0690 -1.4863 -0.2380
 8751TIP3   OH247743   4.316   2.198  16.433 -0.1725  0.3377 -0.2975
 8751TIP3    H147744   4.257   2.148  16.377  0.3880 -0.3309 -0.3016
 8751TIP3    H247745   4.346   2.135  16.499  0.8110  0.5669 -0.5063
 8752TIP3   OH247746   3.027   4.137  11.345 -0.2907  0.3723  0.5345
 8752TIP3    H147747   2.933   4.128  11.331 -0.3922  1.4714  0.3725
 8752TIP3    H247748   3.045   4.084  11.423 -0.5951 -1.7853 -0.7959
 8753TIP3   OH247749   5.015   1.350   0.884 -0.4526 -0.2625 -0.4845
 8753TIP3    H147750   4.988   1.373   0.973 -0.2064  0.7677 -0.6636
 8753TIP3    H247751   5.050   1.431   0.848  5.3505 -1.8603  0.5288
 8754TIP3   OH247752   1.500   5.912   0.113  0.8127 -0.3280 -0.6484
 8754TIP3    H147753   1.412   5.922   0.149  0.1349 -1.2567 -1.9547
 8754TIP3    H247754   1.500   5.824   0.075  3.0781 -1.2951  1.3443
 8755TIP3   OH247755   2.338   6.567  11.787  0.1564 -0.1544  0.1711
 8755TIP3    H147756   2.324   6.580  11.693  0.9832 -0.0253  0.0591
 8755TIP3    H247757   2.407   6.630  11.810  3.0350 -2.9978 -0.0281
 8756TIP3   OH247758   0.458   0.672   4.002 -0.0283 -0.1428  0.4348
 8756TIP3    H147759   0.405   0.747   4.028  0.7596  0.6920 -0.3039
 8756TIP3    H247760   0.484   0.690   3.912 -1.1484 -2.0878 -0.3422
 8757TIP3   OH247761   1.633   3.504  11.710 -0.0016  0.2489  0.2417
 8757TIP3    H147762   1.661   3.572  11.649  0.4797  1.7525  2.0241
 8757TIP3    H247763   1.705   3.440  11.711  1.6473  1.9848  1.7227
 8758TIP3   OH247764   5.912   4.783  11.018  0.1230  0.1681 -0.4682
 8758TIP3    H147765   5.953   4.809  11.100  1.2011  1.4369 -1.3732
 8758TIP3    H247766   5.892   4.865  10.973  1.3525 -0.4785 -2.3311
 8759TIP3   OH247767   6.394   4.439   0.026 -0.6102 -0.0664  0.3355
 8759TIP3    H147768   6.488   4.420   0.033 -0.3786 -0.0443 -1.9321
 8759TIP3    H247769   6.355   4.391   0.099  0.7703 -3.3044 -0.8479
 8760TIP3   OH247770   1.587   1.233  11.742  0.3690 -0.5401 -0.0320
 8760TIP3    H147771   1.679   1.259  11.749  0.6377 -1.4230 -0.1686
 8760TIP3    H247772   1.573   1.221  11.648  0.3391 -1.1587  0.0455
 8761TIP3   OH247773   5.258   0.461  14.165  0.1084 -0.6280  0.4791
 8761TIP3    H147774   5.294   0.450  14.253  2.2318 -2.0979 -0.4955
 8761TIP3    H247775   5.282   0.381  14.119  1.5659  1.2342 -2.2634
 8762TIP3   OH247776   1.297   3.428  15.463 -0.0138 -0.5468  0.1157
 8762TIP3    H147777   1.335   3.344  15.440  0.0870 -0.5274  0.2053
 8762TIP3    H247778   1.360   3.466  15.526  0.1326 -0.2436 -0.2088
 8763TIP3   OH247779   5.677   5.253  12.587  0.0961  0.3216 -0.2506
 8763TIP3    H147780   5.674   5.163  12.555  1.5321  0.1819 -0.0262
 8763TIP3    H247781   5.617   5.300  12.529 -2.3120 -1.1249  0.8915
 8764TIP3   OH247782   6.716   1.584  13.208  0.2359 -0.0846  0.0963
 8764TIP3    H147783   6.664   1.571  13.288 -0.7952 -0.5754 -0.6383
 8764TIP3    H247784   6.807   1.570  13.237 -0.3179 -3.5648  0.5958
 8765TIP3   OH247785   5.140   4.036  14.651 -0.2984  0.1571 -0.3892
 8765TIP3    H147786   5.130   3.946  14.681 -0.4778  0.3273  0.0710
 8765TIP3    H247787   5.174   4.083  14.727  0.3847  0.3615 -0.8011
 8766TIP3   OH247788   6.560   4.554  13.836 -0.3024  0.3006 -0.5090
 8766TIP3    H147789   6.476   4.514  13.815 -0.3246  0.5509 -0.9310
 8766TIP3    H247790   6.555   4.577  13.928 -0.6244  0.1390 -0.4885
 8767TIP3   OH247791   0.038   3.637   3.214  0.0799 -0.0502  0.5123
 8767TIP3    H147792   0.096   3.611   3.143 -0.0965  1.6625 -0.2993
 8767TIP3    H247793  -0.033   3.572   3.211 -0.8886  0.9685 -2.1193
 8768TIP3   OH247794   2.725   0.343   3.027 -0.2382 -0.2603 -0.1449
 8768TIP3    H147795   2.766   0.347   3.113 -1.1343  0.8223  0.2581
 8768TIP3    H247796   2.764   0.266   2.986 -1.0071 -1.8177  1.8566
 8769TIP3   OH247797   2.181   6.222  11.728 -0.3522  0.2627 -0.1501
 8769TIP3    H147798   2.161   6.298  11.782 -0.1132  1.8614 -2.2189
 8769TIP3    H247799   2.195   6.151  11.792  0.5308  2.1651  1.9182
 8770TIP3   OH247800   5.352   3.158   0.270 -0.1700  0.3083 -0.2185
 8770TIP3    H147801   5.388   3.132   0.354 -0.5488 -0.6225 -0.3351
 8770TIP3    H247802   5.407   3.113   0.205 -0.7564 -0.1160 -0.4279
 8771TIP3   OH247803   1.384   2.442   2.231  0.3786 -0.1814  0.2465
 8771TIP3    H147804   1.418   2.460   2.319 -4.5889  1.7031  2.1763
 8771TIP3    H247805   1.387   2.526   2.186 -1.4890  0.0813  0.5195
 8772TIP3   OH247806   5.232   1.871   2.092 -0.2938 -0.0745 -0.0722
 8772TIP3    H147807   5.255   1.785   2.127 -1.2204 -0.5961 -0.7036
 8772TIP3    H247808   5.311   1.924   2.105 -0.1767 -0.5957  1.6312
 8773TIP3   OH247809   2.812   0.776   4.251  0.1609  0.1237 -0.6404
 8773TIP3    H147810   2.858   0.859   4.267  0.5110 -0.0666 -0.6385
 8773TIP3    H247811   2.723   0.792   4.282 -0.1284  0.9033 -1.7931
 8774TIP3   OH247812   4.851   2.520   0.977  0.3733  0.2215 -0.5253
 8774TIP3    H147813   4.766   2.496   1.013  1.0273  0.5534  1.3615
 8774TIP3    H247814   4.846   2.615   0.965  0.5614  0.2910 -0.0996
 8775TIP3   OH247815   5.675   0.337  14.797 -0.1749  0.2618  0.3322
 8775TIP3    H147816   5.644   0.338  14.888  0.6285 -0.8928  0.6445
 8775TIP3    H247817   5.766   0.309  14.804 -0.2650 -0.3729 -0.8809
 8776TIP3   OH247818   3.542   1.569  16.041  0.1506 -0.0988  0.4557
 8776TIP3    H147819   3.572   1.599  16.127 -2.2781  0.1715  1.3064
 8776TIP3    H247820   3.463   1.621  16.025 -0.2849 -1.2216 -1.2467
 8777TIP3   OH247821   1.494   6.590   4.824  0.0513 -0.3222  0.1363
 8777TIP3    H147822   1.586   6.617   4.833 -0.6812  1.7810  2.1136
 8777TIP3    H247823   1.493   6.499   4.855  1.1777  0.2580  2.0593
 8778TIP3   OH247824   4.308   5.538   4.571 -0.0728 -0.2603  0.0297
 8778TIP3    H147825   4.230   5.559   4.622  0.2753 -0.4851  0.6702
 8778TIP3    H247826   4.276   5.485   4.499 -0.5909  0.1523 -0.0462
 8779TIP3   OH247827   3.696   6.084   6.441  0.2539  0.2134  0.1240
 8779TIP3    H147828   3.657   6.021   6.502  0.2632  2.7777  3.0506
 8779TIP3    H247829   3.777   6.043   6.412 -1.6239 -2.7404 -1.3703
 8780TIP3   OH247830   5.875   4.978  12.217 -0.7477  0.1664  0.7660
 8780TIP3    H147831   5.798   4.935  12.254  0.4971 -0.5873  2.5934
 8780TIP3    H247832   5.949   4.934  12.257  0.6837  0.5982 -1.2534
 8781TIP3   OH247833   1.172   6.366  16.998 -0.8309 -0.0644 -0.2554
 8781TIP3    H147834   1.135   6.453  17.011 -1.2396 -0.2767  0.0156
 8781TIP3    H247835   1.147   6.317  17.076 -1.1996 -0.6278 -0.7186
 8782TIP3   OH247836   4.959   0.875   5.211 -0.2694 -1.2134 -0.2429
 8782TIP3    H147837   5.049   0.850   5.232 -1.0788 -2.3759  2.2510
 8782TIP3    H247838   4.934   0.935   5.281 -1.4903 -1.0158 -0.8252
 8783TIP3   OH247839   3.295   3.805  11.244 -0.0143  0.2062 -0.2192
 8783TIP3    H147840   3.238   3.827  11.170  0.6428 -0.2066 -0.8631
 8783TIP3    H247841   3.296   3.883  11.298  0.2780  0.8771 -1.1693
 8784TIP3   OH247842   4.352   3.775   0.674 -0.5857  0.3985 -0.6904
 8784TIP3    H147843   4.273   3.826   0.693 -0.4823  0.0941  0.6419
 8784TIP3    H247844   4.421   3.840   0.665 -0.5686  0.5518  0.4115
 8785TIP3   OH247845   0.401   5.755  15.304  0.1535  0.8064 -0.3685
 8785TIP3    H147846   0.372   5.835  15.259  2.0972  1.8189  0.0663
 8785TIP3    H247847   0.491   5.743  15.276  0.2981 -0.5062  0.6004
 8786TIP3   OH247848   6.479   6.678  16.046  0.2135 -0.5047 -0.1403
 8786TIP3    H147849   6.565   6.717  16.036  0.0102 -0.1548 -0.5411
 8786TIP3    H247850   6.479   6.602  15.988  0.6136 -1.1275  0.6520
 8787TIP3   OH247851   5.012   3.899   6.551 -0.6047 -0.0794  0.8450
 8787TIP3    H147852   4.998   3.943   6.467 -1.2508 -0.5419  0.7063
 8787TIP3    H247853   5.045   3.968   6.608 -0.0794  0.2244  0.1925
 8788TIP3   OH247854   2.012   4.735   2.151  0.1052 -0.6725  0.1806
 8788TIP3    H147855   1.924   4.698   2.160 -0.2698 -0.7100 -2.8140
 8788TIP3    H247856   2.002   4.826   2.181 -0.9168 -0.7165  0.0336
 8789TIP3   OH247857   6.396   3.096   4.601 -0.4258 -0.0220  0.1304
 8789TIP3    H147858   6.465   3.041   4.638 -1.8138 -1.9956 -0.0467
 8789TIP3    H247859   6.370   3.153   4.674  1.4054  0.8154  0.1671
 8790TIP3   OH247860   1.459   1.342  12.250  0.6653 -0.0446  0.6030
 8790TIP3    H147861   1.480   1.265  12.198 -3.1754 -1.5107  0.8775
 8790TIP3    H247862   1.454   1.413  12.186 -0.8886 -1.1729 -0.6200
 8791TIP3   OH247863   0.164   1.952   5.653  0.0842 -0.3188 -0.0568
 8791TIP3    H147864   0.105   1.898   5.707  0.4762  0.9516  1.7178
 8791TIP3    H247865   0.236   1.893   5.631 -1.1861 -1.5343 -1.2149
 8792TIP3   OH247866   1.581   3.864  15.993 -0.2792  0.0148  0.4050
 8792TIP3    H147867   1.606   3.790  16.050  0.1048 -1.0484 -1.0698
 8792TIP3    H247868   1.662   3.885  15.946 -0.8284  0.1892 -0.4713
 8793TIP3   OH247869   0.325   1.408  12.785 -0.2965 -0.2068 -0.1034
 8793TIP3    H147870   0.395   1.443  12.840 -0.1781 -1.2133  0.4157
 8793TIP3    H247871   0.257   1.381  12.848 -1.6055  1.6335 -0.6346
 8794TIP3   OH247872   5.652   5.992   1.523  0.2725 -0.1122 -0.3418
 8794TIP3    H147873   5.703   5.989   1.441  0.6894 -0.7489 -0.0727
 8794TIP3    H247874   5.563   6.010   1.495  0.3343 -0.7455 -0.9893
 8795TIP3   OH247875   4.896   2.192  14.994  0.3063 -0.7217  0.1638
 8795TIP3    H147876   4.832   2.143  15.046 -0.0038  0.9132  1.3894
 8795TIP3    H247877   4.880   2.284  15.015  1.1254 -0.0751 -1.7664
 8796TIP3   OH247878   6.602   5.018  16.976  0.0200 -0.1510 -0.3297
 8796TIP3    H147879   6.634   5.029  17.066 -0.9094  1.3150 -0.1428
 8796TIP3    H247880   6.575   4.926  16.971  0.2809 -0.3073  0.8185
 8797TIP3   OH247881   5.991   2.033   0.980  0.1794 -0.0679 -0.3282
 8797TIP3    H147882   6.014   1.970   0.912  1.1516  0.3104 -0.3597
 8797TIP3    H247883   5.969   2.113   0.932 -1.6680 -0.5257 -0.3282
 8798TIP3   OH247884   0.209   0.309   2.413  0.2353  0.1914 -0.2458
 8798TIP3    H147885   0.123   0.330   2.450 -0.6703 -2.0077 -0.9692
 8798TIP3    H247886   0.228   0.220   2.442  2.0725  0.4532 -0.4954
 8799TIP3   OH247887   1.100   0.431   0.665  0.6739 -0.7215 -0.0397
 8799TIP3    H147888   1.148   0.354   0.696 -0.4763 -1.6160 -0.3933
 8799TIP3    H247889   1.008   0.408   0.678  0.1931 -0.4324 -2.4229
 8800TIP3   OH247890   5.354   4.071   1.137  0.4509  0.0434 -0.1593
 8800TIP3    H147891   5.331   4.129   1.064 -2.5675 -2.3794 -1.3586
 8800TIP3    H247892   5.434   4.027   1.109 -0.1653 -0.1867 -1.6472
 8801TIP3   OH247893   0.678   1.185   1.766  0.3849  0.0913 -0.0863
 8801TIP3    H147894   0.647   1.226   1.847  0.6259  1.0685 -0.4781
 8801TIP3    H247895   0.659   1.092   1.778  0.9967  0.1200  1.3706
 8802TIP3   OH247896   6.214   6.460   0.971 -0.4403 -0.3438 -0.1318
 8802TIP3    H147897   6.264   6.480   0.892 -0.3327  0.8352  0.2173
 8802TIP3    H247898   6.281   6.450   1.039 -0.6112  0.5751  0.1944
 8803TIP3   OH247899   0.769   0.617   3.200  0.4497 -0.3664  0.0278
 8803TIP3    H147900   0.788   0.537   3.150 -0.1165 -0.1446 -0.5634
 8803TIP3    H247901   0.708   0.666   3.144 -0.3165 -0.1745  1.0015
 8804TIP3   OH247902   4.044   0.063  16.272  0.1061 -0.1902  0.4692
 8804TIP3    H147903   4.064   0.135  16.332  0.4688 -0.1292  0.2775
 8804TIP3    H247904   3.953   0.079  16.245  0.1104  0.0684  0.6029
 8805TIP3   OH247905   5.593   4.286   0.448  0.4280 -0.0570 -0.5403
 8805TIP3    H147906   5.508   4.253   0.419  0.2273  0.4169 -0.5060
 8805TIP3    H247907   5.653   4.265   0.377  0.3617 -0.7323 -0.4002
 8806TIP3   OH247908   3.308   2.707   0.494 -0.0862  0.3480  0.3026
 8806TIP3    H147909   3.360   2.785   0.513 -2.9649  2.6528 -0.5456
 8806TIP3    H247910   3.264   2.687   0.577 -0.8644  0.9331  0.0531
 8807TIP3   OH247911   0.751   3.702   0.272  0.2980  0.1606  0.4445
 8807TIP3    H147912   0.805   3.755   0.330  0.5532 -0.3104  0.6409
 8807TIP3    H247913   0.781   3.724   0.183  2.1271 -1.4534  0.5894
 8808TIP3   OH247914   6.710   0.576   2.530  0.6011 -0.5897 -0.0117
 8808TIP3    H147915   6.705   0.481   2.521  0.0316 -0.4834 -1.0139
 8808TIP3    H247916   6.744   0.605   2.445 -0.2025  0.1686 -0.0805
 8809TIP3   OH247917   5.704   5.496  12.864 -0.2334  0.0261  0.5054
 8809TIP3    H147918   5.731   5.422  12.809 -0.0635  1.0121 -0.7723
 8809TIP3    H247919   5.609   5.498  12.857 -0.1908  0.3421 -0.0182
 8810TIP3   OH247920   0.163   0.278  16.388  0.1540  0.4108 -1.1979
 8810TIP3    H147921   0.143   0.192  16.426 -4.0812  1.6633 -0.0130
 8810TIP3    H247922   0.155   0.265  16.294  1.1239 -0.7545 -1.1465
 8811TIP3   OH247923   1.725   6.239  12.151  0.0544 -0.4692  0.3418
 8811TIP3    H147924   1.792   6.215  12.087 -0.8201  1.6177 -1.4530
 8811TIP3    H247925   1.712   6.332  12.138 -0.2431  0.0521  3.5628
 8812TIP3   OH247926   3.333   3.853   3.257  0.0152 -0.9054 -0.3536
 8812TIP3    H147927   3.319   3.885   3.346  0.5854 -0.6314 -0.3587
 8812TIP3    H247928   3.289   3.917   3.201  1.3879  0.0531 -0.3812
 8813TIP3   OH247929   4.888   6.731  12.084 -0.1917  0.1959  0.3804
 8813TIP3    H147930   4.849   6.720  11.997  0.2413 -0.9819  0.3164
 8813TIP3    H247931   4.958   6.665  12.088 -0.3648  0.0572  1.7084
 8814TIP3   OH247932   3.717   5.734  11.840  0.5390 -0.3804  0.0266
 8814TIP3    H147933   3.778   5.661  11.842 -0.6873 -1.4609 -0.6708
 8814TIP3    H247934   3.674   5.728  11.754 -2.2473 -1.1242  1.3394
 8815TIP3   OH247935   3.041   0.944  16.991 -0.0670  0.6634 -0.5844
 8815TIP3    H147936   2.952   0.927  17.021  0.0164  1.0842 -0.0999
 8815TIP3    H247937   3.040   0.920  16.898 -0.0617 -1.5925 -0.0579
 8816TIP3   OH247938   5.416   2.817  13.459  0.3378 -0.2440 -0.6459
 8816TIP3    H147939   5.388   2.884  13.396  0.4521  1.8601  1.4300
 8816TIP3    H247940   5.344   2.812  13.522  0.7824 -1.3853 -0.2089
 8817TIP3   OH247941   3.191   5.473   2.286  0.2954 -0.4948 -0.1419
 8817TIP3    H147942   3.253   5.515   2.345 -0.5702  1.1364 -0.3317
 8817TIP3    H247943   3.182   5.534   2.212  0.5101 -1.9608 -1.4454
 8818TIP3   OH247944   1.361   2.828   3.666  0.1178 -0.0235 -0.1336
 8818TIP3    H147945   1.353   2.875   3.749 -0.4067 -2.1923  1.1335
 8818TIP3    H247946   1.390   2.740   3.691  2.7261  0.0028 -2.4906
 8819TIP3   OH247947   3.741   6.039  12.487 -0.2943  0.1022 -0.0875
 8819TIP3    H147948   3.795   5.963  12.508  0.4857  0.9078  0.8902
 8819TIP3    H247949   3.800   6.114  12.495 -0.9825  0.8089 -1.2872
 8820TIP3   OH247950   2.189   3.646  14.015  0.2808  0.3987 -0.2199
 8820TIP3    H147951   2.258   3.583  13.994 -0.0082  0.1698 -0.4774
 8820TIP3    H247952   2.188   3.649  14.111  0.7479  0.5157 -0.2117
 8821TIP3   OH247953   0.285   5.440   6.129  0.5347  0.4294 -0.0772
 8821TIP3    H147954   0.207   5.465   6.178  1.0130  0.0824  0.8738
 8821TIP3    H247955   0.333   5.522   6.117  1.9443  0.1364  2.7600
 8822TIP3   OH247956   1.267   0.903   0.938  0.5216 -0.3274  0.2094
 8822TIP3    H147957   1.355   0.940   0.928  0.6670 -0.7033  0.0591
 8822TIP3    H247958   1.271   0.820   0.891  0.3255 -0.7265  0.8843
 8823TIP3   OH247959   3.868   1.960  15.961 -0.2105  0.2155 -0.0904
 8823TIP3    H147960   3.934   2.027  15.975  0.7932 -0.3262 -1.8897
 8823TIP3    H247961   3.784   2.003  15.981  0.5405  1.4157  0.5645
 8824TIP3   OH247962   3.254   4.201   5.692  0.3877  0.4509 -0.0417
 8824TIP3    H147963   3.319   4.270   5.695  1.5006 -0.5999  0.9033
 8824TIP3    H247964   3.267   4.150   5.772 -1.6376  0.2247  0.2155
 8825TIP3   OH247965   2.293   5.444   2.421 -0.1326  0.1082  0.5043
 8825TIP3    H147966   2.250   5.402   2.496 -0.0110  0.9911  1.0889
 8825TIP3    H247967   2.294   5.537   2.444  0.1335  0.3566 -0.4898
 8826TIP3   OH247968   4.866   4.346   4.811  0.2002  0.4261 -0.3796
 8826TIP3    H147969   4.778   4.313   4.793 -0.0050 -1.9868  3.7946
 8826TIP3    H247970   4.923   4.287   4.761 -0.4691  0.3471 -1.0764
 8827TIP3   OH247971   6.507   6.535  15.807 -0.2844  0.1195 -0.2097
 8827TIP3    H147972   6.478   6.543  15.716 -1.6453 -0.5951  0.1327
 8827TIP3    H247973   6.494   6.442  15.828 -0.8422  0.4418  0.9763
 8828TIP3   OH247974   3.754   6.772  12.026  0.1423  0.4836  0.3748
 8828TIP3    H147975   3.752   6.697  12.086 -0.3250 -0.5876 -0.9497
 8828TIP3    H247976   3.765   6.734  11.939 -0.4845  1.9337 -0.3737
 8829TIP3   OH247977   3.658   0.740  11.339 -0.5204  0.3725  0.3940
 8829TIP3    H147978   3.751   0.720  11.327 -0.4524  0.4851  0.7309
 8829TIP3    H247979   3.650   0.833  11.320 -0.6602  0.2467 -0.1695
 8830TIP3   OH247980   2.833   0.556  12.553 -0.2731  0.3619  0.6603
 8830TIP3    H147981   2.784   0.475  12.566 -0.8840  0.9248  2.1454
 8830TIP3    H247982   2.923   0.533  12.574  0.0845 -0.5512 -1.5687
 8831TIP3   OH247983   1.724   0.658  16.227  0.2090 -0.2578 -1.1687
 8831TIP3    H147984   1.768   0.604  16.292 -1.2012 -0.3843 -0.2657
 8831TIP3    H247985   1.725   0.606  16.147 -2.1982 -2.2790 -0.0265
 8832TIP3   OH247986   2.542   4.476  14.544  0.1042 -0.4619 -0.1953
 8832TIP3    H147987   2.499   4.555  14.511  1.0201 -1.0822 -3.2193
 8832TIP3    H247988   2.616   4.508  14.595 -1.3039  0.5796  1.2758
 8833TIP3   OH247989   5.128   4.426   0.976 -0.4174  0.1973 -0.5691
 8833TIP3    H147990   5.172   4.467   1.050  1.6521 -2.4585 -0.1457
 8833TIP3    H247991   5.055   4.377   1.015 -0.7340  0.6377 -0.6056
 8834TIP3   OH247992   4.077   2.069  12.156 -0.1380 -0.4793 -0.1881
 8834TIP3    H147993   4.081   2.082  12.061  0.6087 -1.4844 -0.3102
 8834TIP3    H247994   4.140   2.132  12.191  1.5213 -1.8392 -0.5781
 8835TIP3   OH247995   1.734   2.823   4.662  0.3348  0.1024  0.1861
 8835TIP3    H147996   1.794   2.800   4.591 -0.8525  0.4649 -0.9782
 8835TIP3    H247997   1.672   2.749   4.666  1.4821 -0.8314  2.1563
 8836TIP3   OH247998   5.618   4.890  15.480 -0.3238 -0.0274 -0.5823
 8836TIP3    H147999   5.562   4.821  15.518 -2.5725  1.2799 -1.3079
 8836TIP3    H248000   5.692   4.842  15.443 -1.2277 -1.9568 -0.0694
 8837TIP3   OH248001   2.149   0.734   6.397  0.0935 -0.3124  0.6574
 8837TIP3    H148002   2.154   0.645   6.362 -0.8068 -0.2277  0.2901
 8837TIP3    H248003   2.072   0.772   6.356  0.3334  0.5667  0.9914
 8838TIP3   OH248004   1.086   5.644  17.148  0.7000 -0.7353 -0.1965
 8838TIP3    H148005   1.014   5.677  17.094  1.1396 -2.3412 -1.9018
 8838TIP3    H248006   1.152   5.713  17.144 -0.3131  0.3164  0.5446
 8839TIP3   OH248007   5.888   6.576  12.933  0.1499  0.6880  0.4507
 8839TIP3    H148008   5.867   6.670  12.934  0.5160  0.7754  0.1107
 8839TIP3    H248009   5.847   6.542  13.012 -3.0847  0.4277 -1.1889
 8840TIP3   OH248010   5.606   1.316   4.732 -0.6153 -0.5270  0.3206
 8840TIP3    H148011   5.553   1.258   4.786  1.0722 -0.3078  2.3693
 8840TIP3    H248012   5.584   1.404   4.763 -0.0636 -0.3624  0.2612
 8841TIP3   OH248013   6.230   5.134   2.290  0.0840  0.2575  0.1721
 8841TIP3    H148014   6.209   5.204   2.228 -1.7322 -0.2899  0.1124
 8841TIP3    H248015   6.202   5.053   2.246 -2.9157 -0.0163  2.2711
 8842TIP3   OH248016   2.919   6.160   0.702  0.0537  0.1256  0.0398
 8842TIP3    H148017   2.955   6.119   0.623 -1.1734  0.4451 -0.7084
 8842TIP3    H248018   2.990   6.214   0.736  0.1522  1.1555 -1.6908
 8843TIP3   OH248019   0.931   2.131   6.161 -0.4137 -0.0486 -0.0742
 8843TIP3    H148020   0.963   2.084   6.084 -0.3286  1.0795 -0.7404
 8843TIP3    H248021   0.936   2.223   6.137 -2.3501  0.2563  0.5221
 8844TIP3   OH248022   1.736   2.099   5.434 -0.0271  0.0895 -0.0577
 8844TIP3    H148023   1.705   2.136   5.516  0.8111 -0.1088  0.3666
 8844TIP3    H248024   1.746   2.005   5.451 -0.5249 -0.0677 -0.6038
 8845TIP3   OH248025   3.068   3.677  13.985  0.1163 -0.1722 -0.0224
 8845TIP3    H148026   3.123   3.753  14.003  1.2836 -0.5320 -1.8515
 8845TIP3    H248027   3.047   3.642  14.072  1.4409  0.9264  0.7851
 8846TIP3   OH248028   2.617   6.457   0.332 -0.0530  0.1283  0.1745
 8846TIP3    H148029   2.690   6.519   0.337 -0.7612  1.1150 -1.0330
 8846TIP3    H248030   2.595   6.439   0.423  1.9149 -0.5001  0.5880
 8847TIP3   OH248031   4.058   6.362  14.617  0.7546 -0.0953 -0.1672
 8847TIP3    H148032   4.016   6.420  14.554 -0.2083  0.4281  0.9243
 8847TIP3    H248033   4.019   6.385  14.701 -0.5278 -3.0701  0.1896
 8848TIP3   OH248034   0.642   2.859   4.279  0.2389  0.1179 -0.2527
 8848TIP3    H148035   0.614   2.864   4.188 -0.6713 -1.5535 -0.1136
 8848TIP3    H248036   0.733   2.888   4.278  0.3681 -0.2711 -1.7677
 8849TIP3   OH248037   3.446   6.204   2.219 -0.0672 -0.1545  0.6868
 8849TIP3    H148038   3.525   6.152   2.204  0.9473  1.3001  0.7213
 8849TIP3    H248039   3.418   6.231   2.131  0.5009  0.7249  0.7516
 8850TIP3   OH248040   3.064   5.921  15.985 -0.0872 -0.5816  0.3355
 8850TIP3    H148041   3.099   6.006  15.956  0.6126 -1.0232 -0.1495
 8850TIP3    H248042   2.969   5.928  15.972 -0.2907  0.8209  2.1254
 8851TIP3   OH248043   1.014   2.241  14.202  0.4098  0.2954 -0.0332
 8851TIP3    H148044   0.938   2.195  14.239  0.0106  1.3671  0.5516
 8851TIP3    H248045   1.036   2.192  14.123  0.5931 -1.4264  1.0452
 8852TIP3   OH248046   5.701   2.566   2.527  0.1448  0.1576 -0.1649
 8852TIP3    H148047   5.743   2.490   2.569 -0.9509 -0.7221 -0.6168
 8852TIP3    H248048   5.658   2.530   2.449 -4.4128  0.1974  1.9791
 8853TIP3   OH248049   4.038   5.288   0.310 -0.4741  0.3210  0.1440
 8853TIP3    H148050   4.034   5.227   0.384 -0.1694 -1.5898 -1.3382
 8853TIP3    H248051   3.947   5.318   0.299 -1.8389 -3.7982 -2.1105
 8854TIP3   OH248052   5.449   2.641  13.861  0.1307  0.3257  0.0004
 8854TIP3    H148053   5.531   2.653  13.813  0.8106  1.2850  1.3569
 8854TIP3    H248054   5.462   2.688  13.943 -2.4567  2.1433 -0.5026
 8855TIP3   OH248055   3.701   0.266  13.190  0.7680 -0.0892  0.3301
 8855TIP3    H148056   3.642   0.283  13.263  0.8188 -0.4884  0.4667
 8855TIP3    H248057   3.716   0.352  13.151 -0.5505 -0.0830 -0.2060
 8856TIP3   OH248058   1.188   3.208   2.597  0.3686  0.4426  0.3142
 8856TIP3    H148059   1.278   3.177   2.611 -0.2828 -2.0173 -0.3910
 8856TIP3    H248060   1.199   3.297   2.564  2.5117  0.4768  0.9178
 8857TIP3   OH248061   3.342   0.763   5.738  0.0519 -0.1856  0.3111
 8857TIP3    H148062   3.361   0.729   5.651 -0.1144  0.3950  0.0396
 8857TIP3    H248063   3.428   0.776   5.778  0.1118 -1.4133  0.6309
 8858TIP3   OH248064   1.648   0.192   4.912  0.5293  0.6620  0.2317
 8858TIP3    H148065   1.703   0.196   4.833  0.2439 -1.4466 -0.1132
 8858TIP3    H248066   1.709   0.200   4.984  1.1392 -0.1479 -0.1788
 8859TIP3   OH248067   5.494   2.126   4.690  0.0489  0.4825  0.2020
 8859TIP3    H148068   5.515   2.164   4.775 -1.8381  0.7487  0.6059
 8859TIP3    H248069   5.403   2.096   4.699  0.0319 -0.0990 -1.5056
 8860TIP3   OH248070   0.679   1.518  15.243 -0.3215  0.5173 -0.0858
 8860TIP3    H148071   0.722   1.535  15.327 -1.3734  0.1814  0.5434
 8860TIP3    H248072   0.742   1.548  15.178  0.9832 -0.2180  0.7767
 8861TIP3   OH248073   3.828   2.708   4.082 -0.1419 -0.0059  0.0946
 8861TIP3    H148074   3.873   2.624   4.091 -1.1793 -0.6312 -0.3553
 8861TIP3    H248075   3.803   2.712   3.990 -0.0510  0.8298  0.0994
 8862TIP3   OH248076   6.088   1.602  16.965  0.4549  0.6190 -0.1954
 8862TIP3    H148077   6.137   1.586  16.884  0.9076  0.6080  0.0842
 8862TIP3    H248078   6.021   1.533  16.965 -1.8059  2.5953 -2.2960
 8863TIP3   OH248079   3.676   2.440  11.351 -0.4265 -0.2437 -0.1013
 8863TIP3    H148080   3.640   2.515  11.397 -0.0668  0.2514 -0.6192
 8863TIP3    H248081   3.662   2.459  11.258 -1.3685 -1.3483 -0.2034
 8864TIP3   OH248082   4.110   5.518  11.173 -0.2920  0.4794 -0.3678
 8864TIP3    H148083   4.015   5.522  11.170 -0.2660  1.7483 -0.0476
 8864TIP3    H248084   4.131   5.497  11.264 -0.2744 -1.9394 -0.8553
 8865TIP3   OH248085   5.713   0.273   4.478 -0.0925 -0.0441  0.6804
 8865TIP3    H148086   5.789   0.215   4.478  0.2074  0.3483  0.3189
 8865TIP3    H248087   5.656   0.237   4.410 -1.0559 -1.3901  2.1193
 8866TIP3   OH248088   0.865   0.776   3.394  1.0079  0.6789  0.0189
 8866TIP3    H148089   0.858   0.853   3.337 -0.9193  1.0395  0.6910
 8866TIP3    H248090   0.840   0.703   3.338 -0.9608  1.0404  0.3599
 8867TIP3   OH248091   3.807   5.280  15.779 -0.2649 -0.5999 -0.6715
 8867TIP3    H148092   3.834   5.288  15.870  0.4259 -3.1522 -0.5795
 8867TIP3    H248093   3.754   5.358  15.763  0.0251  0.1732  1.7421
 8868TIP3   OH248094   2.107   6.762  15.017  0.6172 -0.4151 -0.3017
 8868TIP3    H148095   2.095   6.679  14.972  0.3454 -0.4651 -0.1420
 8868TIP3    H248096   2.199   6.763  15.044  1.3443  0.4754 -2.5738
 8869TIP3   OH248097   4.295   5.435  14.799  0.1343  0.0844 -0.3713
 8869TIP3    H148098   4.315   5.341  14.791 -1.8987 -0.6062  1.4482
 8869TIP3    H248099   4.267   5.461  14.712  0.2048 -1.1590 -0.7937
 8870TIP3   OH248100   3.092   4.899  12.152  1.2139  0.0583 -0.3244
 8870TIP3    H148101   3.027   4.834  12.125 -1.2872  1.8853  0.8186
 8870TIP3    H248102   3.120   4.941  12.071 -0.2488  0.2331 -0.7699
 8871TIP3   OH248103   3.869   5.232   1.372  0.7108  0.3792 -0.6581
 8871TIP3    H148104   3.934   5.210   1.305  0.6503 -0.4634 -0.4468
 8871TIP3    H248105   3.913   5.215   1.455 -0.0426 -0.9994 -0.5197
 8872TIP3   OH248106   4.904   6.216  11.441  0.1270  0.0980  0.4966
 8872TIP3    H148107   4.854   6.152  11.391  0.8057  0.4103 -0.6239
 8872TIP3    H248108   4.853   6.297  11.432 -1.0472 -0.3764  2.4131
 8873TIP3   OH248109   1.930   5.441   0.061  1.0136 -0.0114  0.5301
 8873TIP3    H148110   2.023   5.432   0.080  1.6969  0.0819 -2.4004
 8873TIP3    H248111   1.920   5.409  -0.028 -1.1582  3.0589 -0.4905
 8874TIP3   OH248112   4.484   3.256   3.595  0.3651  0.0451 -0.6233
 8874TIP3    H148113   4.392   3.231   3.607  0.2358  1.4787  2.1786
 8874TIP3    H248114   4.480   3.331   3.535 -0.4071  0.6444  0.1495
 8875TIP3   OH248115   4.594   6.212  15.420  0.1506 -0.0098 -0.1674
 8875TIP3    H148116   4.688   6.190  15.420  0.3799  0.9281 -1.0326
 8875TIP3    H248117   4.557   6.155  15.352  0.5914  1.5133 -1.7649
 8876TIP3   OH248118   4.902   0.092  16.648 -0.3308 -0.2233 -0.2828
 8876TIP3    H148119   4.807   0.087  16.664 -0.2098 -0.4732  0.4041
 8876TIP3    H248120   4.927   0.002  16.627 -0.2876 -0.1053 -0.7562
 8877TIP3   OH248121   4.498   3.802  17.028  0.5648 -0.2310  0.0570
 8877TIP3    H148122   4.495   3.881  17.082  0.8987 -0.1531 -0.0367
 8877TIP3    H248123   4.499   3.730  17.091 -3.4082 -0.3803  0.2280
 8878TIP3   OH248124   2.904   6.658   3.520 -0.3228  0.0058 -0.1283
 8878TIP3    H148125   2.968   6.730   3.518 -1.3731  0.9321 -1.2109
 8878TIP3    H248126   2.932   6.599   3.450 -1.2655  0.9893 -1.3795
 8879TIP3   OH248127   2.948   2.590  14.207  0.1829  0.1663  0.5601
 8879TIP3    H148128   2.952   2.508  14.158  0.1973  0.7520 -0.4495
 8879TIP3    H248129   3.024   2.587  14.265  0.2922 -0.4528  0.3915
 8880TIP3   OH248130   6.279   5.700   5.295 -0.3327  0.3670  0.4184
 8880TIP3    H148131   6.340   5.628   5.283 -0.1440  0.3046  1.5719
 8880TIP3    H248132   6.199   5.659   5.329  0.1758  0.7739  2.2410
 8881TIP3   OH248133   0.010   2.969   0.430 -0.2545 -0.4448  0.0080
 8881TIP3    H148134   0.038   2.931   0.347  0.5399 -0.1026  0.1104
 8881TIP3    H248135   0.082   2.951   0.490  0.5886  1.9975 -0.1620
 8882TIP3   OH248136   0.308   3.356  11.427  0.1011 -0.7544 -0.4464
 8882TIP3    H148137   0.365   3.422  11.388  0.0877 -0.1390  0.5238
 8882TIP3    H248138   0.231   3.405  11.456 -0.0177 -1.2315  0.0697
 8883TIP3   OH248139   3.881   5.035   0.271  0.2534  0.1500 -0.1345
 8883TIP3    H148140   3.919   5.121   0.286 -0.4123  0.2792  0.9548
 8883TIP3    H248141   3.813   5.026   0.339 -0.2109 -0.9155 -0.7042
 8884TIP3   OH248142   5.046   4.805   3.904 -0.2468 -0.0879  0.2593
 8884TIP3    H148143   5.047   4.828   3.997  0.2588 -3.3816  1.1918
 8884TIP3    H248144   4.966   4.755   3.893 -0.4337  0.4813 -1.1933
 8885TIP3   OH248145   0.877   0.485  13.843  0.2638 -0.0520 -0.2154
 8885TIP3    H148146   0.794   0.504  13.800  0.8820  1.2820 -0.8856
 8885TIP3    H248147   0.942   0.485  13.773  0.8766 -0.7659  0.3334
 8886TIP3   OH248148   2.154   4.580  17.087 -0.3079 -0.4409 -0.1469
 8886TIP3    H148149   2.226   4.525  17.056 -1.3312 -0.8700 -1.9329
 8886TIP3    H248150   2.136   4.640  17.015 -2.1829 -0.8265 -0.0549
 8887TIP3   OH248151   3.561   6.610   2.159 -0.0661  0.0241  0.3237
 8887TIP3    H148152   3.592   6.599   2.069 -1.7957 -0.1837 -0.2850
 8887TIP3    H248153   3.497   6.681   2.154 -3.4606 -2.7595  0.4464
 8888TIP3   OH248154   1.269   6.312   5.945 -0.5848  0.4290 -0.3244
 8888TIP3    H148155   1.196   6.281   5.891  1.0664 -0.2384 -2.2929
 8888TIP3    H248156   1.248   6.280   6.033 -1.4417 -2.0242 -1.3247
 8889TIP3   OH248157   6.185   5.675   0.168 -0.1551 -0.1214 -0.5044
 8889TIP3    H148158   6.161   5.699   0.078 -0.1994  0.7195 -0.2778
 8889TIP3    H248159   6.122   5.607   0.192 -3.6558  3.1690  0.6561
 8890TIP3   OH248160   5.347   6.695   0.151  0.4768  0.6662 -0.3752
 8890TIP3    H148161   5.308   6.730   0.232 -0.5414 -1.8837  0.3136
 8890TIP3    H248162   5.437   6.727   0.153  0.9982 -0.6261  2.6784
 8891TIP3   OH248163   1.265   1.292  15.876 -0.3052  0.5272 -0.0114
 8891TIP3    H148164   1.319   1.272  15.800 -0.2735 -0.4190  0.2545
 8891TIP3    H248165   1.250   1.208  15.918 -0.9051  0.9520  0.6459
 8892TIP3   OH248166   3.131   0.592  15.123  0.2819 -0.3611 -0.0087
 8892TIP3    H148167   3.118   0.687  15.116 -1.5777 -0.5202  0.8053
 8892TIP3    H248168   3.217   0.577  15.085  0.3553  1.5812 -0.7094
 8893TIP3   OH248169   0.262   0.297   3.302  0.5433 -0.1706  0.0881
 8893TIP3    H148170   0.352   0.320   3.321  1.0708 -3.0773  1.7747
 8893TIP3    H248171   0.212   0.376   3.319  2.4695  0.7142  1.9833
 8894TIP3   OH248172   2.025   4.794  15.680  0.4481  0.2180 -0.0814
 8894TIP3    H148173   1.937   4.766  15.657 -1.0283  2.0709  2.7622
 8894TIP3    H248174   2.038   4.876  15.633  0.7387 -0.1023 -0.5749
 8895TIP3   OH248175   6.607   0.153   3.674  0.4169  0.3457 -0.4012
 8895TIP3    H148176   6.680   0.216   3.675  1.8412 -1.2480  0.1031
 8895TIP3    H248177   6.606   0.117   3.763  0.5432 -1.3217 -1.0479
 8896TIP3   OH248178   2.400   2.971  14.853 -0.5217 -0.3635  0.2965
 8896TIP3    H148179   2.309   2.996  14.838 -0.9727 -2.8080 -1.7939
 8896TIP3    H248180   2.395   2.903  14.921  0.0135  0.8208  1.5716
 8897TIP3   OH248181   4.911   6.520   1.278 -0.0336 -0.5779 -0.4931
 8897TIP3    H148182   4.943   6.573   1.350 -1.6320  0.9951 -0.8884
 8897TIP3    H248183   4.987   6.468   1.251  0.5192 -1.5312  2.5227
 8898TIP3   OH248184   0.925   5.137  12.376 -0.4911  0.3029 -0.2756
 8898TIP3    H148185   0.970   5.220  12.389 -0.8891  0.4860 -0.0610
 8898TIP3    H248186   0.836   5.162  12.349 -0.5681 -0.0518 -0.3526
 8899TIP3   OH248187   4.149   3.601  12.527 -0.0516 -0.0586  0.1205
 8899TIP3    H148188   4.099   3.541  12.472 -0.0136  0.7265 -0.7942
 8899TIP3    H248189   4.238   3.567  12.523 -0.4599 -1.4970  1.8020
 8900TIP3   OH248190   2.036   0.500  10.653 -0.0136 -0.0743  0.0670
 8900TIP3    H148191   2.076   0.451  10.581 -0.7236  0.9107 -1.0425
 8900TIP3    H248192   2.075   0.587  10.647  0.2710 -0.1139  1.1893
 8901TIP3   OH248193   2.414   5.783   6.088 -0.1212 -0.2672 -0.6784
 8901TIP3    H148194   2.376   5.721   6.150 -0.5001 -1.2932 -1.8852
 8901TIP3    H248195   2.507   5.783   6.108 -0.3503  0.1054  0.4597
 8902TIP3   OH248196   5.661   2.506  12.042  0.2132 -0.5140  0.1030
 8902TIP3    H148197   5.583   2.510  12.098  0.7707 -0.5161  0.9008
 8902TIP3    H248198   5.671   2.595  12.009 -1.4834 -1.0189 -1.9424
 8903TIP3   OH248199   5.995   4.239  12.445 -0.0688 -0.4612 -0.1197
 8903TIP3    H148200   6.012   4.179  12.372  1.6855  1.0200 -0.9839
 8903TIP3    H248201   5.912   4.208  12.482 -0.4751 -1.8791 -2.0756
 8904TIP3   OH248202   3.447   0.652  17.042 -0.9274 -0.2206 -0.1009
 8904TIP3    H148203   3.479   0.606  17.120 -1.0427 -0.0125  0.0711
 8904TIP3    H248204   3.514   0.717  17.023 -0.2379 -1.1685 -0.9857
 8905TIP3   OH248205   5.496   1.485   2.660 -0.0919 -0.0157 -0.1893
 8905TIP3    H148206   5.581   1.527   2.669  0.4619 -0.8096 -1.4684
 8905TIP3    H248207   5.434   1.546   2.700  1.0419  0.6547  0.5877
 8906TIP3   OH248208   0.723   3.596  10.878  0.4962  0.0044 -0.3281
 8906TIP3    H148209   0.783   3.668  10.897  0.8579 -0.1726 -0.7756
 8906TIP3    H248210   0.684   3.620  10.794  1.7209 -1.0095 -1.2334
 8907TIP3   OH248211   4.588   3.663   0.561  0.0834  0.2834 -0.6849
 8907TIP3    H148212   4.497   3.693   0.563  0.0935  0.5972  3.1414
 8907TIP3    H248213   4.638   3.738   0.594  1.7398 -0.0394 -2.3143
 8908TIP3   OH248214   0.862   1.678  13.018 -0.2965 -0.2526 -0.4368
 8908TIP3    H148215   0.931   1.696  13.082 -0.9813 -1.0522  0.5594
 8908TIP3    H248216   0.808   1.757  13.019 -0.4969 -0.3862  0.2534
 8909TIP3   OH248217   0.740   3.254   6.072  0.2100 -0.1663  0.1281
 8909TIP3    H148218   0.714   3.186   6.134  1.0981 -2.2469 -1.6359
 8909TIP3    H248219   0.669   3.318   6.076 -1.8875 -2.3176  0.2667
 8910TIP3   OH248220   4.329   4.258  17.334 -0.0299  0.1035  0.0584
 8910TIP3    H148221   4.360   4.326  17.274  1.8194 -0.0009  0.8500
 8910TIP3    H248222   4.375   4.179  17.306  0.1558 -0.1441  1.0362
 8911TIP3   OH248223   1.888   1.910   1.365  0.1574 -0.0541  0.3818
 8911TIP3    H148224   1.977   1.901   1.400  1.1463 -0.3895 -1.9777
 8911TIP3    H248225   1.841   1.834   1.399  2.1919 -2.6085 -1.9578
 8912TIP3   OH248226   3.084   1.205   3.051 -0.6120 -0.4430  0.3922
 8912TIP3    H148227   3.120   1.122   3.080  0.7119  0.1042  0.3895
 8912TIP3    H248228   3.116   1.216   2.961 -0.2985  0.3271  0.5900
 8913TIP3   OH248229   6.341   1.600  15.668 -0.0911 -0.7689 -0.5762
 8913TIP3    H148230   6.366   1.657  15.596  0.4841  0.2882  0.4133
 8913TIP3    H248231   6.415   1.540  15.678  0.3591 -0.1755 -0.1714
 8914TIP3   OH248232   6.455   5.080  12.086 -0.0738  0.1920 -0.2387
 8914TIP3    H148233   6.496   5.158  12.047  0.9181 -0.5868 -0.8027
 8914TIP3    H248234   6.479   5.085  12.179  1.4438 -0.3054 -0.5775
 8915TIP3   OH248235   1.129   0.761   4.734 -0.1237 -0.2814 -0.4183
 8915TIP3    H148236   1.164   0.805   4.812 -0.6446 -0.9119  0.1904
 8915TIP3    H248237   1.186   0.684   4.724 -0.7070 -0.7731 -0.0165
 8916TIP3   OH248238   1.085   4.745  11.282  0.0342  0.4756 -0.2091
 8916TIP3    H148239   1.060   4.678  11.346  1.8624 -0.7275 -0.6563
 8916TIP3    H248240   1.150   4.798  11.328  1.5508 -0.5505 -1.0529
 8917TIP3   OH248241   5.229   6.404   1.417 -0.9500 -0.2891 -0.5165
 8917TIP3    H148242   5.304   6.464   1.421  0.1795 -1.6182 -1.1273
 8917TIP3    H248243   5.201   6.407   1.326 -2.1459  0.7368 -0.1564
 8918TIP3   OH248244   6.778   2.839  11.733  0.2513  0.1719 -0.5681
 8918TIP3    H148245   6.725   2.918  11.742 -0.4255 -0.2437 -0.8635
 8918TIP3    H248246   6.867   2.867  11.758  0.1681  1.1907 -1.3509
 8919TIP3   OH248247   6.128   1.577   2.785  0.4569 -0.6018 -0.0362
 8919TIP3    H148248   6.212   1.571   2.830  1.2335 -1.4828 -1.5124
 8919TIP3    H248249   6.096   1.487   2.781 -0.8025 -0.2116  0.9272
 8920TIP3   OH248250   5.889   2.733  17.193  0.2848  0.1533 -1.3692
 8920TIP3    H148251   5.834   2.753  17.118  0.1830 -1.8645 -1.8869
 8920TIP3    H248252   5.953   2.670  17.160  0.0158 -1.0578  0.2941
 8921TIP3   OH248253   0.161   6.460  17.078 -0.1680  0.3817 -0.4505
 8921TIP3    H148254   0.220   6.463  17.002 -0.1429 -0.6734 -0.4941
 8921TIP3    H248255   0.083   6.416  17.045 -0.7146  1.1549 -0.2111
 8922TIP3   OH248256   0.576   5.295  11.560  0.1920 -0.4312  0.3139
 8922TIP3    H148257   0.668   5.312  11.541 -0.2218  0.9229 -0.5209
 8922TIP3    H248258   0.527   5.357  11.507 -1.3398 -2.8166 -1.2721
 8923TIP3   OH248259   3.586   5.938  16.473 -0.4690  0.2877 -0.2854
 8923TIP3    H148260   3.518   6.002  16.493 -2.1885 -1.6184  0.3875
 8923TIP3    H248261   3.537   5.858  16.451  1.5591 -0.8555 -0.8845
 8924TIP3   OH248262   5.174   1.235  12.293  0.6535 -0.3685  0.3443
 8924TIP3    H148263   5.179   1.315  12.346  2.3048 -0.3282  0.2060
 8924TIP3    H248264   5.175   1.164  12.357 -5.8028 -0.5145  0.8759
 8925TIP3   OH248265   6.051   3.623   6.538 -0.5844 -0.1885  0.3575
 8925TIP3    H148266   6.022   3.629   6.629 -1.3806 -1.0298  0.1719
 8925TIP3    H248267   5.969   3.620   6.487 -0.1602 -0.8901 -0.3030
 8926TIP3   OH248268   3.742   5.616  12.923 -0.3136  0.3854  0.5517
 8926TIP3    H148269   3.808   5.580  12.863  1.4428  1.7520  1.5646
 8926TIP3    H248270   3.702   5.538  12.963  0.0007 -0.4988 -0.7980
 8927TIP3   OH248271   5.099   6.709   1.099  0.3977  0.8033 -0.1611
 8927TIP3    H148272   5.114   6.622   1.136 -1.6162 -0.6285 -2.3966
 8927TIP3    H248273   5.154   6.767   1.152  1.5706 -1.7368  1.6509
 8928TIP3   OH248274   4.356   0.464  15.244  0.0935  0.1176 -0.3405
 8928TIP3    H148275   4.313   0.535  15.196  0.1538  0.0508 -0.4931
 8928TIP3    H248276   4.293   0.440  15.312  0.3742  0.8084  0.1737
 8929TIP3   OH248277   2.978   0.754   0.279  0.3010  0.0010 -0.0776
 8929TIP3    H148278   3.054   0.745   0.336 -1.2552 -0.1282  2.1030
 8929TIP3    H248279   2.980   0.845   0.250  0.3366  0.4882  1.3989
 8930TIP3   OH248280   0.848   1.847  15.683 -0.1807  0.0359  0.6928
 8930TIP3    H148281   0.880   1.926  15.727  0.8049 -0.7745  1.4837
 8930TIP3    H248282   0.786   1.809  15.745 -1.5898  0.7996 -0.1991
 8931TIP3   OH248283   4.439   0.859   4.109  0.5307 -0.3153 -0.1665
 8931TIP3    H148284   4.371   0.802   4.145  1.9809 -1.7705  0.3989
 8931TIP3    H248285   4.454   0.924   4.178 -2.3939  2.0692 -1.5020
 8932TIP3   OH248286   0.845   2.775   0.179  0.0197 -0.2037 -0.1188
 8932TIP3    H148287   0.895   2.818   0.110  0.7375  1.9857  1.6594
 8932TIP3    H248288   0.768   2.831   0.191  0.4917  0.1332  1.6100
 8933TIP3   OH248289   0.385   6.103  16.934 -0.3161 -0.3435  0.2521
 8933TIP3    H148290   0.362   6.088  16.842 -1.2618  0.4581  0.3420
 8933TIP3    H248291   0.481   6.109  16.933 -0.3862  1.4806 -0.9952
 8934TIP3   OH248292   0.282   0.528  14.804 -0.3415 -0.2634  0.3205
 8934TIP3    H148293   0.257   0.503  14.893  0.4089 -2.0900  0.0636
 8934TIP3    H248294   0.377   0.542  14.809 -0.3168 -0.2425 -0.1653
 8935TIP3   OH248295   3.644   4.630  11.623  0.2085  0.1961  0.1091
 8935TIP3    H148296   3.602   4.592  11.546  0.7123 -0.9796  0.3838
 8935TIP3    H248297   3.681   4.712  11.592  1.6112 -0.8858 -1.3040
 8936TIP3   OH248298   3.747   4.321   5.019 -0.3933 -0.1127 -0.1821
 8936TIP3    H148299   3.659   4.342   5.052  0.2063  0.3224  1.2046
 8936TIP3    H248300   3.742   4.228   4.996 -1.4186  0.0844 -0.8745
 8937TIP3   OH248301   4.388   3.491  12.474 -0.0983 -0.5788 -0.8224
 8937TIP3    H148302   4.454   3.515  12.409  1.1125 -1.5644 -0.0087
 8937TIP3    H248303   4.405   3.398  12.492 -0.3938 -0.3307  0.8865
 8938TIP3   OH248304   0.785   4.066  17.219 -0.5272 -0.3739 -0.2430
 8938TIP3    H148305   0.733   3.988  17.239 -0.9013 -0.3309 -1.0093
 8938TIP3    H248306   0.721   4.131  17.190 -0.1127 -0.1126 -0.5849
 8939TIP3   OH248307   5.707   2.696   4.215 -0.1047 -0.0480 -0.1143
 8939TIP3    H148308   5.787   2.644   4.206  0.6321  0.9112  0.7908
 8939TIP3    H248309   5.713   2.735   4.302 -2.5194 -1.5203  0.8154
 8940TIP3   OH248310   4.398   2.236   2.367  0.4249  0.2031  0.0962
 8940TIP3    H148311   4.377   2.146   2.343  0.0596  0.6999 -1.6038
 8940TIP3    H248312   4.493   2.243   2.354  0.4644  0.0366  0.3025
 8941TIP3   OH248313   3.290   5.451  14.344 -0.0844  0.4889 -0.0362
 8941TIP3    H148314   3.322   5.398  14.270 -0.1859 -0.0745  0.3216
 8941TIP3    H248315   3.241   5.522  14.302 -0.2601  0.0980 -0.5095
 8942TIP3   OH248316   0.890   5.005   0.649 -0.1315 -0.0818  0.3012
 8942TIP3    H148317   0.858   4.918   0.674 -0.7530 -0.7300 -2.4013
 8942TIP3    H248318   0.984   4.993   0.637 -0.3288 -0.6775 -0.8928
 8943TIP3   OH248319   3.510   1.167   6.382  0.4353  0.2408  0.3816
 8943TIP3    H148320   3.448   1.115   6.433  2.0570 -1.0003  1.1753
 8943TIP3    H248321   3.528   1.243   6.437  1.6859 -0.7720  1.4291
 8944TIP3   OH248322   2.743   6.081  12.540 -0.1677  0.3639 -0.7623
 8944TIP3    H148323   2.793   6.103  12.619  0.5591  1.2832 -1.4579
 8944TIP3    H248324   2.714   5.991  12.554 -1.8910  1.1825  1.4982
 8945TIP3   OH248325   1.515   0.247  14.436  0.1024  0.4229  0.9906
 8945TIP3    H148326   1.541   0.290  14.517  1.0388  0.4297  0.7087
 8945TIP3    H248327   1.469   0.314  14.386 -1.5869  0.0787  2.0053
 8946TIP3   OH248328   3.328   0.499   2.579 -0.4170 -0.0043  0.2075
 8946TIP3    H148329   3.332   0.403   2.588  3.5809 -0.0784 -0.4170
 8946TIP3    H248330   3.307   0.513   2.487  0.6181 -0.4121 -0.1182
 8947TIP3   OH248331   3.417   4.912   1.566 -0.4202 -0.6168  0.6010
 8947TIP3    H148332   3.347   4.929   1.502  1.5509  3.2449 -0.8606
 8947TIP3    H248333   3.451   4.826   1.541 -0.3906  0.2787 -3.0945
 8948TIP3   OH248334   3.048   4.446  12.271  0.0800 -0.0726  0.4285
 8948TIP3    H148335   3.062   4.354  12.250 -1.1433  0.0264 -1.0131
 8948TIP3    H248336   3.095   4.493  12.202 -4.1142  0.2689 -2.5545
 8949TIP3   OH248337   0.732   0.239   3.301  0.1780 -0.2739  0.0235
 8949TIP3    H148338   0.729   0.189   3.220  1.7431 -0.9059  0.2983
 8949TIP3    H248339   0.815   0.287   3.296 -0.1960  0.4834  0.7999
 8950TIP3   OH248340   1.255   2.991   1.397  0.1909  0.8006 -0.5744
 8950TIP3    H148341   1.302   2.930   1.340 -2.6389 -1.4877 -0.6612
 8950TIP3    H248342   1.180   3.019   1.345 -0.2443  1.9248  0.6143
 8951TIP3   OH248343   1.669   5.096  14.630 -0.2154  0.1018  0.1120
 8951TIP3    H148344   1.761   5.117  14.615 -0.0807 -1.2392 -1.2205
 8951TIP3    H248345   1.650   5.131  14.717  2.1502 -1.4762  1.3784
 8952TIP3   OH248346   0.874   3.977  15.621 -0.7902  0.0984 -0.5677
 8952TIP3    H148347   0.789   3.943  15.590 -1.4346  0.6819  0.4854
 8952TIP3    H248348   0.869   3.970  15.716  0.1487  0.6230 -0.4697
 8953TIP3   OH248349   6.456   0.548  12.314  0.6975  0.5591  0.4483
 8953TIP3    H148350   6.462   0.567  12.407  1.1856 -0.8208  0.7263
 8953TIP3    H248351   6.487   0.628  12.271 -0.4068  1.5467  1.4293
 8954TIP3   OH248352   4.917   2.156   1.096  0.2970 -0.0511 -0.2143
 8954TIP3    H148353   4.948   2.227   1.152 -1.0178  2.2974 -2.2296
 8954TIP3    H248354   4.991   2.096   1.088  1.3090  0.8286  1.9455
 8955TIP3   OH248355   0.093   6.407  15.177  0.4187  0.1339 -0.5537
 8955TIP3    H148356   0.147   6.408  15.256 -0.5731  1.8448  0.1689
 8955TIP3    H248357   0.149   6.445  15.110  1.0178 -0.6412 -0.5086
 8956TIP3   OH248358   6.633   4.385  13.639  0.2200 -0.1224 -0.0435
 8956TIP3    H148359   6.639   4.292  13.662 -0.1890 -0.0524  0.3700
 8956TIP3    H248360   6.623   4.430  13.723 -1.2038  0.1483 -0.3298
 8957TIP3   OH248361   3.830   2.936   4.210 -0.5914 -0.2426  0.1420
 8957TIP3    H148362   3.773   2.983   4.149  1.8874  1.1162 -1.2465
 8957TIP3    H248363   3.839   2.848   4.172  0.8021  0.5414 -1.4563
 8958TIP3   OH248364   2.879   3.125   5.606 -0.5422  0.2203  0.2282
 8958TIP3    H148365   2.927   3.042   5.600  0.7040  0.8746  0.6931
 8958TIP3    H248366   2.943   3.191   5.577 -0.4517  1.3588  2.7286
 8959TIP3   OH248367   0.331   1.955  14.491  0.7251 -0.0750 -0.4268
 8959TIP3    H148368   0.423   1.968  14.469  1.0021 -0.7130  0.2924
 8959TIP3    H248369   0.302   2.040  14.525  0.7794  0.3967 -1.5109
 8960TIP3   OH248370   2.314   6.681  16.322 -0.2303 -0.1670  0.7019
 8960TIP3    H148371   2.288   6.757  16.374 -0.7366 -0.0822  0.3397
 8960TIP3    H248372   2.252   6.680  16.249 -0.5292 -1.2014  0.9544
 8961TIP3   OH248373   5.960   1.911  13.356  0.3045  0.3389  0.3609
 8961TIP3    H148374   5.884   1.869  13.316 -0.7453  1.0110  1.5899
 8961TIP3    H248375   5.924   1.982  13.409  1.8774  1.3871  0.0993
 8962TIP3   OH248376   6.522   5.200   2.142 -1.0804 -0.3176  0.4005
 8962TIP3    H148377   6.462   5.245   2.082  1.6877  0.7479 -1.7616
 8962TIP3    H248378   6.522   5.109   2.112 -3.0218 -0.8242  1.7165
 8963TIP3   OH248379   1.500   1.248  12.605 -0.1879  0.0373  0.5993
 8963TIP3    H148380   1.475   1.157  12.622 -0.2336  0.4033  2.7427
 8963TIP3    H248381   1.427   1.284  12.555 -0.2573 -1.0392 -0.1025
 8964TIP3   OH248382   5.736   0.928  13.075  0.0790 -0.1216 -0.3851
 8964TIP3    H148383   5.761   0.957  13.163 -1.0212  0.6644 -0.3103
 8964TIP3    H248384   5.650   0.967  13.060 -0.6344 -1.8440 -1.0474
 8965TIP3   OH248385   0.659   2.491   1.047 -0.3396 -0.9833 -0.0380
 8965TIP3    H148386   0.681   2.423   1.111  0.9697 -0.7331 -0.1927
 8965TIP3    H248387   0.737   2.499   0.993 -0.2420  1.0393  0.3307
 8966TIP3   OH248388   5.663   6.548   3.791  0.0859  0.1993 -0.1626
 8966TIP3    H148389   5.629   6.603   3.720 -0.0986  1.2438  0.7096
 8966TIP3    H248390   5.745   6.590   3.817  0.4620 -0.5276 -0.1541
 8967TIP3   OH248391   0.469   5.171   5.555 -0.0883 -0.1408 -0.0971
 8967TIP3    H148392   0.475   5.092   5.502 -2.5972  0.1537 -0.9439
 8967TIP3    H248393   0.441   5.239   5.494 -1.2194  0.6291  1.2299
 8968TIP3   OH248394   3.306   4.610   1.783  0.6237 -0.1545 -0.4673
 8968TIP3    H148395   3.228   4.574   1.740  0.6349  0.1977 -0.7872
 8968TIP3    H248396   3.379   4.575   1.732  0.6865 -0.6650 -0.0312
 8969TIP3   OH248397   1.318   6.481   5.752 -0.6148  0.0060  0.7199
 8969TIP3    H148398   1.342   6.423   5.824  1.8371 -0.9007 -0.7205
 8969TIP3    H248399   1.380   6.554   5.757 -0.2280 -0.2029 -0.5964
 8970TIP3   OH248400   2.203   6.538  15.871  0.4209  0.4502  0.0746
 8970TIP3    H148401   2.159   6.504  15.948  0.3420 -0.1593 -0.2327
 8970TIP3    H248402   2.291   6.561  15.901  0.7927 -0.9155  0.0919
 8971TIP3   OH248403   3.363   6.402   0.150  0.0427 -0.4573  0.3095
 8971TIP3    H148404   3.365   6.312   0.117  1.5536  0.3553 -2.0977
 8971TIP3    H248405   3.453   6.418   0.179  0.3146  0.8429 -1.1261
 8972TIP3   OH248406   2.046   2.381   5.513 -0.0670 -0.1105 -0.0340
 8972TIP3    H148407   1.958   2.378   5.552  0.3662  0.7995  1.0659
 8972TIP3    H248408   2.067   2.475   5.509 -0.1164 -0.1394 -2.5889
 8973TIP3   OH248409   6.242   4.984  13.387 -0.0695  0.3469 -0.4386
 8973TIP3    H148410   6.155   4.974  13.426  0.1378 -0.7096 -0.2339
 8973TIP3    H248411   6.228   4.969  13.293 -0.0510 -0.1983 -0.3573
 8974TIP3   OH248412   6.403   4.911   2.711  0.0793  0.1442 -0.3525
 8974TIP3    H148413   6.329   4.952   2.755 -0.2073 -2.7755  2.2454
 8974TIP3    H248414   6.478   4.965   2.735 -0.5540  0.4236  1.1164
 8975TIP3   OH248415   2.955   2.192  15.781 -0.0111 -0.2834  0.1152
 8975TIP3    H148416   2.945   2.130  15.709 -0.8764 -1.4781  1.2037
 8975TIP3    H248417   3.018   2.256  15.750 -1.3746  0.0423 -2.2279
 8976TIP3   OH248418   2.003   6.688  12.734 -0.3336 -0.3666 -0.4382
 8976TIP3    H148419   2.067   6.737  12.681 -1.6338  1.4384 -0.4156
 8976TIP3    H248420   2.008   6.599  12.699  0.1920  0.3465 -2.3619
 8977TIP3   OH248421   2.332   1.209   5.545 -0.2209  0.6035 -0.1013
 8977TIP3    H148422   2.343   1.175   5.456 -2.2862 -0.7900  0.1261
 8977TIP3    H248423   2.294   1.296   5.533  2.8428  2.0067 -0.6085
 8978TIP3   OH248424   1.117   3.910  16.742 -0.8962  0.5133  0.0597
 8978TIP3    H148425   1.182   3.871  16.800  0.0532 -1.2156 -2.0118
 8978TIP3    H248426   1.114   4.002  16.767  3.2314  0.9682 -0.4397
 8979TIP3   OH248427   2.063   4.233   0.022  0.3994 -0.6369  0.1694
 8979TIP3    H148428   2.147   4.215  -0.020  0.8903  0.4967  0.6245
 8979TIP3    H248429   2.086   4.249   0.114 -0.1657  0.6576  0.1084
 8980TIP3   OH248430   5.460   2.635  14.544 -0.2010  0.2196  0.6819
 8980TIP3    H148431   5.486   2.712  14.595 -0.1924  1.4262 -1.0773
 8980TIP3    H248432   5.493   2.651  14.456 -0.3154 -1.7594  0.2282
 8981TIP3   OH248433   1.224   4.874   0.856 -0.2912  0.0272  0.2797
 8981TIP3    H148434   1.247   4.782   0.845  0.1499  0.0014  1.2317
 8981TIP3    H248435   1.186   4.879   0.944 -0.8394  0.6602  0.0173
 8982TIP3   OH248436   0.318   2.713  11.560  0.0102  0.2764 -0.2376
 8982TIP3    H148437   0.405   2.726  11.523  0.1322  1.4682  0.4067
 8982TIP3    H248438   0.323   2.753  11.647 -0.1433 -2.7676  1.2900
 8983TIP3   OH248439   2.636   1.795   5.311  0.1202  0.1661 -0.0988
 8983TIP3    H148440   2.591   1.776   5.229  1.9053 -0.8638 -0.8809
 8983TIP3    H248441   2.703   1.859   5.289 -0.8792  1.7251  1.0720
 8984TIP3   OH248442   5.844   0.918  16.228  0.7035  0.0875 -0.2993
 8984TIP3    H148443   5.749   0.922  16.242  0.7866 -1.9765  1.3018
 8984TIP3    H248444   5.859   0.833  16.188  1.9953 -0.2981  0.9201
 8985TIP3   OH248445   0.834   3.836  10.932 -0.1172  0.4953 -0.3046
 8985TIP3    H148446   0.794   3.916  10.967 -0.9698 -0.6028  1.3594
 8985TIP3    H248447   0.928   3.846  10.951 -0.2660  0.9380  0.2330
 8986TIP3   OH248448   1.690   6.685  11.117  0.2376  0.5931  0.3039
 8986TIP3    H148449   1.725   6.668  11.029  1.7526 -2.2690  1.3442
 8986TIP3    H248450   1.716   6.775  11.136 -0.4967  1.4388 -2.2820
 8987TIP3   OH248451   4.957   1.294   3.940  0.1213  0.2278  0.7167
 8987TIP3    H148452   4.964   1.363   4.006  0.7093 -0.2461  1.1610
 8987TIP3    H248453   5.048   1.279   3.912 -0.1978  1.1386 -0.9539
 8988TIP3   OH248454   1.709   5.649  15.233 -0.4541  0.3136  0.4206
 8988TIP3    H148455   1.773   5.657  15.162 -0.3329  0.0195  0.4908
 8988TIP3    H248456   1.676   5.738  15.247 -0.3234  0.4062  0.1394
 8989TIP3   OH248457   4.491   2.948   5.645  0.2752 -0.1736  0.2058
 8989TIP3    H148458   4.431   2.878   5.619  1.1335 -0.9262  0.1945
 8989TIP3    H248459   4.553   2.955   5.573 -0.4300  1.3863 -0.3091
 8990TIP3   OH248460   3.169   2.912   5.306 -0.1085 -0.5577 -0.2202
 8990TIP3    H148461   3.261   2.930   5.285  0.3594 -2.3926  0.1022
 8990TIP3    H248462   3.152   2.963   5.385  0.3416  0.4960 -0.7795
 8991TIP3   OH248463   0.304   6.007   4.590  0.5723 -0.0061 -0.2930
 8991TIP3    H148464   0.373   5.972   4.647  0.0931 -1.8135 -0.7610
 8991TIP3    H248465   0.331   5.982   4.502 -0.0825  0.3484 -0.5959
 8992TIP3   OH248466   1.315   1.973   1.740  0.3367  0.1365 -0.4254
 8992TIP3    H148467   1.312   1.904   1.805 -0.6976 -0.3147 -0.9384
 8992TIP3    H248468   1.279   2.050   1.784  0.9301  0.2010 -0.0440
 8993TIP3   OH248469   5.257   6.307  11.216 -0.3406 -0.3532  0.0686
 8993TIP3    H148470   5.260   6.402  11.226 -1.1772 -0.1349 -1.4706
 8993TIP3    H248471   5.272   6.273  11.304 -0.6013  1.2105  0.7472
 8994TIP3   OH248472   0.149   3.189  11.982  0.6156  0.4491 -0.2265
 8994TIP3    H148473   0.096   3.267  11.967 -0.6988 -0.2798  0.4198
 8994TIP3    H248474   0.137   3.137  11.902  0.6499  0.4461 -0.2294
 8995TIP3   OH248475   2.551   5.413  13.228 -0.0331 -0.6825 -0.6076
 8995TIP3    H148476   2.556   5.396  13.322  1.7339 -0.4035 -0.6146
 8995TIP3    H248477   2.522   5.504  13.221  0.4448 -0.5069 -0.3150
 8996TIP3   OH248478   2.129   6.241   2.062 -0.3963 -0.0285 -0.4038
 8996TIP3    H148479   2.072   6.310   2.096 -0.8280 -0.8032  0.4814
 8996TIP3    H248480   2.214   6.259   2.103  0.3031  1.6611 -2.4238
 8997TIP3   OH248481   5.238   2.885   5.254 -0.6174 -0.5376  0.0807
 8997TIP3    H148482   5.195   2.881   5.339 -0.8240 -1.4151 -0.0497
 8997TIP3    H248483   5.167   2.871   5.191 -0.3462 -0.6854 -0.1937
 8998TIP3   OH248484   1.975   4.253  14.274  0.5019 -0.0399 -0.2581
 8998TIP3    H148485   1.960   4.267  14.181 -1.2117  1.2186  0.1575
 8998TIP3    H248486   2.062   4.213  14.279  0.2932 -0.8675 -2.4189
 8999TIP3   OH248487   6.704   0.957  16.568 -0.3298 -0.0567 -0.1484
 8999TIP3    H148488   6.726   0.900  16.495 -1.3188 -1.6263  0.7173
 8999TIP3    H248489   6.658   0.900  16.630 -1.2020  1.6479  0.8528
 9000TIP3   OH248490   6.281   4.777  13.186 -0.5279  1.1304 -0.2760
 9000TIP3    H148491   6.192   4.742  13.179  0.5547 -1.5364 -2.8665
 9000TIP3    H248492   6.321   4.726  13.256 -0.4149  0.7189 -0.6347
 9001TIP3   OH248493   6.553   4.477  16.546 -0.0119 -0.3565 -0.0641
 9001TIP3    H148494   6.643   4.488  16.517  0.5549  2.0806  2.1857
 9001TIP3    H248495   6.501   4.527  16.483  0.5501  0.5145  0.1515
 9002TIP3   OH248496   2.167   5.332   5.741 -0.1930 -0.2398  0.2657
 9002TIP3    H148497   2.106   5.347   5.668 -0.7026  0.4583  0.8247
 9002TIP3    H248498   2.162   5.411   5.794 -0.7023 -1.1994  1.7071
 9003TIP3   OH248499   2.175   6.649  10.598 -0.0728 -0.0219  0.2637
 9003TIP3    H148500   2.223   6.691  10.670 -0.3445  0.4579  0.1735
 9003TIP3    H248501   2.223   6.568  10.581 -0.3050 -0.3893  1.3189
 9004TIP3   OH248502   5.234   4.205  17.317  0.2587  0.3723  0.3477
 9004TIP3    H148503   5.256   4.298  17.323 -1.2089  0.7864 -0.1774
 9004TIP3    H248504   5.192   4.186  17.401 -1.2203  0.7244 -0.2756
 9005TIP3   OH248505   0.669   5.521   5.183 -0.2889  0.2714  0.3159
 9005TIP3    H148506   0.667   5.599   5.238 -0.9922 -0.4457  1.3439
 9005TIP3    H248507   0.754   5.481   5.203 -0.1174  0.5388  0.1263
 9006TIP3   OH248508   5.372   1.526  11.826  0.0133  0.1133 -0.1342
 9006TIP3    H148509   5.440   1.586  11.858  1.4607 -1.6297  0.2127
 9006TIP3    H248510   5.357   1.552  11.735  0.1526  1.3646  0.1836
 9007TIP3   OH248511   1.568   6.166   0.156 -0.0619 -0.3246 -0.1430
 9007TIP3    H148512   1.505   6.222   0.202 -0.7796 -1.2230 -0.0233
 9007TIP3    H248513   1.522   6.084   0.141  1.1162 -1.0540  0.0599
 9008TIP3   OH248514   0.562   6.218  14.679 -0.6581  0.1636  0.3532
 9008TIP3    H148515   0.509   6.255  14.751  1.5578  1.8424  1.2349
 9008TIP3    H248516   0.600   6.295  14.636  1.8964 -0.9732  0.4429
 9009TIP3   OH248517   3.309   1.824   0.990  0.4904  0.3341  0.4557
 9009TIP3    H148518   3.222   1.797   0.959 -0.0457  1.5003  0.8947
 9009TIP3    H248519   3.308   1.919   0.985  3.2375  0.3976 -3.5168
 9010TIP3   OH248520   6.712   4.178   4.917  0.7074 -0.2153  0.2779
 9010TIP3    H148521   6.687   4.098   4.870 -0.0086  0.9863 -1.4811
 9010TIP3    H248522   6.634   4.232   4.916  1.7118  1.2851 -0.2474
 9011TIP3   OH248523   3.477   5.290   1.766  0.0899 -0.1908  0.7786
 9011TIP3    H148524   3.465   5.385   1.777  0.7492  0.2820 -1.8963
 9011TIP3    H248525   3.570   5.276   1.780  0.1167 -0.3057  0.4998
 9012TIP3   OH248526   2.214   2.944  17.149  0.0025  0.3289 -0.3051
 9012TIP3    H148527   2.204   3.015  17.086  0.6641 -0.0946 -0.9136
 9012TIP3    H248528   2.237   2.868  17.095  0.2556 -0.1190  0.4185
 9013TIP3   OH248529   6.219   3.245   1.710  0.0536 -0.1937 -0.4068
 9013TIP3    H148530   6.257   3.276   1.792 -2.7774 -0.7969  1.2362
 9013TIP3    H248531   6.255   3.156   1.699  1.4795  0.3764 -0.5996
 9014TIP3   OH248532   4.817   4.593   0.728  0.2564 -0.9831  0.2709
 9014TIP3    H148533   4.770   4.625   0.652 -0.1954 -1.5450  0.3051
 9014TIP3    H248534   4.751   4.587   0.797  0.6763 -0.3911  0.7437
 9015TIP3   OH248535   0.599   1.697   3.935 -0.0919 -0.2268 -0.3968
 9015TIP3    H148536   0.534   1.665   3.997 -0.8008  3.1282  0.8249
 9015TIP3    H248537   0.683   1.678   3.977 -0.5462  1.2716  1.3315
 9016TIP3   OH248538   1.099   1.280  16.674 -0.0936 -0.4175  0.2184
 9016TIP3    H148539   1.171   1.250  16.620 -0.1118  0.2994 -0.2239
 9016TIP3    H248540   1.048   1.338  16.617 -2.3495 -2.6555 -0.2236
 9017TIP3   OH248541   4.279   0.578   3.922 -0.0873  0.0160 -0.1781
 9017TIP3    H148542   4.373   0.595   3.912  0.0035  0.1552  0.7835
 9017TIP3    H248543   4.239   0.665   3.920 -0.1241  0.0054  0.0184
 9018TIP3   OH248544   2.348   0.030   0.351 -0.0388  0.0819  0.1614
 9018TIP3    H148545   2.345   0.050   0.258 -0.7078  2.4741  0.6324
 9018TIP3    H248546   2.256   0.019   0.376  0.1442 -0.6747  0.5472
 9019TIP3   OH248547   2.262   3.823  14.686 -0.5044 -0.4462 -0.5491
 9019TIP3    H148548   2.188   3.845  14.630 -1.6578 -1.1318  0.6441
 9019TIP3    H248549   2.296   3.907  14.715 -0.1033 -0.0906 -1.9602
 9020TIP3   OH248550   2.206   1.205  11.544 -0.3002  0.9748  0.2226
 9020TIP3    H148551   2.170   1.204  11.633 -0.2967 -1.1110  0.2640
 9020TIP3    H248552   2.153   1.140  11.496 -0.2656  2.0170 -1.2949
 9021TIP3   OH248553   3.717   3.613  15.605 -0.7676  0.2584 -0.2526
 9021TIP3    H148554   3.647   3.567  15.651 -1.2116  0.2453 -0.9225
 9021TIP3    H248555   3.770   3.543  15.566  0.8264  0.1722  1.9070
 9022TIP3   OH248556   6.480   2.216   1.476  0.1696 -0.3244 -0.4189
 9022TIP3    H148557   6.538   2.224   1.400  0.0342 -1.9537 -0.7140
 9022TIP3    H248558   6.495   2.297   1.525 -1.3772  1.8971 -3.2937
 9023TIP3   OH248559   2.416   2.698  14.398  0.3848 -0.3737  0.1214
 9023TIP3    H148560   2.421   2.608  14.365  0.4284 -0.2336 -0.2599
 9023TIP3    H248561   2.487   2.744  14.353  1.1025 -0.4149  1.1806
 9024TIP3   OH248562   4.972   4.807  16.624 -0.1882 -0.3272 -0.4589
 9024TIP3    H148563   5.046   4.747  16.620 -0.8189 -1.2546  0.9799
 9024TIP3    H248564   4.918   4.774  16.696 -1.2483  1.1859 -0.5115
 9025TIP3   OH248565   5.673   6.191  13.839 -0.2392 -0.0115  1.2546
 9025TIP3    H148566   5.692   6.101  13.865  0.5135 -0.5465 -0.9084
 9025TIP3    H248567   5.745   6.242  13.876  1.7401 -0.9885 -0.9359
 9026TIP3   OH248568   3.033   1.165  13.269  0.4919  0.3611 -0.2545
 9026TIP3    H148569   2.972   1.091  13.276  1.4551 -0.4237  0.0501
 9026TIP3    H248570   3.118   1.124  13.253  0.6973  1.4952 -2.4000
 9027TIP3   OH248571   2.845   5.501   4.010  0.3414  0.5726 -0.0883
 9027TIP3    H148572   2.811   5.412   4.021  0.8953 -0.1076 -3.0121
 9027TIP3    H248573   2.896   5.517   4.089 -0.9837 -1.0985  1.1835
 9028TIP3   OH248574   5.871   5.656   5.865  0.5168 -0.1702 -0.1036
 9028TIP3    H148575   5.885   5.714   5.940  0.4897 -0.5732  0.2208
 9028TIP3    H248576   5.800   5.697   5.815 -0.7829 -0.8414  1.1002
 9029TIP3   OH248577   3.391   3.867  14.418 -0.7026  0.8056  0.6136
 9029TIP3    H148578   3.323   3.803  14.398 -0.2218  0.0898  1.2498
 9029TIP3    H248579   3.410   3.908  14.333  0.8701 -1.7671 -0.3911
 9030TIP3   OH248580   2.026   5.738  16.219 -0.0471 -0.0228 -0.0976
 9030TIP3    H148581   2.039   5.705  16.130  1.4557 -0.2438  0.1838
 9030TIP3    H248582   2.012   5.832  16.208  0.9155  0.0833 -0.5304
 9031TIP3   OH248583   6.049   3.356  15.496  0.1228 -0.0290 -0.5127
 9031TIP3    H148584   6.132   3.403  15.504 -0.8502  1.8283 -0.8837
 9031TIP3    H248585   6.009   3.390  15.416 -1.4679 -0.0942  0.2212
 9032TIP3   OH248586   0.879   1.910   5.687 -0.5107 -0.6627  0.0963
 9032TIP3    H148587   0.965   1.929   5.651 -1.2699  0.1279 -1.4021
 9032TIP3    H248588   0.881   1.946   5.776  0.3599  0.2697 -0.2848
 9033TIP3   OH248589   3.576   3.336   1.275 -0.4358 -0.0767 -0.1427
 9033TIP3    H148590   3.633   3.266   1.243  0.4204  0.2214  0.6608
 9033TIP3    H248591   3.577   3.401   1.205  0.3483 -0.0108 -0.0829
 9034TIP3   OH248592   6.056   2.451   1.831 -0.0652  0.3179  0.4126
 9034TIP3    H148593   6.099   2.528   1.868  1.3524  0.0718 -0.6359
 9034TIP3    H248594   6.101   2.377   1.871  1.5545  0.0463 -1.7750
 9035TIP3   OH248595   5.836   2.975   1.726  0.5402  0.2211 -0.5529
 9035TIP3    H148596   5.778   2.927   1.786  0.4824  0.6321 -0.2768
 9035TIP3    H248597   5.847   3.060   1.767  0.4391  0.5382 -1.1725
 9036TIP3   OH248598   2.534   5.810  14.057 -0.3179  0.6363  0.0368
 9036TIP3    H148599   2.615   5.849  14.091 -2.2386  3.2342  2.0333
 9036TIP3    H248600   2.535   5.832  13.964  1.2111  0.6710  0.0274
 9037TIP3   OH248601   4.824   6.172   3.158  0.6298 -0.1581  0.1393
 9037TIP3    H148602   4.856   6.190   3.070  0.5861 -0.6710  0.0182
 9037TIP3    H248603   4.827   6.077   3.166 -1.8400 -0.3132 -0.2528
 9038TIP3   OH248604   0.321   0.253  11.619 -0.0073 -0.1686 -0.2860
 9038TIP3    H148605   0.309   0.319  11.687  3.3678 -0.5224  0.8522
 9038TIP3    H248606   0.398   0.204  11.646  0.3287 -1.6371 -3.3975
 9039TIP3   OH248607   0.688   4.171   5.973  0.2395 -0.2109  0.5031
 9039TIP3    H148608   0.779   4.200   5.978  0.1574  0.0798  0.2782
 9039TIP3    H248609   0.692   4.087   5.928  0.3644 -0.0595  0.2343
 9040TIP3   OH248610   6.605   1.465  11.390  0.0914 -0.3062 -0.3248
 9040TIP3    H148611   6.645   1.402  11.330  1.3441  1.9595 -1.9959
 9040TIP3    H248612   6.635   1.437  11.476 -0.6152 -2.8400 -0.8160
 9041TIP3   OH248613   3.576   0.897  14.998 -0.0347 -0.4280  0.6361
 9041TIP3    H148614   3.616   0.935  14.920 -1.7005 -1.3310 -0.7303
 9041TIP3    H248615   3.649   0.879  15.056  1.6565 -2.4389 -1.8945
 9042TIP3   OH248616   6.212   3.889  14.100 -0.0586 -0.0068 -0.1844
 9042TIP3    H148617   6.229   3.807  14.146 -0.3270 -0.4293 -0.8264
 9042TIP3    H248618   6.194   3.953  14.169  0.7623 -0.3412  0.3500
 9043TIP3   OH248619   3.970   6.753  14.207 -0.3135  0.4290 -0.1554
 9043TIP3    H148620   3.989   6.816  14.139 -1.4154  0.2241 -0.6774
 9043TIP3    H248621   3.914   6.688  14.165  0.8781 -0.9718  0.3341
 9044TIP3   OH248622   5.345   6.056  12.539 -0.4130 -0.0970 -0.2378
 9044TIP3    H148623   5.433   6.019  12.537 -0.8861 -1.2735  0.0050
 9044TIP3    H248624   5.350   6.134  12.482  0.7001 -0.3160 -0.4534
 9045TIP3   OH248625   6.367   6.028   2.799  0.1868  0.4447 -0.1859
 9045TIP3    H148626   6.384   6.041   2.705 -0.7118 -1.5394 -0.6713
 9045TIP3    H248627   6.302   5.957   2.802  0.0270  0.6261  1.9398
 9046TIP3   OH248628   2.937   4.828  15.397 -0.7000 -0.2864  1.0738
 9046TIP3    H148629   2.908   4.760  15.337  1.6034  0.6772 -1.3041
 9046TIP3    H248630   2.864   4.889  15.402 -0.9933 -0.4498 -0.7253
 9047TIP3   OH248631   4.669   3.044  12.894  0.0619 -0.1122  0.0099
 9047TIP3    H148632   4.616   2.997  12.958  1.6740 -1.3655  0.4819
 9047TIP3    H248633   4.633   3.017  12.809 -0.5496 -0.2999  0.3202
 9048TIP3   OH248634   6.630   2.282  11.747 -0.0755 -0.8120 -0.2345
 9048TIP3    H148635   6.705   2.341  11.747 -0.2895 -0.4364 -2.7076
 9048TIP3    H248636   6.669   2.195  11.736  0.1840 -1.1699  2.6372
 9049TIP3   OH248637   0.926   0.993   0.710  0.2469 -0.4212 -0.5151
 9049TIP3    H148638   0.878   1.000   0.628 -0.9965 -1.3434  0.0996
 9049TIP3    H248639   0.899   0.908   0.746 -0.2280  0.5110  1.4522
 9050TIP3   OH248640   6.766   5.491  10.340  0.1892  0.6316  0.0741
 9050TIP3    H148641   6.764   5.421  10.405 -1.2380 -1.1552 -1.7644
 9050TIP3    H248642   6.859   5.513  10.331  0.5020  0.1710  1.8902
 9051TIP3   OH248643   5.826   4.130   5.038 -0.1448 -0.0887 -0.3992
 9051TIP3    H148644   5.759   4.186   4.998 -0.5475  0.0663  0.4715
 9051TIP3    H248645   5.858   4.077   4.965 -0.6985  0.3380 -0.9779
 9052TIP3   OH248646   2.236   1.359   3.016 -0.3175  0.5828 -0.4855
 9052TIP3    H148647   2.265   1.404   3.095  1.6375 -0.1480 -0.7399
 9052TIP3    H248648   2.274   1.409   2.944 -1.9897  1.1730 -0.9983
 9053TIP3   OH248649   3.618   5.974  11.961 -0.0026  0.4706 -0.5169
 9053TIP3    H148650   3.678   5.901  11.945 -0.6756 -0.6531  1.6819
 9053TIP3    H248651   3.650   6.013  12.043 -0.1599  2.1481 -1.2151
 9054TIP3   OH248652   2.041   5.353   2.464 -0.1945  0.2676 -0.2147
 9054TIP3    H148653   2.060   5.404   2.385 -1.0287  0.2142 -0.4569
 9054TIP3    H248654   1.986   5.411   2.517  1.6234  0.9212  1.0581
 9055TIP3   OH248655   2.336   2.549  16.303 -0.3898  0.0034  0.3212
 9055TIP3    H148656   2.370   2.503  16.227 -0.3553  2.1103 -1.0002
 9055TIP3    H248657   2.355   2.490  16.377  0.3697 -1.6878 -1.1499
 9056TIP3   OH248658   3.709   4.872   5.717  0.0098 -0.3665 -0.2263
 9056TIP3    H148659   3.693   4.961   5.686 -2.6382 -0.0446  1.7735
 9056TIP3    H248660   3.763   4.883   5.795 -0.2174 -0.5581 -0.0445
 9057TIP3   OH248661   0.536   4.385   3.105 -0.0946  0.2407  0.0292
 9057TIP3    H148662   0.570   4.309   3.057  2.1278  0.7462  0.7326
 9057TIP3    H248663   0.479   4.347   3.172 -0.9590 -0.6309 -1.1467
 9058TIP3   OH248664   4.387   5.599  10.579  0.2722 -0.1116 -0.2520
 9058TIP3    H148665   4.451   5.630  10.644 -0.9170  1.5072  0.2045
 9058TIP3    H248666   4.340   5.677  10.553 -0.5553 -1.0551 -1.6841
 9059TIP3   OH248667   0.604   4.578  13.108 -0.6357 -0.3904 -0.1482
 9059TIP3    H148668   0.619   4.628  13.188  2.1747 -0.9462 -0.2509
 9059TIP3    H248669   0.691   4.554  13.077 -1.6843 -1.1319 -2.8063
 9060TIP3   OH248670   0.565   5.951   0.678  0.5493 -0.3337  0.6479
 9060TIP3    H148671   0.602   5.917   0.760  0.3609 -2.9053 -0.2433
 9060TIP3    H248672   0.485   5.901   0.666  0.9169 -0.4922 -1.4367
 9061TIP3   OH248673   3.664   4.394  16.625 -0.8054 -0.2207  0.0553
 9061TIP3    H148674   3.757   4.412  16.611 -0.5770 -0.9368  0.6184
 9061TIP3    H248675   3.647   4.315  16.575 -1.1498 -0.0262 -0.1442
 9062TIP3   OH248676   3.724   5.565   2.784  0.5351 -0.2521 -0.4994
 9062TIP3    H148677   3.795   5.571   2.719 -1.5239  0.3330 -2.8372
 9062TIP3    H248678   3.660   5.630   2.755 -0.6829 -0.2626  1.9391
 9063TIP3   OH248679   2.872   5.646   6.238 -0.0027  0.0677 -0.1782
 9063TIP3    H148680   2.848   5.633   6.329 -1.6498 -1.9608 -0.8069
 9063TIP3    H248681   2.959   5.687   6.241 -0.7423  1.6327  2.2468
 9064TIP3   OH248682   5.911   0.211  14.725  0.6283 -0.3445 -0.6751
 9064TIP3    H148683   5.958   0.264  14.661 -0.0755  0.3634 -0.6219
 9064TIP3    H248684   5.979   0.179  14.784  1.0667  0.4852 -0.7173
 9065TIP3   OH248685   2.553   1.191   1.910  0.1677 -0.1477  0.4920
 9065TIP3    H148686   2.560   1.098   1.889  1.2472  0.1100 -0.3861
 9065TIP3    H248687   2.643   1.217   1.933 -0.0245  0.7741  0.2372
 9066TIP3   OH248688   0.206   4.258   3.517  0.4871  0.4791 -0.0709
 9066TIP3    H148689   0.122   4.279   3.558  0.0497  0.7789 -1.1041
 9066TIP3    H248690   0.268   4.320   3.556 -0.2131  1.7562 -0.9157
 9067TIP3   OH248691   1.846   5.509   4.760  0.1535 -0.4257  0.4256
 9067TIP3    H148692   1.927   5.559   4.765 -0.9796  1.4876  0.6617
 9067TIP3    H248693   1.777   5.572   4.780 -1.6714 -1.2406 -2.7063
 9068TIP3   OH248694   3.701   6.236   2.462  0.0390 -0.2019  0.1583
 9068TIP3    H148695   3.766   6.218   2.530  1.3018 -1.1994 -1.2595
 9068TIP3    H248696   3.732   6.315   2.419 -1.0906  0.7852  1.0860
 9069TIP3   OH248697   2.288   2.794  12.374 -0.5439 -0.3979 -0.6230
 9069TIP3    H148698   2.368   2.831  12.337  0.3497 -0.2447  1.3472
 9069TIP3    H248699   2.300   2.700  12.369 -1.2656 -0.4398 -2.3681
 9070TIP3   OH248700   5.054   1.266  16.673 -0.1083 -0.1929 -0.1962
 9070TIP3    H148701   5.105   1.239  16.597  3.0043 -0.4414  1.8269
 9070TIP3    H248702   5.057   1.362  16.671  1.3011 -0.2023  0.3808
 9071TIP3   OH248703   0.428   1.251   4.212 -0.4409  0.1107 -0.7742
 9071TIP3    H148704   0.421   1.157   4.229 -2.4935  0.5290  0.9971
 9071TIP3    H248705   0.338   1.280   4.198 -0.0631  2.1002  0.5245
 9072TIP3   OH248706   2.923   5.132   3.889 -0.4298 -0.9844 -1.0101
 9072TIP3    H148707   2.866   5.193   3.937  0.3278 -0.3429 -0.8925
 9072TIP3    H248708   2.866   5.093   3.823 -1.1480 -0.8149 -0.5117
 9073TIP3   OH248709   3.145   5.850  17.239 -0.5517 -0.5288 -0.8831
 9073TIP3    H148710   3.129   5.822  17.329  1.4309 -1.9009 -0.8994
 9073TIP3    H248711   3.149   5.945  17.243 -0.6603 -0.5627  0.4308
 9074TIP3   OH248712   0.109   6.235   0.157 -0.6055  0.7898  0.2000
 9074TIP3    H148713   0.182   6.293   0.137  0.4026 -0.8101 -0.9169
 9074TIP3    H248714   0.044   6.253   0.089 -1.8625  3.0487  1.8443
 9075TIP3   OH248715   3.776   1.820  16.332 -0.0196 -0.3341  0.1235
 9075TIP3    H148716   3.828   1.780  16.263  2.3166  1.2587  0.8430
 9075TIP3    H248717   3.783   1.914  16.316 -3.1075 -0.0085  0.0300
 9076TIP3   OH248718   1.427   5.053  14.100 -0.5538 -0.0356  0.6964
 9076TIP3    H148719   1.469   5.115  14.159 -0.6582  2.3488 -1.5591
 9076TIP3    H248720   1.495   4.987  14.083  0.0321  0.1741  2.1264
 9077TIP3   OH248721   1.212   1.132  13.535  0.5111 -0.0023 -0.4902
 9077TIP3    H148722   1.302   1.155  13.511  0.2885  1.5619  0.0167
 9077TIP3    H248723   1.181   1.209  13.584 -0.9576 -0.6990 -0.2954
 9078TIP3   OH248724   2.995   1.335   0.900  0.8286  0.1219 -0.6785
 9078TIP3    H148725   2.914   1.377   0.872  0.6121 -0.1706 -0.4870
 9078TIP3    H248726   3.061   1.405   0.895 -0.0274  1.2781  2.2645
 9079TIP3   OH248727   5.785   1.221   2.425 -0.4427 -0.4415 -0.3680
 9079TIP3    H148728   5.781   1.316   2.419 -1.1236 -0.3862  0.6907
 9079TIP3    H248729   5.696   1.191   2.409 -0.3266 -0.8642 -0.2603
 9080TIP3   OH248730   3.656   6.260  14.653  0.0505 -0.2627  0.5493
 9080TIP3    H148731   3.672   6.295  14.566  0.3415  0.9575  1.0669
 9080TIP3    H248732   3.727   6.199  14.668  1.6000  1.5522  0.9625
 9081TIP3   OH248733   6.569   6.539  12.417 -0.2346  0.0204 -0.3607
 9081TIP3    H148734   6.522   6.497  12.490  0.1811 -0.6471 -0.4704
 9081TIP3    H248735   6.604   6.466  12.367  0.8064  0.5118 -0.3627
 9082TIP3   OH248736   3.482   5.717  14.065  0.0970  0.0732 -0.2896
 9082TIP3    H148737   3.504   5.714  14.159 -0.3940 -0.6387 -0.1980
 9082TIP3    H248738   3.523   5.639  14.028 -0.2162  0.0411 -0.5655
 9083TIP3   OH248739   3.566   4.906  11.819 -0.8583  0.3760 -0.1803
 9083TIP3    H148740   3.588   4.941  11.905  0.5938  1.0130 -0.7642
 9083TIP3    H248741   3.648   4.866  11.788 -0.2991  3.0245 -2.5618
 9084TIP3   OH248742   1.796   5.860   6.263 -0.2708  0.1884  0.6755
 9084TIP3    H148743   1.742   5.938   6.271 -0.5992 -0.2293  4.0380
 9084TIP3    H248744   1.776   5.809   6.342  1.0502 -2.5879 -0.6275
 9085TIP3   OH248745   1.778   5.129  11.955  0.3441  0.3077  0.5133
 9085TIP3    H148746   1.761   5.211  11.909 -0.6172  0.1644  0.5847
 9085TIP3    H248747   1.719   5.132  12.031 -1.9863 -1.7433 -1.0442
 9086TIP3   OH248748   6.071   6.365   5.683  0.4221  0.2083  0.1171
 9086TIP3    H148749   6.082   6.460   5.681 -2.0698  0.5527 -0.2572
 9086TIP3    H248750   5.995   6.349   5.628  0.6002 -1.9899  0.4424
 9087TIP3   OH248751   1.205   5.502   1.379 -0.1450  0.3067  0.8107
 9087TIP3    H148752   1.216   5.596   1.372 -2.4615  0.5335 -1.0718
 9087TIP3    H248753   1.294   5.466   1.368  0.5981  2.1973  0.3183
 9088TIP3   OH248754   6.239   6.466   2.522 -0.0950 -0.0483  0.0629
 9088TIP3    H148755   6.202   6.380   2.501  0.6647 -0.2480 -0.4987
 9088TIP3    H248756   6.306   6.480   2.455 -0.5342  1.1937 -0.1316
 9089TIP3   OH248757   2.288   3.174  11.927  0.3151 -0.9728 -0.0929
 9089TIP3    H148758   2.197   3.169  11.898  0.3960  1.1295 -0.8766
 9089TIP3    H248759   2.299   3.264  11.957  1.6988 -1.6369  1.6141
 9090TIP3   OH248760   5.172   4.609  16.544  0.1666 -0.5301  0.1312
 9090TIP3    H148761   5.173   4.541  16.477 -0.9776  0.8946 -1.4049
 9090TIP3    H248762   5.180   4.561  16.627 -0.4899 -2.5225 -0.8942
 9091TIP3   OH248763   3.187   2.807   4.572 -0.2809  0.0512 -0.2321
 9091TIP3    H148764   3.242   2.875   4.613 -1.2458  1.9467 -1.9121
 9091TIP3    H248765   3.207   2.813   4.479 -1.0316 -1.4355 -0.5185
 9092TIP3   OH248766   3.098   4.741  14.101  0.0299  0.2402  0.0356
 9092TIP3    H148767   3.054   4.679  14.043 -1.2543  1.6971 -0.6483
 9092TIP3    H248768   3.026   4.792  14.139  1.0233  1.3528  0.4856
 9093TIP3   OH248769   0.034   4.188   3.726 -0.7608  0.2400 -0.2054
 9093TIP3    H148770   0.102   4.204   3.792 -0.9794 -0.3120  0.1651
 9093TIP3    H248771  -0.042   4.160   3.777 -1.2781  0.8809 -0.6195
 9094TIP3   OH248772   0.970   5.168   4.928 -0.1262 -0.1992  0.4462
 9094TIP3    H148773   1.052   5.148   4.884 -0.3038  0.0791 -0.0142
 9094TIP3    H248774   0.996   5.200   5.014  0.2379 -0.2509  0.3559
 9095TIP3   OH248775   4.217   4.937   2.257  0.2695 -0.4293 -0.2650
 9095TIP3    H148776   4.311   4.943   2.237  0.0114 -1.2077 -1.8930
 9095TIP3    H248777   4.179   5.014   2.215  0.1726 -0.1038  0.4132
 9096TIP3   OH248778   3.770   6.455   5.708 -0.0296  0.3650  0.5686
 9096TIP3    H148779   3.676   6.436   5.713  0.1057  0.1435  2.9944
 9096TIP3    H248780   3.777   6.547   5.734  0.4169  0.5063 -0.0138
 9097TIP3   OH248781   4.729   6.499  12.697  0.5188 -0.1317  0.2941
 9097TIP3    H148782   4.717   6.422  12.642  0.4667 -0.0691  0.2192
 9097TIP3    H248783   4.682   6.569  12.652 -1.3560 -0.5482  1.4776
 9098TIP3   OH248784   5.256   2.937  14.542  0.0793 -0.2598 -0.1718
 9098TIP3    H148785   5.326   2.923  14.605  0.0150 -0.2351 -0.0944
 9098TIP3    H248786   5.213   2.852  14.533  0.6095 -0.4653 -0.8144
 9099TIP3   OH248787   2.435   4.509   4.301 -0.0033 -0.1701 -0.1833
 9099TIP3    H148788   2.346   4.540   4.316  0.3281  0.1924  1.1714
 9099TIP3    H248789   2.455   4.454   4.377  0.0526 -2.3577 -1.6543
 9100TIP3   OH248790   4.348   4.086   4.220  0.1669 -0.1099  0.6031
 9100TIP3    H148791   4.433   4.075   4.263  2.0208 -0.7375 -2.7834
 9100TIP3    H248792   4.306   4.000   4.227  3.1158 -2.2714 -3.5381
 9101TIP3   OH248793   5.835   4.660  15.011 -0.2659  0.0273  0.1032
 9101TIP3    H148794   5.741   4.644  15.015 -0.0402 -1.1845  0.9322
 9101TIP3    H248795   5.843   4.755  15.008 -1.4952  0.1593  0.6434
 9102TIP3   OH248796   0.350   0.805   2.930  0.0747  0.3881 -0.5325
 9102TIP3    H148797   0.293   0.816   2.854 -1.8004  0.4281  0.8090
 9102TIP3    H248798   0.310   0.859   2.999  1.0270 -0.5573  0.8312
 9103TIP3   OH248799   4.274   2.843   2.079  0.2946 -0.8519  0.1052
 9103TIP3    H148800   4.263   2.935   2.056 -0.5797 -0.7856  0.7276
 9103TIP3    H248801   4.229   2.795   2.009  2.1633 -0.9096 -1.1199
 9104TIP3   OH248802   6.139   4.662  11.863 -0.8292  0.3439 -0.5767
 9104TIP3    H148803   6.197   4.669  11.787 -0.6345  0.7320 -0.3966
 9104TIP3    H248804   6.189   4.611  11.926 -1.0173 -0.0348 -0.7340
 9105TIP3   OH248805   1.351   1.677  13.666  0.0416 -0.5266  0.3390
 9105TIP3    H148806   1.401   1.753  13.697  1.0585 -1.9177  2.4099
 9105TIP3    H248807   1.260   1.700  13.681  0.3927 -0.0973  2.0163
 9106TIP3   OH248808   6.527   2.116  15.574  0.1955  0.0313  0.0685
 9106TIP3    H148809   6.494   2.104  15.485 -1.3877 -0.7561  0.7333
 9106TIP3    H248810   6.622   2.105  15.566  0.4201  2.4610 -1.9260
 9107TIP3   OH248811   2.949   3.038   5.039 -0.4174  0.2567 -0.2976
 9107TIP3    H148812   2.963   2.973   4.970 -0.1009  0.9798 -0.9193
 9107TIP3    H248813   2.905   2.989   5.109  0.5631 -0.8453 -0.4076
 9108TIP3   OH248814   3.924   4.411  16.612 -0.1452  0.3659  0.2510
 9108TIP3    H148815   3.977   4.338  16.644  1.7492  2.0940  1.2816
 9108TIP3    H248816   3.896   4.384  16.525  1.7832 -0.9804 -0.0216
 9109TIP3   OH248817   2.336   2.081   1.630  0.6017 -0.0802  0.4362
 9109TIP3    H148818   2.350   2.030   1.551  0.6744  0.1756  0.2836
 9109TIP3    H248819   2.371   2.167   1.610  0.5233  0.0175  0.7095
 9110TIP3   OH248820   4.832   4.684  14.261  0.2209 -0.5043 -0.7341
 9110TIP3    H148821   4.880   4.613  14.219 -0.3398 -1.1830 -0.2538
 9110TIP3    H248822   4.871   4.764  14.226  0.4805 -1.0481 -1.7060
 9111TIP3   OH248823   5.156   6.501   5.593  0.0095 -0.1461 -0.3542
 9111TIP3    H148824   5.246   6.507   5.625  0.0676 -1.8240 -0.1152
 9111TIP3    H248825   5.104   6.489   5.672 -0.6455  2.2877 -0.3402
 9112TIP3   OH248826   0.519   0.530   0.323  0.3471 -0.0561  0.1014
 9112TIP3    H148827   0.485   0.449   0.360 -0.9735  1.0996  1.5905
 9112TIP3    H248828   0.614   0.526   0.340  0.0956 -0.6260  1.5490
 9113TIP3   OH248829   4.305   0.972  12.530 -0.0050 -0.0288 -0.1720
 9113TIP3    H148830   4.361   1.043  12.497  1.6669 -0.3917  1.6986
 9113TIP3    H248831   4.217   0.997  12.503  0.6084  2.3959 -0.2082
 9114TIP3   OH248832   3.934   3.607   2.356 -0.6394 -0.2358 -0.0111
 9114TIP3    H148833   3.946   3.651   2.272  2.2635 -1.8090 -0.5606
 9114TIP3    H248834   3.904   3.519   2.333  0.2068 -0.6908  0.5794
 9115TIP3   OH248835   6.751   3.559  15.927  0.0125 -0.2616 -0.0908
 9115TIP3    H148836   6.791   3.560  15.840  1.1723  1.0421  0.4137
 9115TIP3    H248837   6.684   3.627  15.924  1.0800  0.8510  0.4494
 9116TIP3   OH248838   4.431   0.175  14.721 -0.2040 -0.4527  0.1897
 9116TIP3    H148839   4.351   0.146  14.678 -1.1277  0.5340  1.1998
 9116TIP3    H248840   4.413   0.264  14.749  1.2982 -0.1682  0.3406
 9117TIP3   OH248841   0.276   4.355   6.111  0.0127  0.0774  0.5344
 9117TIP3    H148842   0.251   4.442   6.143  0.9317  0.8513 -0.7515
 9117TIP3    H248843   0.228   4.294   6.167  0.1176  1.3823  2.1268
 9118TIP3   OH248844   6.619   0.074   0.757 -0.1454  0.1214  0.3579
 9118TIP3    H148845   6.621   0.170   0.761 -1.4941  0.2234 -0.7331
 9118TIP3    H248846   6.688   0.051   0.694 -0.8658  0.4876 -0.5847
 9119TIP3   OH248847   0.885   0.984  13.979 -0.8377 -0.0514  0.2503
 9119TIP3    H148848   0.926   1.070  13.994 -1.2643  0.6217 -2.0720
 9119TIP3    H248849   0.954   0.932  13.937 -0.9926 -0.4458  0.4742
 9120TIP3   OH248850   4.823   6.754   1.727  0.2339 -0.4087 -0.4811
 9120TIP3    H148851   4.896   6.804   1.763  0.0187  0.4433 -1.1973
 9120TIP3    H248852   4.748   6.776   1.782  0.2128 -0.1908 -0.5961
 9121TIP3   OH248853   3.670   3.918   4.932  0.3945 -0.0862 -0.6121
 9121TIP3    H148854   3.640   3.848   4.874 -0.7171 -0.2373  0.1029
 9121TIP3    H248855   3.610   3.991   4.913  1.1797  0.4915 -0.9390
 9122TIP3   OH248856   2.175   4.504   3.253 -0.0550  0.0333  0.2675
 9122TIP3    H148857   2.142   4.498   3.343 -0.2633 -0.6103  0.1526
 9122TIP3    H248858   2.096   4.507   3.199  0.0704 -0.5060  0.0518
 9123TIP3   OH248859   1.586   3.378   1.174 -0.1699  0.2089  0.3136
 9123TIP3    H148860   1.588   3.419   1.088  1.5062 -0.7507 -0.1425
 9123TIP3    H248861   1.541   3.295   1.161  1.8797 -0.9005 -0.1514
 9124TIP3   OH248862   2.129   3.173  15.085 -0.8957 -0.1640  0.0454
 9124TIP3    H148863   2.072   3.096  15.084 -0.6861 -0.3584 -1.9331
 9124TIP3    H248864   2.131   3.201  14.993  1.0121  0.7174  0.3174
 9125TIP3   OH248865   3.691   5.957  17.338  0.0624  0.2571  0.4400
 9125TIP3    H148866   3.719   5.941  17.248 -1.2275 -1.4405  0.3022
 9125TIP3    H248867   3.613   6.013  17.330  0.4066  0.7684  0.5663
 9126TIP3   OH248868   5.764   3.385   3.855 -0.5219 -0.3046  0.9011
 9126TIP3    H148869   5.833   3.363   3.917 -0.0876 -0.9543  0.2166
 9126TIP3    H248870   5.743   3.477   3.872  0.9422  0.0807  0.7294
 9127TIP3   OH248871   3.456   4.591   3.392  0.1410  0.1713 -0.2689
 9127TIP3    H148872   3.387   4.528   3.373  0.4312 -0.3522  0.3737
 9127TIP3    H248873   3.467   4.587   3.487 -0.8213  2.2145 -0.0077
 9128TIP3   OH248874   4.849   5.397   3.638  0.5252 -0.0086 -0.3793
 9128TIP3    H148875   4.873   5.320   3.689  0.3340 -0.0444 -0.3425
 9128TIP3    H248876   4.920   5.407   3.574  0.7326  0.0012 -0.1479
 9129TIP3   OH248877   6.436   2.241  17.093 -0.4830 -0.1961 -1.0334
 9129TIP3    H148878   6.511   2.195  17.056  1.4079  0.1399  2.0292
 9129TIP3    H248879   6.362   2.183  17.076  1.1446 -2.4780 -0.7507
 9130TIP3   OH248880   2.793   3.660   1.623 -0.1362  0.3447 -0.2570
 9130TIP3    H148881   2.784   3.580   1.571 -3.5888  0.3200  0.1167
 9130TIP3    H248882   2.856   3.638   1.691 -0.0877 -1.6435 -0.8907
 9131TIP3   OH248883   3.273   5.351   0.920  0.6311  0.0637  0.0120
 9131TIP3    H148884   3.254   5.439   0.953 -0.5352 -0.0350 -0.3805
 9131TIP3    H248885   3.350   5.362   0.865  1.2680  0.6126  0.9741
 9132TIP3   OH248886   6.797   5.240  14.794 -0.0002 -0.3408  0.3979
 9132TIP3    H148887   6.775   5.302  14.863 -0.1433 -0.6496  0.6323
 9132TIP3    H248888   6.734   5.169  14.805  0.3237 -0.6486  0.2919
 9133TIP3   OH248889   4.584   3.542   3.987  0.4561 -0.5841 -0.1228
 9133TIP3    H148890   4.543   3.617   4.031  1.8116  0.2348 -0.2006
 9133TIP3    H248891   4.538   3.536   3.904  0.2208  0.0762 -0.0495
 9134TIP3   OH248892   5.175   3.930  11.554 -0.0636 -0.0462 -1.1266
 9134TIP3    H148893   5.101   3.989  11.572  0.1107 -0.2349  0.2795
 9134TIP3    H248894   5.144   3.875  11.481 -2.1969 -1.6051  0.8065
 9135TIP3   OH248895   3.607   3.383  12.784  0.0379  0.2974  0.2310
 9135TIP3    H148896   3.554   3.415  12.858  0.9879  0.0486  1.0387
 9135TIP3    H248897   3.585   3.441  12.712 -1.0019  0.4798  0.6688
 9136TIP3   OH248898   2.617   2.846   6.119  0.1182  0.0036 -0.7236
 9136TIP3    H148899   2.632   2.852   6.214  1.3550  1.1951 -0.9617
 9136TIP3    H248900   2.523   2.831   6.110  0.0047 -0.2870  0.6867
 9137TIP3   OH248901   0.939   3.484  15.887  0.1201 -0.1605  0.1614
 9137TIP3    H148902   0.881   3.501  15.962  0.7867  0.1915  0.6077
 9137TIP3    H248903   0.892   3.419  15.834  0.7941 -2.4613  2.2218
 9138TIP3   OH248904   3.264   6.098  16.165 -0.7732  0.5643 -0.5813
 9138TIP3    H148905   3.313   6.041  16.106 -0.3179 -2.9769  2.7747
 9138TIP3    H248906   3.329   6.160  16.198  0.1761 -0.5278 -0.3139
 9139TIP3   OH248907   2.947   5.935   3.569  0.2280 -0.0473 -0.7688
 9139TIP3    H148908   2.961   5.857   3.515 -2.4555 -1.9712  1.0762
 9139TIP3    H248909   2.875   5.981   3.526 -0.9148 -0.7998  0.2787
 9140TIP3   OH248910   2.926   1.588  11.902 -0.4156 -0.3342 -0.6957
 9140TIP3    H148911   2.831   1.591  11.917 -0.3965  0.4081 -0.6844
 9140TIP3    H248912   2.962   1.557  11.985 -0.4443  2.0914  0.2988
 9141TIP3   OH248913   3.811   0.045   1.455 -0.4397  0.1549 -0.1974
 9141TIP3    H148914   3.845   0.009   1.373 -0.6326  0.4825 -0.4245
 9141TIP3    H248915   3.716   0.048   1.441 -0.3285  2.2027 -0.7855
 9142TIP3   OH248916   1.668   6.775  16.505 -0.2351 -0.0067  0.2012
 9142TIP3    H148917   1.664   6.680  16.490  0.9904 -0.3042  1.5489
 9142TIP3    H248918   1.758   6.799  16.479 -0.8248  0.9852 -1.0430
 9143TIP3   OH248919   0.066   2.432   5.632 -0.4968  0.0902 -0.3025
 9143TIP3    H148920   0.050   2.485   5.554 -0.1363  0.0659 -0.3922
 9143TIP3    H248921   0.160   2.415   5.631 -0.3812  0.6406  0.4926
 9144TIP3   OH248922   0.389   0.998  12.079  0.2489 -0.1095 -0.3814
 9144TIP3    H148923   0.457   1.008  12.146 -0.7537 -0.7926  0.7860
 9144TIP3    H248924   0.366   1.088  12.054  0.8989  0.1441 -0.0804
 9145TIP3   OH248925   0.125   2.329  11.348 -0.3532  0.2158 -0.2850
 9145TIP3    H148926   0.111   2.399  11.412  1.4920 -0.0873  0.5092
 9145TIP3    H248927   0.218   2.308  11.356 -0.8138 -2.2157 -0.6417
 9146TIP3   OH248928   1.250   5.861   2.050  0.2767  0.4691 -0.5737
 9146TIP3    H148929   1.230   5.953   2.036  0.2624  0.5742  0.0923
 9146TIP3    H248930   1.346   5.856   2.043  0.6299  1.1187  2.3599
 9147TIP3   OH248931   2.069   5.443  16.304  0.1333  0.0395  0.1870
 9147TIP3    H148932   2.039   5.466  16.392 -0.8461 -0.2790 -0.0514
 9147TIP3    H248933   2.094   5.527  16.264 -2.2870  0.6119 -0.2667
 9148TIP3   OH248934   5.270   1.955  11.852 -0.2870  0.3190 -0.1280
 9148TIP3    H148935   5.268   2.022  11.920  0.0812  0.5286 -0.3192
 9148TIP3    H248936   5.179   1.926  11.844  0.0507 -1.9874  2.6572
 9149TIP3   OH248937   5.555   0.553  16.606  0.2819  0.6767  0.2606
 9149TIP3    H148938   5.618   0.576  16.538 -1.1870  0.1170 -1.3888
 9149TIP3    H248939   5.475   0.601  16.581 -0.2775  0.4988  1.6332
 9150TIP3   OH248940   4.937   1.272  16.410  0.1990  0.3166 -0.2442
 9150TIP3    H148941   4.865   1.317  16.455  0.6824  0.1858  0.6872
 9150TIP3    H248942   4.905   1.260  16.321 -0.4114  1.4468 -0.2028
 9151TIP3   OH248943   3.307   3.926   5.889  0.1317 -0.2907  0.0822
 9151TIP3    H148944   3.280   3.896   5.975  1.3581 -1.1797  0.1680
 9151TIP3    H248945   3.253   3.875   5.828 -1.2202  0.8140  0.2888
 9152TIP3   OH248946   1.084   3.192  15.307  0.4988 -0.4665 -0.3476
 9152TIP3    H148947   1.167   3.196  15.355 -0.2539 -1.2262  1.1092
 9152TIP3    H248948   1.049   3.105  15.327  0.0114 -0.7131 -2.1126
 9153TIP3   OH248949   4.232   3.902   5.623  0.1464  0.5621  0.0115
 9153TIP3    H148950   4.274   3.985   5.601  1.2880 -0.3230 -1.4091
 9153TIP3    H248951   4.169   3.888   5.552 -0.2390  0.3526  0.3953
 9154TIP3   OH248952   0.986   0.388  11.816 -0.5904 -0.1185  0.5951
 9154TIP3    H148953   1.010   0.458  11.755  2.0464 -1.6349 -0.2656
 9154TIP3    H248954   0.905   0.419  11.856 -0.2827  2.7957 -0.7147
 9155TIP3   OH248955   2.007   5.960   4.093 -0.5887  0.8155  0.8691
 9155TIP3    H148956   2.019   6.050   4.063 -0.0652  0.9208  1.3747
 9155TIP3    H248957   1.921   5.961   4.136 -0.9506  0.8697  0.1479
 9156TIP3   OH248958   0.174   5.300  11.767  0.2737 -0.3135  0.1816
 9156TIP3    H148959   0.107   5.232  11.770 -0.6093  0.4822  4.1368
 9156TIP3    H248960   0.147   5.357  11.696 -0.5437 -2.5009 -1.3793
 9157TIP3   OH248961   1.961   6.592  14.609  0.0719  0.4694  0.4208
 9157TIP3    H148962   1.879   6.642  14.606  0.0673  0.4731  0.6200
 9157TIP3    H248963   2.008   6.620  14.530 -0.3895  0.0057 -0.0342
 9158TIP3   OH248964   5.122   6.269   2.407  0.3162  0.0282 -0.2628
 9158TIP3    H148965   5.121   6.216   2.327  0.2064  0.8903 -0.8461
 9158TIP3    H248966   5.063   6.342   2.388  1.4340  1.0424  0.0442
 9159TIP3   OH248967   2.086   1.255   1.904  0.1830 -0.4316  0.2750
 9159TIP3    H148968   2.180   1.274   1.909  0.0189  0.9071 -0.9742
 9159TIP3    H248969   2.076   1.172   1.951  2.2585 -1.5279 -1.0626
 9160TIP3   OH248970   1.750   6.190  15.836  0.5983  0.3264 -0.0304
 9160TIP3    H148971   1.756   6.158  15.926  0.1252  2.1574  0.6993
 9160TIP3    H248972   1.782   6.118  15.783 -0.8413 -1.4941  1.4573
 9161TIP3   OH248973   4.540   4.128   3.285  0.2107  0.2233  0.3572
 9161TIP3    H148974   4.468   4.189   3.269  0.5381  0.9455  1.5271
 9161TIP3    H248975   4.597   4.137   3.208 -0.8085 -0.1879 -0.4680
 9162TIP3   OH248976   5.635   5.791  16.366 -0.3907 -0.0788  0.2611
 9162TIP3    H148977   5.552   5.797  16.319 -0.0873  0.3789 -0.2181
 9162TIP3    H248978   5.665   5.882  16.374  1.9115 -0.4024 -2.8841
 9163TIP3   OH248979   1.349   2.953  15.790  0.7562 -0.0355 -0.0458
 9163TIP3    H148980   1.374   2.862  15.777  0.2368 -0.0218 -1.2147
 9163TIP3    H248981   1.405   3.003  15.730 -0.5319  0.1949 -1.0771
 9164TIP3   OH248982   0.922   1.085  11.718  0.2993  0.2692 -0.5767
 9164TIP3    H148983   0.983   1.153  11.745  0.9506  0.1772 -1.7299
 9164TIP3    H248984   0.869   1.068  11.796  1.0231  1.1194  0.1313
 9165TIP3   OH248985   6.409   3.147   6.330 -0.2265 -0.6246 -0.4310
 9165TIP3    H148986   6.481   3.154   6.392 -0.4512 -2.6328  0.1176
 9165TIP3    H248987   6.332   3.173   6.381 -0.0259  0.7935 -0.8071
 9166TIP3   OH248988   6.044   4.279  14.142 -0.1312 -0.3781  0.9355
 9166TIP3    H148989   6.106   4.223  14.188  0.5997  0.9822  1.6806
 9166TIP3    H248990   6.044   4.360  14.193 -0.3436  0.6814 -0.6993
 9167TIP3   OH248991   2.505   0.880  12.919 -0.1399  0.0584  0.2771
 9167TIP3    H148992   2.435   0.941  12.942  1.0142  1.9008 -0.7842
 9167TIP3    H248993   2.503   0.876  12.823  1.4414  0.5252  0.1830
 9168TIP3   OH248994   4.934   4.694  10.994 -0.1898 -0.1895  0.0534
 9168TIP3    H148995   4.867   4.656  10.937 -1.0995  0.2697  0.8000
 9168TIP3    H248996   5.004   4.628  10.995 -1.8923 -2.0798  1.6452
 9169TIP3   OH248997   6.438   0.830  13.298  0.3322 -0.1925  0.7873
 9169TIP3    H148998   6.524   0.805  13.265 -0.2142 -0.0102 -0.8780
 9169TIP3    H248999   6.436   0.926  13.290  0.6898 -0.0001  2.7014
 9170TIP3   OH249000   0.242   1.487  15.432 -0.4527 -0.0274  0.7340
 9170TIP3    H149001   0.196   1.408  15.459 -0.3365 -0.8771 -1.3643
 9170TIP3    H249002   0.245   1.541  15.510 -1.1915 -1.7801  2.0333
 9171TIP3   OH249003   2.167   3.302   5.489 -0.1068  0.1355  0.5279
 9171TIP3    H149004   2.172   3.321   5.582  0.9933  2.9886 -0.0189
 9171TIP3    H249005   2.258   3.291   5.461 -0.4438 -1.1869 -0.1735
 9172TIP3   OH249006   5.535   4.660  11.475 -0.0282  0.4753 -0.0277
 9172TIP3    H149007   5.608   4.628  11.528 -0.6667 -0.3738  0.3832
 9172TIP3    H249008   5.574   4.686  11.392  0.6348 -0.8005 -0.1370
 9173TIP3   OH249009   3.498   3.514   5.362 -0.3743  0.0949  0.3781
 9173TIP3    H149010   3.452   3.588   5.402 -0.3951 -0.4233  1.3438
 9173TIP3    H249011   3.585   3.516   5.401 -1.5060 -2.6689  3.5511
 9174TIP3   OH249012   2.176   6.680  13.360  0.3055 -0.6997 -0.7442
 9174TIP3    H149013   2.129   6.729  13.427  1.2480  1.1558 -1.3723
 9174TIP3    H249014   2.228   6.616  13.410  0.2893  0.0258  0.2418
 9175TIP3   OH249015   0.432   3.158   4.674 -0.3146 -0.6348  0.6656
 9175TIP3    H149016   0.342   3.180   4.647 -0.2991 -1.6693 -0.2971
 9175TIP3    H249017   0.468   3.110   4.600  1.7007  1.3701  0.2483
 9176TIP3   OH249018   6.474   3.468   2.830  0.2868  0.1734 -0.2471
 9176TIP3    H149019   6.492   3.380   2.865  0.7280  0.4370  0.2005
 9176TIP3    H249020   6.475   3.456   2.735 -0.4413 -0.4577 -0.1877
 9177TIP3   OH249021   2.880   1.848   1.859  0.1814  0.0065  0.6178
 9177TIP3    H149022   2.956   1.802   1.821 -0.3157 -0.8567  0.6406
 9177TIP3    H249023   2.845   1.786   1.923 -0.1771  0.6558  1.0553
 9178TIP3   OH249024   4.370   5.070   4.552  0.1613 -0.2299 -0.1104
 9178TIP3    H149025   4.278   5.068   4.528  0.3093  0.4922 -0.8047
 9178TIP3    H249026   4.387   5.161   4.576  1.2742  0.2881 -2.5281
 9179TIP3   OH249027   1.000   4.932   5.704  0.1947 -0.3284 -0.1154
 9179TIP3    H149028   1.051   4.852   5.700  2.0224  0.7794  0.1555
 9179TIP3    H249029   1.055   4.993   5.753 -0.6994  1.4182 -1.1988
 9180TIP3   OH249030   0.243   2.380   3.961  0.0760  0.3199  0.2507
 9180TIP3    H149031   0.226   2.311   4.025  2.3097 -0.2737  0.2927
 9180TIP3    H249032   0.156   2.404   3.929 -0.9812 -0.5876  2.2012
 9181TIP3   OH249033   5.238   3.872   5.094  0.0849 -0.4542  0.3446
 9181TIP3    H149034   5.172   3.876   5.163 -1.1352 -2.6787 -0.5807
 9181TIP3    H249035   5.244   3.779   5.071  0.3203  0.1662 -2.6168
 9182TIP3   OH249036   3.376   1.547   3.291  0.1363 -0.8688  0.2619
 9182TIP3    H149037   3.413   1.619   3.240  0.9846 -1.0523  0.6029
 9182TIP3    H249038   3.448   1.517   3.346 -0.3885 -1.5623  0.5858
 9183TIP3   OH249039   5.243   6.342  13.620  0.3900 -0.6561 -0.1043
 9183TIP3    H149040   5.325   6.298  13.602  1.3369  0.4843  1.1458
 9183TIP3    H249041   5.257   6.432  13.590  0.1144 -0.1109  1.3164
 9184TIP3   OH249042   3.919   3.413   5.164  0.2553 -0.3988 -0.2890
 9184TIP3    H149043   3.923   3.503   5.197 -2.2318  0.2638 -1.5005
 9184TIP3    H249044   3.973   3.362   5.224 -0.6073  1.4206  2.1789
 9185TIP3   OH249045   0.273   5.002   1.313  0.3865  0.0299 -0.2303
 9185TIP3    H149046   0.198   5.035   1.262  0.0471  0.7678  0.7118
 9185TIP3    H249047   0.237   4.928   1.362  0.6018 -0.4031 -0.7176
 9186TIP3   OH249048   3.484   6.038  12.781 -0.6578  0.5216 -0.0327
 9186TIP3    H149049   3.438   6.028  12.698  1.8189 -2.9515 -1.2418
 9186TIP3    H249050   3.487   5.949  12.816  3.1141  0.9120  0.9740
 9187TIP3   OH249051   1.389   2.335  13.222  0.0352  0.4494  0.5518
 9187TIP3    H149052   1.385   2.381  13.306 -0.7441  1.1953  0.1240
 9187TIP3    H249053   1.367   2.402  13.157 -0.0319 -0.2775 -0.1903
 9188TIP3   OH249054   2.155   1.180  16.356 -0.5135 -0.0974  0.1370
 9188TIP3    H149055   2.101   1.102  16.366  0.3187 -0.7005  0.0383
 9188TIP3    H249056   2.120   1.225  16.280 -0.5969 -0.7200 -0.1961
 9189TIP3   OH249057   3.183   5.097   1.925 -0.2607 -0.1771 -0.0598
 9189TIP3    H149058   3.089   5.099   1.946 -0.0542 -0.7051  1.0089
 9189TIP3    H249059   3.190   5.031   1.856 -0.6615 -0.2145 -0.0717
 9190TIP3   OH249060   4.031   6.420   3.372  0.1032 -0.4948 -0.3908
 9190TIP3    H149061   4.005   6.479   3.301 -0.2067 -1.8431 -1.4228
 9190TIP3    H249062   4.122   6.443   3.390 -0.7240  2.1285  1.1229
 9191TIP3   OH249063   0.615   0.038   1.387 -0.4299  0.1250 -0.5760
 9191TIP3    H149064   0.660   0.076   1.312 -1.8152 -1.9314 -2.5691
 9191TIP3    H249065   0.522   0.041   1.364 -1.0116  0.4255  1.5721
 9192TIP3   OH249066   5.098   3.014   3.070  0.5971  0.1024 -0.5554
 9192TIP3    H149067   5.082   3.104   3.098 -1.3319 -0.7224  1.2600
 9192TIP3    H249068   5.013   2.983   3.039  1.4023 -0.9006 -1.8906
 9193TIP3   OH249069   3.620   2.732   2.132  0.1785  0.3777  0.2330
 9193TIP3    H149070   3.530   2.699   2.125 -0.1974  1.6255 -1.7074
 9193TIP3    H249071   3.610   2.825   2.148  1.1085  0.5625 -0.2109
 9194TIP3   OH249072   4.685   3.575   2.708 -0.5772 -0.5463  0.2123
 9194TIP3    H149073   4.760   3.594   2.765 -2.0031 -0.5831  2.2088
 9194TIP3    H249074   4.647   3.661   2.689 -3.3086 -0.6140  4.0383
 9195TIP3   OH249075   6.791   4.720  16.492 -0.0696  0.2640  0.1264
 9195TIP3    H149076   6.805   4.649  16.555  0.6342 -0.9969 -1.3918
 9195TIP3    H249077   6.827   4.797  16.535 -0.8759 -0.2567  1.8303
 9196TIP3   OH249078   1.537   2.115   5.640  0.2147 -0.0538  0.2600
 9196TIP3    H149079   1.517   2.201   5.676  0.5245 -0.0898  0.5176
 9196TIP3    H249080   1.479   2.055   5.687 -3.0548  0.4404 -2.6819
 9197TIP3   OH249081   2.977   0.245   5.490  0.5954  0.3523  0.5542
 9197TIP3    H149082   2.984   0.192   5.569 -0.0287 -1.8063 -0.7610
 9197TIP3    H249083   2.894   0.292   5.500  0.2884 -0.2647  0.9684
 9198TIP3   OH249084   1.923   3.803   2.119 -0.2462  0.0849  0.5317
 9198TIP3    H149085   1.971   3.846   2.190 -0.3402  2.8564 -0.9361
 9198TIP3    H249086   1.914   3.870   2.052 -4.8238 -0.6814  0.0117
 9199TIP3   OH249087   0.160   3.590   1.059 -0.2434  0.0412 -0.1803
 9199TIP3    H149088   0.099   3.651   1.101 -0.2740  0.8228 -1.3095
 9199TIP3    H249089   0.104   3.523   1.020 -0.4234  0.7999 -1.2818
 9200TIP3   OH249090   4.718   3.200   6.425 -0.8972 -0.0481 -0.0379
 9200TIP3    H149091   4.667   3.247   6.492  0.7818 -0.9818  2.0280
 9200TIP3    H249092   4.781   3.264   6.393 -0.4510 -0.0999  0.7134
 9201TIP3   OH249093   4.346   1.906   5.552  0.1141 -0.3743 -0.3812
 9201TIP3    H149094   4.338   1.994   5.514 -0.4615  1.0934  2.7905
 9201TIP3    H249095   4.437   1.881   5.536  0.2298  0.6578 -1.5563
 9202TIP3   OH249096   5.161   5.150  10.922  0.4182  0.5772  0.3775
 9202TIP3    H149097   5.143   5.177  10.832  0.3583  1.8481  0.7535
 9202TIP3    H249098   5.077   5.118  10.955  0.0929  1.4645  0.4308
 9203TIP3   OH249099   4.968   0.592   5.552  0.5174  0.0254 -0.4194
 9203TIP3    H149100   5.015   0.565   5.473  0.8911  0.0135 -0.1931
 9203TIP3    H249101   4.961   0.688   5.544  0.5443  0.0229 -0.4739
 9204TIP3   OH249102   4.464   3.001   3.855 -0.0001 -0.4281 -0.6832
 9204TIP3    H149103   4.387   3.018   3.910  0.7282 -2.0364  0.9220
 9204TIP3    H249104   4.513   3.084   3.857 -1.1293  0.2606 -0.8104
 9205TIP3   OH249105   1.616   0.400  10.946 -0.1117  0.0429 -0.4062
 9205TIP3    H149106   1.671   0.417  10.869 -0.1698  2.1273 -0.0618
 9205TIP3    H249107   1.527   0.399  10.911 -0.2271  1.9994 -0.3075
 9206TIP3   OH249108   0.424   0.512   1.915  0.0309 -0.4297 -0.6242
 9206TIP3    H149109   0.474   0.584   1.876  0.3377 -0.6220 -0.5945
 9206TIP3    H249110   0.448   0.514   2.008  2.2866 -2.3197 -1.0649
 9207TIP3   OH249111   3.264   5.538  13.709 -0.0370 -0.0521 -0.5061
 9207TIP3    H149112   3.286   5.471  13.773 -1.3190 -0.1749 -0.1608
 9207TIP3    H249113   3.345   5.552  13.659  0.9598 -0.0324  1.0496
 9208TIP3   OH249114   6.460   6.490   1.133 -0.0393  0.3231  0.3515
 9208TIP3    H149115   6.528   6.555   1.150  0.5044 -0.6775  2.2764
 9208TIP3    H249116   6.428   6.464   1.220 -0.5351 -1.6454 -0.3499
 9209TIP3   OH249117   1.962   4.579  16.355 -0.1902 -0.0654  0.3492
 9209TIP3    H149118   1.896   4.511  16.351 -0.1354 -0.1814  1.2482
 9209TIP3    H249119   2.045   4.532  16.354 -0.0291  0.1162 -2.0471
 9210TIP3   OH249120   0.372   1.496   3.525 -0.0869 -0.2562  0.1491
 9210TIP3    H149121   0.289   1.544   3.514  0.4523  0.5294 -0.6616
 9210TIP3    H249122   0.415   1.538   3.599 -0.7244 -1.1529  1.0568
 9211TIP3   OH249123   4.861   2.596   3.425 -0.0243 -0.2200  0.3099
 9211TIP3    H149124   4.860   2.633   3.337  2.2540  0.9824  0.7202
 9211TIP3    H249125   4.769   2.591   3.450 -0.7265 -0.5517 -2.0961
 9212TIP3   OH249126   0.325   1.597  15.188  0.4011  0.4338 -0.3750
 9212TIP3    H149127   0.405   1.627  15.231 -0.0523  2.9338 -1.1039
 9212TIP3    H249128   0.272   1.560  15.259  1.8832 -0.6012  0.2295
 9213TIP3   OH249129   0.785   1.889   3.454 -0.9181 -0.4210 -0.7689
 9213TIP3    H149130   0.767   1.797   3.471 -1.6932  0.2075  2.4045
 9213TIP3    H249131   0.705   1.934   3.480 -0.0969  1.2485 -1.0066
 9214TIP3   OH249132   5.025   6.452   3.716 -0.5781  0.3664  0.0036
 9214TIP3    H149133   4.953   6.389   3.712 -1.9075  1.8159  0.3146
 9214TIP3    H249134   5.064   6.449   3.629 -1.9578  0.6067 -0.6481
 9215TIP3   OH249135   5.720   0.519   4.906 -0.1789 -0.1808 -0.6424
 9215TIP3    H149136   5.647   0.463   4.930  1.4167 -1.5255  1.5153
 9215TIP3    H249137   5.782   0.460   4.862  1.7999 -0.4203  2.2191
 9216TIP3   OH249138   0.732   0.569   3.906  0.1308 -0.6313  0.5064
 9216TIP3    H149139   0.746   0.658   3.940 -1.4451  0.4898 -1.5660
 9216TIP3    H249140   0.817   0.543   3.871  0.4783  0.2670  0.6459
 9217TIP3   OH249141   1.591   5.262   1.971  0.2880 -0.2058 -0.4050
 9217TIP3    H149142   1.602   5.315   2.050 -0.4418 -1.7306  0.7699
 9217TIP3    H249143   1.680   5.244   1.940  0.5589  0.8696 -0.2666
 9218TIP3   OH249144   4.261   6.769   4.037 -0.1881 -0.6946  0.4845
 9218TIP3    H149145   4.170   6.800   4.034  0.2260  0.5231 -1.0984
 9218TIP3    H249146   4.256   6.684   4.081 -1.9648 -0.2614  1.2011
 9219TIP3   OH249147   2.775   2.675  16.565 -0.1730 -0.3068  0.1792
 9219TIP3    H149148   2.686   2.661  16.533  0.9481 -0.0478 -3.6487
 9219TIP3    H249149   2.830   2.626  16.504  2.4055  0.9568  1.3273
 9220TIP3   OH249150   6.021   6.461   1.182 -0.1175  0.3521  0.3784
 9220TIP3    H149151   5.932   6.457   1.149 -0.2164  0.8572  0.5798
 9220TIP3    H249152   6.075   6.435   1.108 -0.5129 -1.6086  0.7215
 9221TIP3   OH249153   2.312   5.665   4.296  0.3843 -0.1543 -0.5300
 9221TIP3    H149154   2.381   5.726   4.323  2.6887 -2.5916 -0.4608
 9221TIP3    H249155   2.234   5.696   4.341  2.0275  1.2254  1.6125
 9222TIP3   OH249156   6.681   4.666  13.170  0.0599  0.1335  0.0286
 9222TIP3    H149157   6.607   4.684  13.228  0.6114  0.1644  0.7342
 9222TIP3    H249158   6.741   4.738  13.185  0.3817 -0.0636 -0.3016
 9223TIP3   OH249159   6.204   4.423  12.327 -0.0217 -0.1390  0.7755
 9223TIP3    H149160   6.153   4.350  12.364  1.5356 -1.3260  0.7190
 9223TIP3    H249161   6.233   4.472  12.404 -0.3737 -0.0840  0.8729
 9224TIP3   OH249162   5.835   6.229   6.049  0.4028 -0.3846  0.0122
 9224TIP3    H149163   5.849   6.206   6.141  1.0449 -1.3370 -0.3084
 9224TIP3    H249164   5.823   6.324   6.050  2.5381 -0.0654  0.8478
 9225TIP3   OH249165   2.839   2.078  16.927  0.3831 -0.3087  0.4898
 9225TIP3    H149166   2.751   2.046  16.945 -0.2929  0.7042 -0.8199
 9225TIP3    H249167   2.874   2.018  16.861  0.5164 -0.4796  0.7172
 9226TIP3   OH249168   3.114   4.658  13.129  0.6174  0.6834 -0.3466
 9226TIP3    H149169   3.068   4.697  13.054 -0.2459 -0.5643 -0.4995
 9226TIP3    H249170   3.170   4.591  13.091 -0.7086 -0.7913  0.1533
 9227TIP3   OH249171   2.940   5.571   1.509  0.7857 -0.1392  0.0261
 9227TIP3    H149172   2.911   5.660   1.531  1.8350  0.1475  0.3259
 9227TIP3    H249173   3.026   5.584   1.469  1.3517 -1.0843  0.8913
 9228TIP3   OH249174   6.649   5.536   2.556 -0.3453  0.0806  0.4299
 9228TIP3    H149175   6.582   5.478   2.519  0.0156 -0.2397  0.2713
 9228TIP3    H249176   6.677   5.492   2.636 -1.0991  0.7566  1.0844
 9229TIP3   OH249177   4.285   6.399   2.269 -0.2339  0.6190  0.3192
 9229TIP3    H149178   4.333   6.461   2.215  0.1277 -0.4329 -0.6011
 9229TIP3    H249179   4.297   6.431   2.359  2.3411  0.3237  0.1659
 9230TIP3   OH249180   1.280   2.549   0.006  0.7166 -0.0476  0.4842
 9230TIP3    H149181   1.320   2.582  -0.074 -0.9883 -1.6925 -1.1412
 9230TIP3    H249182   1.325   2.466   0.023  0.1672 -0.3690  0.4160
 9231TIP3   OH249183   0.794   5.906   5.191  0.1211  0.1074 -0.3935
 9231TIP3    H149184   0.712   5.857   5.190  1.1584 -1.7117 -0.4114
 9231TIP3    H249185   0.767   5.998   5.196 -1.9141 -0.3632 -1.6314
 9232TIP3   OH249186   4.950   4.889  13.373  0.0137 -0.2872  0.5317
 9232TIP3    H149187   4.906   4.851  13.296  0.0032 -0.8776  0.8266
 9232TIP3    H249188   5.034   4.919  13.340  1.0423 -2.7134  0.7462
 9233TIP3   OH249189   3.239   2.600   4.831  0.0048  0.6464  0.0448
 9233TIP3    H149190   3.207   2.672   4.886  0.9499  0.3138  1.0532
 9233TIP3    H249191   3.160   2.554   4.804 -0.5137  1.1821  0.6179
 9234TIP3   OH249192   0.869   0.683   5.379 -0.6519  0.4354  0.2786
 9234TIP3    H149193   0.904   0.595   5.395  0.1886  0.8179  0.6221
 9234TIP3    H249194   0.791   0.668   5.326  0.3782 -0.4183 -1.0823
 9235TIP3   OH249195   4.369   3.432   3.429 -0.1308  0.6570  0.4103
 9235TIP3    H149196   4.296   3.373   3.411  0.3106  0.2067  0.0608
 9235TIP3    H249197   4.403   3.455   3.343  1.1961 -0.4975  0.5801
 9236TIP3   OH249198   2.603   1.572  14.804  0.3559  0.4588 -0.2056
 9236TIP3    H149199   2.649   1.647  14.842  1.0283  0.7349 -1.5036
 9236TIP3    H249200   2.664   1.538  14.738 -0.9908  0.3643 -1.4390
 9237TIP3   OH249201   1.478   0.627  14.872 -0.5590 -0.1111  0.0040
 9237TIP3    H149202   1.508   0.543  14.836 -0.5216 -0.8454  1.6848
 9237TIP3    H249203   1.386   0.611  14.894 -0.8284  0.6091 -0.5460
 9238TIP3   OH249204   1.626   1.285   4.116 -0.1147 -0.4622 -0.4212
 9238TIP3    H149205   1.706   1.290   4.168 -1.4020 -0.4079  1.7025
 9238TIP3    H249206   1.614   1.192   4.099 -1.0221 -0.8059  1.7607
 9239TIP3   OH249207   1.905   3.365   2.811 -1.1055  0.2470 -0.0224
 9239TIP3    H149208   1.902   3.271   2.794  0.6261  0.5297 -2.3036
 9239TIP3    H249209   1.997   3.383   2.831 -1.6887  1.2644  2.0585
 9240TIP3   OH249210   4.784   2.237   0.336 -0.0102  0.0585  0.8203
 9240TIP3    H149211   4.844   2.251   0.263 -1.0991  0.3620 -0.0246
 9240TIP3    H249212   4.832   2.178   0.395  0.1633 -1.7633 -1.0506
 9241TIP3   OH249213   3.036   0.236  12.640 -0.4256 -0.1154  0.2013
 9241TIP3    H149214   3.104   0.267  12.699  0.3557  0.0034 -0.7341
 9241TIP3    H249215   3.014   0.312  12.587  0.2219 -0.6768 -0.9021
 9242TIP3   OH249216   5.150   4.750  12.016  0.2860 -0.3116 -0.2347
 9242TIP3    H149217   5.057   4.771  12.022 -0.0501 -1.8990  0.6557
 9242TIP3    H249218   5.169   4.704  12.098  1.1443 -2.5635 -1.5994
 9243TIP3   OH249219   0.000   6.510   2.561  0.9780 -0.2939  0.1321
 9243TIP3    H149220   0.039   6.556   2.636  1.4199  0.1590 -0.3690
 9243TIP3    H249221   0.064   6.520   2.491  0.7482 -1.0622 -0.1992
 9244TIP3   OH249222   2.253   1.910  16.848  0.2707  0.3242  0.5049
 9244TIP3    H149223   2.287   1.822  16.861 -0.8959 -0.0983  0.8451
 9244TIP3    H249224   2.268   1.929  16.755 -1.1398 -0.9991 -0.0352
 9245TIP3   OH249225   5.829   6.429  12.432  0.1574  0.1579  0.1032
 9245TIP3    H149226   5.776   6.366  12.384 -1.2839  0.3624  1.3552
 9245TIP3    H249227   5.821   6.402  12.524  1.6220  0.6546  0.3995
 9246TIP3   OH249228   1.228   4.543  11.128  0.3886 -0.1711 -0.3712
 9246TIP3    H149229   1.194   4.617  11.178  2.1222  1.3061 -1.2647
 9246TIP3    H249230   1.273   4.488  11.193  1.0070  0.7473 -0.0039
 9247TIP3   OH249231   6.013   0.182   2.170  0.2209 -0.0743 -0.1090
 9247TIP3    H149232   6.095   0.154   2.211  0.7234 -2.3805 -2.4127
 9247TIP3    H249233   6.037   0.257   2.116  0.9510 -0.8996 -0.9771
 9248TIP3   OH249234   4.017   5.260  11.048 -0.3029  0.2263 -0.2812
 9248TIP3    H149235   4.059   5.344  11.068  0.7425 -0.1534 -0.7909
 9248TIP3    H249236   3.977   5.272  10.962 -0.3750  0.2867 -0.2385
 9249TIP3   OH249237   5.439   6.199  12.325 -0.0737  0.2123 -0.0936
 9249TIP3    H149238   5.427   6.225  12.233 -0.5124  0.4351  0.0242
 9249TIP3    H249239   5.530   6.223  12.345  0.7228 -1.7716 -1.0952
 9250TIP3   OH249240   0.972   4.051  16.176 -0.1451 -0.3840  0.1427
 9250TIP3    H149241   0.978   4.129  16.120 -0.3015 -0.1051  0.5144
 9250TIP3    H249242   0.879   4.031  16.180 -0.3484  0.7637  1.8901
 9251TIP3   OH249243   3.793   2.051  13.775  0.0196 -0.0762  0.2088
 9251TIP3    H149244   3.706   2.058  13.814 -0.4542 -0.6264 -0.7109
 9251TIP3    H249245   3.805   2.134  13.729 -0.4454 -0.3919 -0.4948
 9252TIP3   OH249246   4.535   0.573   2.266 -0.0892  0.2646  0.6466
 9252TIP3    H149247   4.479   0.541   2.337 -0.6464  0.0136  0.1128
 9252TIP3    H249248   4.611   0.610   2.309 -0.7712  0.8117  1.4114
 9253TIP3   OH249249   2.895   3.620   6.178  0.3332  0.5492 -0.4128
 9253TIP3    H149250   2.986   3.646   6.194 -0.1310  2.7530 -1.0952
 9253TIP3    H249251   2.869   3.670   6.100 -1.3376 -0.3802 -0.4917
 9254TIP3   OH249252   0.358   0.887  14.496 -0.4621  0.2661  0.3039
 9254TIP3    H149253   0.414   0.951  14.539  0.3466 -0.5128  0.4541
 9254TIP3    H249254   0.276   0.933  14.480  0.0617  1.2936  0.4983
 9255TIP3   OH249255   3.015   3.244   4.367  0.1436 -0.0824  0.3172
 9255TIP3    H149256   3.027   3.225   4.274  0.3440  0.4297  0.2382
 9255TIP3    H249257   2.952   3.178   4.397  0.7309 -0.7887  0.0170
 9256TIP3   OH249258   2.465   1.255  16.205  0.2744  0.1080  0.0082
 9256TIP3    H149259   2.475   1.173  16.156 -1.7835  0.1213 -0.5167
 9256TIP3    H249260   2.490   1.232  16.295  1.3775 -0.6343 -0.4618
 9257TIP3   OH249261   2.241   3.006  12.915 -0.0346  0.6081  0.6109
 9257TIP3    H149262   2.235   2.977  12.824  0.0912  1.1413  0.4318
 9257TIP3    H249263   2.151   3.003  12.947  0.1185 -1.1879  0.9824
 9258TIP3   OH249264   5.800   0.632   3.486 -0.7320 -0.0559  0.0611
 9258TIP3    H149265   5.783   0.725   3.470 -0.5935 -0.1357 -0.5794
 9258TIP3    H249266   5.824   0.597   3.400  0.3534 -0.4396  0.5078
 9259TIP3   OH249267   2.647   2.667   1.801  0.2687  0.3575  0.5188
 9259TIP3    H149268   2.624   2.574   1.792  0.8547  0.0257  2.1304
 9259TIP3    H249269   2.730   2.676   1.755  1.9903 -0.7484  3.1589
 9260TIP3   OH249270   3.326   4.022   4.494 -0.0555 -0.1074 -0.3316
 9260TIP3    H149271   3.260   4.089   4.479  0.7249  0.8365  0.3682
 9260TIP3    H249272   3.390   4.063   4.552  0.9097 -1.1510 -0.6143
 9261TIP3   OH249273   1.815   6.738  12.525  0.4908 -0.0417 -0.3227
 9261TIP3    H149274   1.750   6.684  12.479  1.3942 -0.6370 -0.9458
 9261TIP3    H249275   1.863   6.676  12.581  0.7657  0.3159 -0.1547
 9262TIP3   OH249276   4.194   6.503   6.046  0.1392  0.3134  0.3796
 9262TIP3    H149277   4.111   6.508   6.093  0.3508  2.0917  0.5991
 9262TIP3    H249278   4.170   6.519   5.954  0.1122 -0.3002  0.2717
 9263TIP3   OH249279   5.273   0.589  16.249 -0.3130  0.5290  0.2009
 9263TIP3    H149280   5.335   0.657  16.275  0.5594  0.0101 -0.4624
 9263TIP3    H249281   5.287   0.519  16.313  0.4296  0.0535 -0.4672
 9264TIP3   OH249282   5.241   0.693  13.415  0.0078 -0.4622 -0.8575
 9264TIP3    H149283   5.334   0.697  13.395  0.1998  0.5441  0.0983
 9264TIP3    H249284   5.221   0.600  13.420  1.1835 -0.6990 -0.1826
 9265TIP3   OH249285   0.577   1.984  12.051  0.2736 -0.0388 -0.4151
 9265TIP3    H149286   0.554   1.905  12.002  0.1271 -1.1426  1.3553
 9265TIP3    H249287   0.577   2.054  11.985 -2.1555 -1.0257 -1.5690
 9266TIP3   OH249288   1.168   0.091  10.276  0.4327 -0.5072 -0.7003
 9266TIP3    H149289   1.215   0.168  10.245  1.8342 -1.2235 -0.4357
 9266TIP3    H249290   1.108   0.125  10.342 -1.7907  0.8908 -3.2066
 9267TIP3   OH249291   1.637   0.065   3.948  0.6468  0.5094 -0.0247
 9267TIP3    H149292   1.566   0.016   3.905  2.1211 -0.4941 -1.4454
 9267TIP3    H249293   1.713   0.007   3.942  1.6721  1.6584  1.2319
 9268TIP3   OH249294   3.410   0.462  17.341  0.3519 -0.6349  0.4703
 9268TIP3    H149295   3.441   0.375  17.365 -0.8869 -0.9792  0.8746
 9268TIP3    H249296   3.490   0.514  17.332  1.0237 -1.0796  3.0466
 9269TIP3   OH249297   4.655   4.371   6.120 -0.2340 -0.1139 -0.4779
 9269TIP3    H149298   4.735   4.343   6.163 -0.7179 -1.2565 -0.2811
 9269TIP3    H249299   4.664   4.342   6.029 -1.0761 -1.7090 -0.0894
 9270TIP3   OH249300   5.456   2.961   2.517  0.0114  0.0228 -0.3124
 9270TIP3    H149301   5.458   2.871   2.551 -0.0465  0.2600  0.3377
 9270TIP3    H249302   5.478   3.015   2.593  1.0046  0.4989 -0.9267
 9271TIP3   OH249303   4.264   4.693  17.246  0.8521  0.1102  0.3548
 9271TIP3    H149304   4.218   4.744  17.179  1.4168  1.1071  0.7021
 9271TIP3    H249305   4.279   4.608  17.205  1.3661  0.7604 -0.8883
 9272TIP3   OH249306   3.442   3.824   5.128 -0.1362 -0.1067  0.1725
 9272TIP3    H149307   3.510   3.890   5.113 -1.5002  1.6100  1.1586
 9272TIP3    H249308   3.366   3.874   5.158 -0.8441 -2.2267  2.2554
 9273TIP3   OH249309   0.597   4.907  15.380 -0.5137  0.0671  0.1978
 9273TIP3    H149310   0.542   4.984  15.367 -0.0321  0.4133  0.2045
 9273TIP3    H249311   0.642   4.923  15.463  1.6328  1.0380 -1.0817
 9274TIP3   OH249312   1.568   6.235  14.296 -0.3140  0.1247  0.9493
 9274TIP3    H149313   1.484   6.280  14.296  0.1061  0.9719 -0.4142
 9274TIP3    H249314   1.549   6.147  14.327 -1.5642  0.5188  1.3527
 9275TIP3   OH249315   6.010   5.175  13.071 -0.5016 -0.5777 -0.2880
 9275TIP3    H149316   5.951   5.250  13.065  0.7453  0.5622  1.0903
 9275TIP3    H249317   5.953   5.101  13.090 -1.7513 -0.0118 -1.6142
 9276TIP3   OH249318   2.176   1.361   4.074  0.6525  0.0482  0.1853
 9276TIP3    H149319   2.149   1.396   4.159 -0.7904 -1.1386  0.2439
 9276TIP3    H249320   2.138   1.273   4.071  0.4290  0.1773 -1.8006
 9277TIP3   OH249321   3.047   4.151  13.274 -0.5345 -0.1412 -0.4858
 9277TIP3    H149322   3.103   4.173  13.348  0.1292 -2.1652 -0.3237
 9277TIP3    H249323   3.105   4.157  13.198 -0.9967  1.0621 -0.7758
 9278TIP3   OH249324   6.468   2.583   4.718  0.3229  0.1501 -0.4787
 9278TIP3    H149325   6.514   2.605   4.637  0.9907  1.1017  0.1329
 9278TIP3    H249326   6.427   2.498   4.701  1.3786 -0.1826 -1.4288
 9279TIP3   OH249327   0.196   0.721   1.694  0.7146  0.5511  0.4667
 9279TIP3    H149328   0.187   0.727   1.789 -1.7459 -2.2941  0.5574
 9279TIP3    H249329   0.130   0.782   1.660  2.8501  3.0083  0.4043
 9280TIP3   OH249330   2.626   0.281  15.020  0.4117 -0.0240 -0.4518
 9280TIP3    H149331   2.571   0.322  15.086  0.9378 -0.3483  0.2023
 9280TIP3    H249332   2.569   0.272  14.943  0.1970  1.6438 -0.5330
 9281TIP3   OH249333   0.541   4.445   6.198 -0.0067 -0.1649  0.7742
 9281TIP3    H149334   0.492   4.480   6.272 -0.6522  0.6047  0.0000
 9281TIP3    H249335   0.474   4.418   6.135  0.5144  1.3908 -0.5313
 9282TIP3   OH249336   3.093   1.742  15.543  0.5657 -0.1873 -1.2105
 9282TIP3    H149337   3.133   1.660  15.573  0.5717 -0.4470 -1.9251
 9282TIP3    H249338   3.115   1.805  15.612  0.1428 -0.8910 -0.4020
 9283TIP3   OH249339   3.738   5.050  13.888  0.3307  0.1129  0.3654
 9283TIP3    H149340   3.768   5.086  13.805 -0.3414  0.3212  0.2020
 9283TIP3    H249341   3.695   4.967  13.864  0.7184 -0.1541  0.5850
 9284TIP3   OH249342   5.128   2.737   1.439  0.7237 -0.7044 -0.7470
 9284TIP3    H149343   5.159   2.655   1.477 -0.0735 -0.1420  1.2925
 9284TIP3    H249344   5.055   2.712   1.383  0.9809 -1.4603 -0.7535
 9285TIP3   OH249345   5.429   5.753   2.458 -0.7434  0.4910  0.0991
 9285TIP3    H149346   5.421   5.734   2.552  1.7962 -1.5931 -0.0180
 9285TIP3    H249347   5.364   5.696   2.417  0.5736 -1.3351  0.4167
 9286TIP3   OH249348   4.181   3.667  11.852  0.7872 -0.2465 -0.1823
 9286TIP3    H149349   4.111   3.603  11.838  1.3813 -1.3955  1.7348
 9286TIP3    H249350   4.144   3.750  11.821 -1.6594 -0.7014  1.2697
 9287TIP3   OH249351   2.067   0.051   2.273  0.3421  0.3844  0.2735
 9287TIP3    H149352   2.105  -0.035   2.255 -1.5366 -0.1473 -1.7414
 9287TIP3    H249353   2.098   0.106   2.201 -0.6218  0.5902 -0.0098
 9288TIP3   OH249354   4.716   2.805   5.970  0.3425  0.6360 -0.2288
 9288TIP3    H149355   4.764   2.806   5.887  2.3543  0.5881  0.8616
 9288TIP3    H249356   4.734   2.718   6.006 -1.0006  0.4368  0.0155
 9289TIP3   OH249357   6.299   6.471   0.196 -0.1711  0.0044 -0.2159
 9289TIP3    H149358   6.349   6.484   0.276 -0.8237 -3.3090  0.8900
 9289TIP3    H249359   6.215   6.515   0.212  0.2403  0.6034  0.3188
 9290TIP3   OH249360   4.064   4.673  16.675  0.1630  0.1836  0.0247
 9290TIP3    H149361   4.009   4.750  16.687 -1.4790 -0.4767 -2.4672
 9290TIP3    H249362   4.003   4.605  16.644  2.0842 -1.0624 -1.2429
 9291TIP3   OH249363   1.528   4.327  12.829 -0.7448  0.9611  0.3180
 9291TIP3    H149364   1.594   4.303  12.764  1.0297  1.4225  1.8669
 9291TIP3    H249365   1.536   4.262  12.898 -2.7349  0.3667  0.0476
 9292TIP3   OH249366   0.442   1.005   4.290  0.0727  0.1493  0.3895
 9292TIP3    H149367   0.533   0.977   4.280  0.6966  1.5898  1.6488
 9292TIP3    H249368   0.399   0.930   4.332  0.2016 -1.2370 -1.7765
 9293TIP3   OH249369   5.567   1.975  13.640  0.0659 -0.2207 -0.5322
 9293TIP3    H149370   5.486   1.927  13.658  0.2144  0.0178  0.8693
 9293TIP3    H249371   5.542   2.040  13.574 -0.7814 -0.4045 -0.4027
 9294TIP3   OH249372   6.734   6.550  16.553  0.3561  0.3236 -0.3935
 9294TIP3    H149373   6.746   6.457  16.536 -1.8614 -0.1049  0.0482
 9294TIP3    H249374   6.723   6.589  16.466  2.0041  0.3226 -0.6245
 9295TIP3   OH249375   5.981   2.312  12.488  0.2563 -0.6208 -0.6237
 9295TIP3    H149376   6.051   2.374  12.470 -0.2314 -0.2344 -1.2053
 9295TIP3    H249377   5.902   2.366  12.497 -0.1542 -1.1417 -1.0425
 9296TIP3   OH249378   1.485   6.038  17.131 -0.4774  0.1136 -0.8192
 9296TIP3    H149379   1.437   6.019  17.211  0.4380  2.0362  0.2383
 9296TIP3    H249380   1.576   6.014  17.152 -0.1415  1.1264 -1.0689
 9297TIP3   OH249381   0.952   5.792   2.183  0.5003 -0.3728  0.3595
 9297TIP3    H149382   0.938   5.729   2.113  0.3650  0.4266 -0.3548
 9297TIP3    H249383   0.933   5.877   2.143 -0.3287  0.0405  1.5721
 9298TIP3   OH249384   1.619   5.813   5.919  0.2073 -0.3033 -0.6317
 9298TIP3    H149385   1.691   5.869   5.948  0.0567 -0.9696  1.1443
 9298TIP3    H249386   1.648   5.778   5.835  2.0772 -0.7565  0.1556
 9299TIP3   OH249387   2.071   3.067   1.135 -0.0200 -0.2909  0.3902
 9299TIP3    H149388   2.081   2.972   1.127 -1.0763 -0.4852  1.0596
 9299TIP3    H249389   2.146   3.104   1.089  0.2863 -1.4481 -0.0680
 9300TIP3   OH249390   1.354   5.044   4.594 -0.2123  0.2429  0.5684
 9300TIP3    H149391   1.382   5.129   4.561  0.5998 -0.4837 -0.7154
 9300TIP3    H249392   1.411   5.027   4.669  1.5155 -0.3366 -0.8132
 9301TIP3   OH249393   6.218   2.770  12.071  0.7828  0.2131 -0.1768
 9301TIP3    H149394   6.228   2.825  12.148  1.1728 -2.2994  1.7286
 9301TIP3    H249395   6.144   2.712  12.093  0.4335 -0.0826 -2.0115
 9302TIP3   OH249396   4.102   3.228   0.104  0.1634  0.0869  0.0588
 9302TIP3    H149397   4.111   3.319   0.077 -1.1734  0.2236 -0.0137
 9302TIP3    H249398   4.042   3.190   0.040 -2.1776  0.1180  2.0950
 9303TIP3   OH249399   2.747   5.366  15.232  0.2165  0.2955 -0.0388
 9303TIP3    H149400   2.668   5.344  15.281  0.7117  0.5288  0.8881
 9303TIP3    H249401   2.716   5.380  15.143 -0.2404 -3.4233 -0.6286
 9304TIP3   OH249402   1.351   6.567   3.127 -0.1911  0.2135  0.1378
 9304TIP3    H149403   1.279   6.589   3.068 -0.5248  0.9820  0.8107
 9304TIP3    H249404   1.350   6.471   3.130 -0.7783  0.1916 -0.3524
 9305TIP3   OH249405   0.862   0.265  16.024 -0.0672  0.3767  0.3048
 9305TIP3    H149406   0.882   0.346  16.071 -0.6816  0.7968 -0.1534
 9305TIP3    H249407   0.908   0.273  15.941  0.4757 -0.0772  0.5543
 9306TIP3   OH249408   4.044   2.333  15.735 -0.9680  0.3369  0.4770
 9306TIP3    H149409   4.004   2.246  15.727  1.3872 -0.7096 -1.1557
 9306TIP3    H249410   4.020   2.377  15.654 -0.5764  0.4904  0.4445
 9307TIP3   OH249411   2.185   2.375  14.015 -0.2181  0.4139 -0.6726
 9307TIP3    H149412   2.146   2.415  14.092  2.7495 -0.6902  1.6000
 9307TIP3    H249413   2.227   2.448  13.969 -0.9248  0.8953 -0.5705
 9308TIP3   OH249414   6.139   3.800   0.078 -0.3422  0.7560 -0.1097
 9308TIP3    H149415   6.102   3.888   0.085 -1.3702  0.3422 -0.1428
 9308TIP3    H249416   6.070   3.743   0.110  0.3726 -0.0350  0.0493
 9309TIP3   OH249417   1.736   6.472  15.439 -0.4609  0.1038 -0.3863
 9309TIP3    H149418   1.803   6.521  15.391 -1.1260  0.4636 -0.9667
 9309TIP3    H249419   1.757   6.380  15.423 -0.7855  0.2200 -1.5405
 9310TIP3   OH249420   1.291   0.185   5.929 -0.1733 -0.1222  0.1074
 9310TIP3    H149421   1.366   0.244   5.934 -0.6556  0.4831  0.3017
 9310TIP3    H249422   1.271   0.164   6.020  0.1700 -0.8268  0.0329
 9311TIP3   OH249423   6.426   4.023   1.111  0.1120  0.5539  0.1310
 9311TIP3    H149424   6.395   3.932   1.115  2.0847 -0.1276  2.7114
 9311TIP3    H249425   6.347   4.075   1.098 -1.2560 -1.4205  0.0596
 9312TIP3   OH249426   6.612   1.664   0.688  0.1606 -0.1969 -0.4514
 9312TIP3    H149427   6.612   1.738   0.627 -1.5750  0.3788  0.1666
 9312TIP3    H249428   6.703   1.653   0.713  0.4450  1.9761 -0.3137
 9313TIP3   OH249429   4.349   4.535  12.484  0.5842 -0.3249  0.0862
 9313TIP3    H149430   4.270   4.503  12.441  1.5592 -0.3769 -1.7688
 9313TIP3    H249431   4.319   4.608  12.538 -0.7802 -0.6166 -0.2440
 9314TIP3   OH249432   3.847   4.747  13.637 -0.0294 -0.1507  0.2335
 9314TIP3    H149433   3.779   4.759  13.571 -0.0185 -1.7969 -0.1211
 9314TIP3    H249434   3.872   4.655  13.629  1.2868  0.0863  1.2813
 9315TIP3   OH249435   0.180   5.124  11.493 -0.1906  0.6186  0.0148
 9315TIP3    H149436   0.255   5.071  11.466 -1.6515 -0.6408 -1.9410
 9315TIP3    H249437   0.184   5.125  11.588  0.6435 -1.9786  0.0997
 9316TIP3   OH249438   1.990   2.893  17.326 -0.9748 -0.4142  0.0308
 9316TIP3    H149439   1.998   2.803  17.358  0.4334 -0.4545 -0.3839
 9316TIP3    H249440   2.074   2.912  17.284 -2.3843 -0.1179 -2.9959
 9317TIP3   OH249441   3.994   2.475   4.091  0.0270 -0.3735 -0.2393
 9317TIP3    H149442   4.081   2.495   4.057  0.1482  0.7748  0.7103
 9317TIP3    H249443   4.004   2.473   4.186 -1.1744  0.8863 -0.0399
 9318TIP3   OH249444   6.248   1.090   2.578  0.1018 -0.1138 -0.1417
 9318TIP3    H149445   6.260   0.996   2.573  1.2793 -0.0221  0.6354
 9318TIP3    H249446   6.183   1.102   2.648  0.3161 -0.3254  0.0938
 9319TIP3   OH249447   0.145   3.896  16.795 -0.5483  0.3436 -0.0027
 9319TIP3    H149448   0.172   3.956  16.864 -2.0031  1.0577 -0.0328
 9319TIP3    H249449   0.049   3.897  16.797 -0.6143 -1.0160 -0.8342
 9320TIP3   OH249450   5.025   1.670  14.295 -0.4224 -0.0052  0.1623
 9320TIP3    H149451   5.009   1.668  14.390 -1.3278 -0.0399  0.0173
 9320TIP3    H249452   5.088   1.600  14.280 -1.2308 -0.8574  0.5853
 9321TIP3   OH249453   4.230   2.134  16.782 -0.1356  0.4516 -0.2028
 9321TIP3    H149454   4.246   2.189  16.859 -2.6133 -0.0753  0.7892
 9321TIP3    H249455   4.140   2.155  16.756  0.0780 -0.5996 -1.9503
 9322TIP3   OH249456   1.094   4.057  13.004  0.1780  0.4408 -0.4054
 9322TIP3    H149457   1.030   4.114  13.047 -1.9326 -1.5033 -0.8104
 9322TIP3    H249458   1.053   4.032  12.922  1.3523 -1.0613 -0.5770
 9323TIP3   OH249459   1.184   0.476  16.492 -0.4289  0.2244  0.0056
 9323TIP3    H149460   1.259   0.479  16.551 -0.7856 -1.6551  0.6164
 9323TIP3    H249461   1.110   0.454  16.548 -1.1771  0.5242 -0.8306
 9324TIP3   OH249462   3.065   0.303  14.260  0.4987 -0.0623 -0.1318
 9324TIP3    H149463   3.052   0.396  14.274  0.1357  0.0176 -0.9534
 9324TIP3    H249464   2.990   0.262  14.305  0.1188  0.1028 -0.6094
 9325TIP3   OH249465   5.480   5.245   2.788  0.1823 -0.0573  0.1835
 9325TIP3    H149466   5.478   5.278   2.878  0.3609  0.7793 -0.1190
 9325TIP3    H249467   5.409   5.180   2.785 -1.7935  2.0101  0.1250
 9326TIP3   OH249468   2.291   6.557  11.520  0.0473 -0.3419 -0.2258
 9326TIP3    H149469   2.235   6.507  11.460 -0.3745  3.0851 -3.0148
 9326TIP3    H249470   2.380   6.528  11.500 -0.1813 -0.0541 -1.8053
 9327TIP3   OH249471   3.176   5.856   4.131 -0.8748 -0.0371 -0.7842
 9327TIP3    H149472   3.244   5.918   4.104  1.5368 -2.4951 -0.7664
 9327TIP3    H249473   3.094   5.899   4.106  0.7197  2.3454 -2.3920
 9328TIP3   OH249474   6.239   6.754   2.631 -0.0485  0.2114  0.1757
 9328TIP3    H149475   6.149   6.742   2.601  0.2537  2.6861 -2.0526
 9328TIP3    H249476   6.283   6.671   2.611 -0.7041  0.5950 -3.3967
 9329TIP3   OH249477   4.111   2.781   5.786 -0.0409 -0.0235 -0.0116
 9329TIP3    H149478   4.117   2.847   5.717 -0.8611 -0.5648 -0.6153
 9329TIP3    H249479   4.189   2.795   5.839  0.4970  0.5377 -0.9273
 9330TIP3   OH249480   2.643   6.204  11.870 -0.4217 -0.1053  0.4543
 9330TIP3    H149481   2.717   6.144  11.858  1.6184  1.9843  1.8079
 9330TIP3    H249482   2.624   6.238  11.782 -1.5638 -2.5268 -0.3275
 9331TIP3   OH249483   2.071   6.046  10.951  0.6302  0.5252  0.1207
 9331TIP3    H149484   2.005   6.007  10.894 -0.8014  1.0471  1.3687
 9331TIP3    H249485   2.137   6.080  10.891 -0.0188 -0.3576 -1.1470
 9332TIP3   OH249486   2.838   6.011  11.780  0.3107 -0.5874  0.1911
 9332TIP3    H149487   2.809   6.008  11.689  1.8072  0.8828 -0.3805
 9332TIP3    H249488   2.914   5.953  11.783  0.4040 -0.4545  0.4373
 9333TIP3   OH249489   3.836   4.826   6.031 -0.1112  0.8814 -0.7456
 9333TIP3    H149490   3.843   4.837   6.126 -0.2923  1.4137 -0.7861
 9333TIP3    H249491   3.763   4.883   6.006 -1.5450 -0.9271 -0.9237
 9334TIP3   OH249492   5.595   2.333  16.220  0.2558  0.1019  0.2806
 9334TIP3    H149493   5.665   2.305  16.278  1.1595  1.0215 -0.3244
 9334TIP3    H249494   5.520   2.348  16.278  0.5053 -1.0111  0.9179
 9335TIP3   OH249495   3.971   3.790   4.892 -0.3626 -0.1556 -0.5666
 9335TIP3    H149496   3.885   3.802   4.933  0.7617 -1.1782  2.2653
 9335TIP3    H249497   3.960   3.713   4.836 -1.3576 -0.1090 -0.4500
 9336TIP3   OH249498   2.793   4.800   0.843  0.0344  0.2798  0.2995
 9336TIP3    H149499   2.852   4.875   0.836 -0.5800  0.6537 -1.2471
 9336TIP3    H249500   2.724   4.817   0.778 -1.3644 -0.5155  1.5138
 9337TIP3   OH249501   6.103   2.468  16.846 -0.1837 -0.1386 -0.7053
 9337TIP3    H149502   6.114   2.524  16.769 -0.1625  1.1116  0.1741
 9337TIP3    H249503   6.026   2.414  16.826  0.3318 -0.4384 -1.9398
 9338TIP3   OH249504   5.213   0.963  13.279 -0.1685 -0.0067  0.4797
 9338TIP3    H149505   5.283   0.932  13.337 -1.9911  0.2820  3.0050
 9338TIP3    H249506   5.152   0.889  13.274  0.0500 -0.0993 -1.3178
 9339TIP3   OH249507   2.157   2.446  14.725  0.1232  0.1779 -0.6709
 9339TIP3    H149508   2.247   2.468  14.699 -0.0931  1.1511 -0.6252
 9339TIP3    H249509   2.103   2.478  14.653 -0.1475 -1.1640 -1.1075
 9340TIP3   OH249510   3.428   4.774  16.287  0.0248  0.3050  0.0153
 9340TIP3    H149511   3.462   4.700  16.338  2.6567  0.3830 -1.4523
 9340TIP3    H249512   3.417   4.738  16.199 -0.0142  1.3220 -0.4020
 9341TIP3   OH249513   3.515   4.110   3.070 -0.1884  0.0283 -0.0526
 9341TIP3    H149514   3.512   4.205   3.058  2.4768  0.2182  0.1034
 9341TIP3    H249515   3.425   4.081   3.055 -0.6579  2.2905 -2.3563
 9342TIP3   OH249516   5.829   6.708  11.699  0.1526  0.0807  0.3085
 9342TIP3    H149517   5.737   6.683  11.691 -0.2199  1.1220  0.9938
 9342TIP3    H249518   5.842   6.776  11.632  0.8521 -1.1203 -0.8123
 9343TIP3   OH249519   2.743   3.158  12.200  0.4926  0.1694 -0.1855
 9343TIP3    H149520   2.786   3.242  12.186 -0.7332  0.9985  0.7608
 9343TIP3    H249521   2.697   3.140  12.118 -0.1975  1.0372 -0.0079
 9344TIP3   OH249522   5.788   3.051   2.218  0.1706  0.0695 -0.2137
 9344TIP3    H149523   5.700   3.072   2.249  0.3502  0.0462  0.3282
 9344TIP3    H249524   5.846   3.100   2.276  0.6436 -2.4173  1.5645
 9345TIP3   OH249525   5.398   5.367   0.291 -1.0052  0.0789  0.9919
 9345TIP3    H149526   5.316   5.407   0.260 -0.1611  1.0386 -0.0927
 9345TIP3    H249527   5.376   5.275   0.306 -1.7418 -0.2208 -1.5273
 9346TIP3   OH249528   5.415   3.229  11.641  0.5242  0.8300  0.3563
 9346TIP3    H149529   5.405   3.318  11.607 -1.3493  0.3899 -0.3562
 9346TIP3    H249530   5.484   3.191  11.588  1.3185  1.8215  0.6402
 9347TIP3   OH249531   5.705   1.722  13.499 -0.0975 -1.1286 -0.0814
 9347TIP3    H149532   5.611   1.727  13.516  0.1909  0.3798  1.3212
 9347TIP3    H249533   5.714   1.738  13.405 -1.2106 -0.9952 -0.1726
 9348TIP3   OH249534   3.117   2.737   6.303  0.2857 -0.4888  0.1607
 9348TIP3    H149535   3.048   2.732   6.369  0.3898  2.9552  0.6980
 9348TIP3    H249536   3.099   2.663   6.244 -3.2698 -0.3311  0.8294
 9349TIP3   OH249537   6.259   2.688   6.149 -0.0511 -0.4151 -0.0639
 9349TIP3    H149538   6.317   2.681   6.225  2.1725 -0.1360 -1.6418
 9349TIP3    H249539   6.214   2.771   6.161  0.3692 -0.3032  0.8807
 9350TIP3   OH249540   5.613   1.209  16.929 -0.0393  0.0601 -0.6884
 9350TIP3    H149541   5.575   1.288  16.969  0.4030  0.8498 -1.7606
 9350TIP3    H249542   5.612   1.227  16.835 -0.0316 -1.2776 -0.9632
 9351TIP3   OH249543   1.375   2.283  15.662  0.2757 -0.3810 -0.4849
 9351TIP3    H149544   1.330   2.338  15.727  0.4339  0.0843 -0.7596
 9351TIP3    H249545   1.351   2.194  15.685 -0.5343 -0.1561 -0.4416
 9352TIP3   OH249546   4.564   3.366   2.230 -0.2972  0.1970  0.4914
 9352TIP3    H149547   4.527   3.450   2.206 -1.2303 -0.1170  0.7954
 9352TIP3    H249548   4.658   3.377   2.218 -0.3897  1.3278  0.6767
 9353TIP3   OH249549   2.743   0.950  12.554 -0.1512  1.1783  0.3880
 9353TIP3    H149550   2.673   0.889  12.575  1.2444 -1.2801 -1.5001
 9353TIP3    H249551   2.786   0.967  12.637  0.2044 -1.5380  0.8493
 9354TIP3   OH249552   4.258   4.250   0.643  0.1495  0.0377 -0.2434
 9354TIP3    H149553   4.236   4.340   0.619  0.6778  0.3937  0.5894
 9354TIP3    H249554   4.174   4.211   0.667  0.0861  0.6860  0.6282
 9355TIP3   OH249555   6.517   6.280  16.252  0.7544 -0.6897 -0.8971
 9355TIP3    H149556   6.518   6.267  16.346 -0.4698  1.5165 -0.5071
 9355TIP3    H249557   6.563   6.362  16.238 -2.2831  1.0536 -1.7265
 9356TIP3   OH249558   5.864   4.168   4.428  0.0143  0.5431 -0.4457
 9356TIP3    H149559   5.808   4.214   4.491  0.3668  0.6959 -0.2443
 9356TIP3    H249560   5.855   4.076   4.452  1.1421  0.6894  0.6604
 9357TIP3   OH249561   4.371   6.620   2.934 -0.5907  0.0632  0.4620
 9357TIP3    H149562   4.281   6.650   2.924 -0.2185  1.5893  1.2901
 9357TIP3    H249563   4.389   6.569   2.855 -1.5051  1.4919 -0.7090
 9358TIP3   OH249564   2.339   0.636  15.506  0.0305  0.1652 -0.7116
 9358TIP3    H149565   2.247   0.614  15.521  0.3263  1.0023  3.5838
 9358TIP3    H249566   2.338   0.686  15.425 -3.3851  0.5667 -0.5816
 9359TIP3   OH249567   5.235   2.710   1.738  0.0327 -0.6292 -0.0902
 9359TIP3    H149568   5.296   2.645   1.703  0.9255  0.6452 -0.9688
 9359TIP3    H249569   5.273   2.794   1.715 -2.4132  0.2381 -1.3050
 9360TIP3   OH249570   5.032   1.943  12.315 -0.8799  0.0806 -0.4834
 9360TIP3    H149571   5.027   2.018  12.257 -0.1755  0.1280 -0.4895
 9360TIP3    H249572   5.075   1.875  12.264  1.7825  0.7976  0.6128
 9361TIP3   OH249573   1.043   6.194   5.818  0.0210  0.3678 -0.0867
 9361TIP3    H149574   0.976   6.206   5.886  0.8310  0.6159  0.6881
 9361TIP3    H249575   1.007   6.237   5.741 -0.8104  0.2999  0.2504
 9362TIP3   OH249576   4.103   4.898   6.040 -0.2285  0.0960  0.1838
 9362TIP3    H149577   4.009   4.880   6.035 -0.8728  2.4479  1.8594
 9362TIP3    H249578   4.132   4.854   6.119  0.4278 -1.6572 -0.9718
 9363TIP3   OH249579   4.031   3.525   0.230 -0.0461  0.1244 -0.1860
 9363TIP3    H149580   3.967   3.505   0.298  1.1660 -0.9774  0.6946
 9363TIP3    H249581   4.109   3.552   0.278  0.5922  0.0714 -1.1656
 9364TIP3   OH249582   0.510   0.086   5.366 -0.1645  0.3287  0.0778
 9364TIP3    H149583   0.480   0.176   5.379  0.5032  0.5260  0.3023
 9364TIP3    H249584   0.542   0.085   5.276  0.7532  0.5987  0.3875
 9365TIP3   OH249585   5.577   3.648   2.134 -0.0356  0.4453 -0.4233
 9365TIP3    H149586   5.576   3.625   2.227  1.8899  0.1946 -0.4203
 9365TIP3    H249587   5.578   3.744   2.132  1.6695  0.4637 -0.0912
 9366TIP3   OH249588   4.063   4.214   3.223  0.3629  0.1557 -0.7231
 9366TIP3    H149589   4.030   4.227   3.311 -0.6544  0.3273 -1.1199
 9366TIP3    H249590   3.988   4.229   3.166  1.1438  0.6493 -1.6612
 9367TIP3   OH249591   1.935   4.423   0.537  0.7679 -0.2478  0.8680
 9367TIP3    H149592   1.907   4.506   0.498  1.4989  0.0069  0.8783
 9367TIP3    H249593   1.902   4.356   0.477 -1.1524 -0.0610  1.6253
 9368TIP3   OH249594   2.529   3.652  15.572 -0.0704 -0.6208 -0.3301
 9368TIP3    H149595   2.456   3.609  15.528 -0.7673  0.3347 -0.1609
 9368TIP3    H249596   2.606   3.601  15.548 -0.4795 -0.3655 -2.3373
 9369TIP3   OH249597   5.323   6.408  15.045  0.0401 -0.3231 -0.3423
 9369TIP3    H149598   5.338   6.332  14.988 -0.8599 -0.0476 -0.9690
 9369TIP3    H249599   5.237   6.393  15.083 -0.0049  0.2212 -0.2197
 9370TIP3   OH249600   1.866   1.342   5.442 -0.3520  0.3365 -0.0691
 9370TIP3    H149601   1.846   1.344   5.348  1.5380 -1.3747 -0.5822
 9370TIP3    H249602   1.947   1.391   5.450  1.3538 -2.2822  0.0314
 9371TIP3   OH249603   3.879   0.624  10.922  0.1408  0.4873  0.4712
 9371TIP3    H149604   3.813   0.621  10.853  1.0747  0.6463 -0.4540
 9371TIP3    H249605   3.890   0.717  10.941  1.6995  0.6437 -0.9938
 9372TIP3   OH249606   1.942   1.928  16.718  0.7413  0.2645  0.4306
 9372TIP3    H149607   1.921   1.860  16.782  2.0065 -0.8429 -0.2823
 9372TIP3    H249608   1.994   1.992  16.767  3.1539 -1.4137  0.1930
 9373TIP3   OH249609   4.347   3.772  17.393 -0.3940 -0.1198 -0.4177
 9373TIP3    H149610   4.386   3.858  17.375 -0.0735  0.1491  1.4190
 9373TIP3    H249611   4.268   3.770  17.340 -0.6017  1.4619 -0.2020
 9374TIP3   OH249612   2.111   4.838  13.184  0.1488 -0.0165  0.6435
 9374TIP3    H149613   2.106   4.766  13.247  0.5982  2.2915  3.5292
 9374TIP3    H249614   2.022   4.874  13.181 -0.1468 -0.7776 -1.0213
 9375TIP3   OH249615   6.460   3.684  12.784 -0.7439 -0.3781  0.6052
 9375TIP3    H149616   6.481   3.591  12.774  3.0850  0.2341  1.0854
 9375TIP3    H249617   6.513   3.728  12.717 -2.1475  1.5141  0.6427
 9376TIP3   OH249618   0.154   1.164   2.474  0.1073 -0.3427 -0.3101
 9376TIP3    H149619   0.143   1.146   2.568 -0.0509  2.6947  0.3560
 9376TIP3    H249620   0.247   1.184   2.464  0.5387 -2.5142 -1.2612
 9377TIP3   OH249621   6.572   3.342   3.846 -0.2308 -0.5116 -0.0145
 9377TIP3    H149622   6.661   3.370   3.865 -0.8253  1.7823 -0.2818
 9377TIP3    H249623   6.575   3.310   3.756  0.5297 -1.6140  0.3830
 9378TIP3   OH249624   4.661   5.299   0.873 -0.0208  0.5730  0.5442
 9378TIP3    H149625   4.733   5.236   0.869 -0.9733 -0.5516  0.5989
 9378TIP3    H249626   4.658   5.326   0.965 -0.8427 -0.8162  0.9487
 9379TIP3   OH249627   0.586   6.175   3.045 -0.3716  0.5517  0.8375
 9379TIP3    H149628   0.579   6.141   3.134 -0.8767  0.4875  0.7779
 9379TIP3    H249629   0.541   6.111   2.991  1.1766 -0.1508  0.3298
 9380TIP3   OH249630   6.521   3.532  14.176 -0.1438 -0.0669 -0.0504
 9380TIP3    H149631   6.491   3.541  14.086 -0.0063  0.2151 -0.0705
 9380TIP3    H249632   6.608   3.571  14.176 -1.4666  3.1928  0.9352
 9381TIP3   OH249633   5.559   3.694  13.861 -0.6211 -0.0465 -0.1886
 9381TIP3    H149634   5.617   3.651  13.924 -0.5595 -1.6403 -1.2705
 9381TIP3    H249635   5.608   3.771  13.832  0.0101 -0.1653  0.5222
 9382TIP3   OH249636   2.874   5.006   4.349  0.1445  0.1401  0.0611
 9382TIP3    H149637   2.838   5.071   4.410 -1.6545  0.3191 -1.1392
 9382TIP3    H249638   2.948   5.051   4.308 -2.0768  2.2178 -2.0149
 9383TIP3   OH249639   3.054   4.294   3.117  0.1220  0.0819 -0.0778
 9383TIP3    H149640   3.009   4.257   3.193 -2.3958  1.6709 -0.6669
 9383TIP3    H249641   2.987   4.299   3.049  1.8068  0.5012 -1.7995
 9384TIP3   OH249642   0.435   4.571  16.165  0.2456  0.5981  0.5884
 9384TIP3    H149643   0.407   4.498  16.220  2.2008  1.0349  2.2456
 9384TIP3    H249644   0.390   4.647  16.201 -1.2337  0.3948 -0.6996
 9385TIP3   OH249645   4.203   5.850   0.121 -0.3403  0.2075 -0.7025
 9385TIP3    H149646   4.175   5.916   0.183  0.5238  0.6321 -0.7491
 9385TIP3    H249647   4.270   5.800   0.168 -1.1320 -0.7721 -0.5949
 9386TIP3   OH249648   3.563   5.335   5.437 -0.1686 -0.0594  0.0312
 9386TIP3    H149649   3.615   5.366   5.510 -1.4165  0.3084  0.7933
 9386TIP3    H249650   3.567   5.406   5.373 -0.7248  0.5079  0.6063
 9387TIP3   OH249651   0.515   0.378   3.384  0.4103  0.6063 -0.1224
 9387TIP3    H149652   0.596   0.330   3.366 -0.6621 -1.8662  1.2329
 9387TIP3    H249653   0.531   0.419   3.469  1.0872  2.2679 -0.9918
 9388TIP3   OH249654   3.009   5.582  16.091  0.6634 -0.1601 -0.2528
 9388TIP3    H149655   3.047   5.588  16.003 -0.6167  3.0760 -0.7352
 9388TIP3    H249656   3.084   5.585  16.150  1.4164  0.5871 -1.2174
 9389TIP3   OH249657   5.720   1.594  13.778  0.1317 -0.3871  0.1509
 9389TIP3    H149658   5.735   1.654  13.705  0.7069  0.0438  0.6188
 9389TIP3    H249659   5.797   1.604  13.833 -0.3996 -0.5546  0.9344
 9390TIP3   OH249660   1.244   4.095   4.650  0.0433 -0.2851 -0.7066
 9390TIP3    H149661   1.169   4.038   4.670 -0.5398  0.1481 -1.5516
 9390TIP3    H249662   1.243   4.162   4.718 -0.2733 -0.3472 -0.6483
 9391TIP3   OH249663   6.196   0.342  13.571  0.4611 -0.1671  0.2445
 9391TIP3    H149664   6.118   0.376  13.614  1.3153  0.7374  1.1400
 9391TIP3    H249665   6.196   0.383  13.485  0.0271 -0.0739  0.2879
 9392TIP3   OH249666   6.453   4.494  13.413 -0.0768  0.2694 -0.6072
 9392TIP3    H149667   6.461   4.588  13.426  1.4964  0.1914 -0.7688
 9392TIP3    H249668   6.485   4.456  13.495 -0.1940 -0.1280 -0.7437
 9393TIP3   OH249669   6.305   3.024  16.770 -0.3129 -0.0990 -0.2321
 9393TIP3    H149670   6.388   3.049  16.809 -0.3578 -1.5977  0.9222
 9393TIP3    H249671   6.253   3.104  16.769  0.4461  0.4225  0.8672
 9394TIP3   OH249672   2.597   1.514   4.313 -0.2619  0.0558  0.1647
 9394TIP3    H149673   2.565   1.597   4.277  0.9227  0.5464  0.1938
 9394TIP3    H249674   2.655   1.479   4.246 -0.5642 -0.6435  0.2577
 9395TIP3   OH249675   2.383   2.077  13.413 -0.4157  0.0391 -0.2712
 9395TIP3    H149676   2.338   2.014  13.357  0.1723 -0.1457 -0.5440
 9395TIP3    H249677   2.397   2.030  13.495 -1.8747  0.5329  0.2790
 9396TIP3   OH249678   0.840   1.617  15.055 -0.7641 -0.2905  0.3875
 9396TIP3    H149679   0.904   1.559  15.016  0.0651  0.5139  0.5091
 9396TIP3    H249680   0.862   1.704  15.021 -1.1025  0.1590  1.2741
 9397TIP3   OH249681   4.331   6.483  16.520 -0.4026 -0.2095 -0.5016
 9397TIP3    H149682   4.410   6.514  16.564 -2.0209  1.8968  1.1127
 9397TIP3    H249683   4.326   6.534  16.439 -0.9494  0.8816  0.2043
 9398TIP3   OH249684   5.059   6.026  12.543 -0.1898 -0.3865  0.5160
 9398TIP3    H149685   5.153   6.008  12.545 -0.2147 -0.4655  1.4553
 9398TIP3    H249686   5.050   6.112  12.584 -0.4758 -0.1013 -0.1305
 9399TIP3   OH249687   0.322   0.432   3.931  0.0264 -0.3620  0.6268
 9399TIP3    H149688   0.296   0.479   3.852  0.5299  2.2827  1.9312
 9399TIP3    H249689   0.416   0.452   3.941  0.2290 -1.5468  1.3262
 9400TIP3   OH249690   4.843   3.281   3.982 -0.5234  0.0643 -0.3361
 9400TIP3    H149691   4.817   3.356   4.037 -2.6881 -1.6008  1.0895
 9400TIP3    H249692   4.772   3.272   3.919 -1.0407 -1.5773  0.4212
 9401TIP3   OH249693   3.455   4.731   0.829 -0.4118  0.3763  0.4470
 9401TIP3    H149694   3.517   4.689   0.770 -1.4967 -0.6004 -0.0449
 9401TIP3    H249695   3.408   4.794   0.774  0.8090  1.8937  1.0522
 9402TIP3   OH249696   3.382   6.512   4.134  0.4609 -0.4383 -0.3142
 9402TIP3    H149697   3.412   6.422   4.141  0.5152 -0.3601  0.5651
 9402TIP3    H249698   3.397   6.536   4.043  0.3942 -1.3339 -0.5627
 9403TIP3   OH249699   0.085   2.543   3.230  0.5359 -0.0408 -0.4441
 9403TIP3    H149700   0.023   2.614   3.246 -0.1073 -0.4599 -1.0265
 9403TIP3    H249701   0.150   2.581   3.171 -1.1550 -0.6029 -2.7800
 9404TIP3   OH249702   0.784   0.577   0.320 -0.4436  0.0221 -0.0811
 9404TIP3    H149703   0.836   0.511   0.367 -0.5797 -0.5546 -0.7213
 9404TIP3    H249704   0.834   0.594   0.241  0.2613  1.6867  0.6765
 9405TIP3   OH249705   1.342   6.118  12.770 -0.3417 -0.2167 -0.2921
 9405TIP3    H149706   1.329   6.037  12.820  1.6191 -0.4409 -0.0624
 9405TIP3    H249707   1.366   6.088  12.682  0.0805  0.1013 -0.2918
 9406TIP3   OH249708   0.092   4.420   0.973  0.3231 -0.3522  0.4427
 9406TIP3    H149709   0.174   4.469   0.974 -0.1649  0.4887  0.4050
 9406TIP3    H249710   0.118   4.329   0.983  1.2820 -0.1267  0.0996
 9407TIP3   OH249711   4.268   6.639  14.134 -0.0344 -0.6864  0.3112
 9407TIP3    H149712   4.304   6.673  14.216  0.9621 -1.3945  0.1773
 9407TIP3    H249713   4.293   6.704  14.068 -2.6745  1.0223  0.8376
 9408TIP3   OH249714   0.871   3.337  10.857  0.2588  0.0505  0.1155
 9408TIP3    H149715   0.819   3.415  10.870  1.4083  0.7476  0.7096
 9408TIP3    H249716   0.812   3.264  10.878 -1.5486  0.5581 -2.6802
 9409TIP3   OH249717   5.800   0.980   0.630 -0.3408  0.3775 -0.7687
 9409TIP3    H149718   5.805   0.897   0.676 -1.4157  0.6879 -0.0465
 9409TIP3    H249719   5.747   0.962   0.552  1.3407 -0.1095 -1.8596
 9410TIP3   OH249720   2.820   3.951   3.511 -0.1179  0.0721 -0.1785
 9410TIP3    H149721   2.826   3.937   3.606  1.6029  0.4753 -0.2089
 9410TIP3    H249722   2.728   3.973   3.497 -0.8179 -1.6731  1.1507
 9411TIP3   OH249723   3.986   2.075   3.882  0.4814  0.6304  0.2238
 9411TIP3    H149724   4.060   2.016   3.865  0.1589 -0.1704  1.4603
 9411TIP3    H249725   3.947   2.042   3.963 -1.1595  1.1262 -0.3245
 9412TIP3   OH249726   0.628   4.089   0.987  0.3032  0.6819  0.4032
 9412TIP3    H149727   0.592   4.003   0.966  1.5452 -0.3831  2.3626
 9412TIP3    H249728   0.707   4.096   0.934 -0.6282  1.3445 -0.9536
 9413TIP3   OH249729   5.635   2.382  14.407  0.5063  0.2576 -0.1333
 9413TIP3    H149730   5.593   2.434  14.339  1.0565  1.0990  0.1611
 9413TIP3    H249731   5.567   2.319  14.434 -0.0496  0.5856 -0.7339
 9414TIP3   OH249732   5.237   4.697   5.023 -0.1022  0.4868  0.2221
 9414TIP3    H149733   5.311   4.681   4.965 -0.1286 -0.8862  0.5254
 9414TIP3    H249734   5.269   4.672   5.110 -0.5249  1.1066  0.5681
 9415TIP3   OH249735   5.808   5.657   5.359 -0.6604  0.5745  0.4295
 9415TIP3    H149736   5.732   5.601   5.372 -0.2166 -0.6234 -1.7826
 9415TIP3    H249737   5.780   5.722   5.295  0.1180  0.1883 -0.3275
 9416TIP3   OH249738   0.967   1.452   3.448 -0.1272  0.1956  0.2178
 9416TIP3    H149739   0.921   1.382   3.494 -1.3265  1.4151  0.9679
 9416TIP3    H249740   0.910   1.528   3.458  1.0511  1.2400 -0.7119
 9417TIP3   OH249741   4.390   1.482  11.009  0.2429 -0.0380  0.1327
 9417TIP3    H149742   4.340   1.558  11.039  0.3691 -0.1190  0.5503
 9417TIP3    H249743   4.480   1.501  11.033  0.3540 -0.0846 -0.2384
 9418TIP3   OH249744   1.976   1.584  15.938 -0.0125 -0.1299 -0.3678
 9418TIP3    H149745   1.907   1.649  15.949  0.3563  0.4636 -1.4151
 9418TIP3    H249746   1.987   1.576  15.843  1.6747  0.1280 -0.2259
 9419TIP3   OH249747   3.127   5.806  16.452 -0.0510 -0.5084 -0.3643
 9419TIP3    H149748   3.090   5.892  16.468 -3.0170 -1.5536 -1.0686
 9419TIP3    H249749   3.127   5.763  16.537  1.9544  0.2832  0.0991
 9420TIP3   OH249750   4.203   3.405   4.406  0.3599  0.5423  0.1434
 9420TIP3    H149751   4.290   3.393   4.442  0.0611  0.5141  0.8626
 9420TIP3    H249752   4.216   3.463   4.330  1.4605 -2.1238 -1.8727
 9421TIP3   OH249753   1.276   0.807  12.797 -0.3439 -0.8432 -0.3071
 9421TIP3    H149754   1.295   0.896  12.827  0.0696 -1.4881  1.4870
 9421TIP3    H249755   1.184   0.794  12.819 -0.4453 -0.8042 -0.7114
 9422TIP3   OH249756   5.170   5.207  14.929  0.7328  0.2427 -0.2192
 9422TIP3    H149757   5.157   5.244  14.842  2.2037  2.6197  0.4858
 9422TIP3    H249758   5.249   5.250  14.962 -1.2027  1.5334  3.3118
 9423TIP3   OH249759   5.437   1.962   5.967  0.1225 -0.3247 -0.0138
 9423TIP3    H149760   5.400   1.879   5.939  1.8784 -1.1257 -0.1111
 9423TIP3    H249761   5.442   1.956   6.062  0.0961 -0.2742 -0.0093
 9424TIP3   OH249762   6.690   0.190  15.595  0.5947 -0.2548 -0.5657
 9424TIP3    H149763   6.626   0.142  15.649  0.8172  0.7683  0.6662
 9424TIP3    H249764   6.675   0.158  15.506  1.1394 -3.0659  0.2354
 9425TIP3   OH249765   4.619   1.727  10.861  0.4234 -0.1891  0.0753
 9425TIP3    H149766   4.658   1.649  10.899  1.9221  0.8572  0.8096
 9425TIP3    H249767   4.648   1.799  10.918  2.0171  1.3455 -2.4748
 9426TIP3   OH249768   3.505   0.904   3.930  0.0150  0.3719  0.2885
 9426TIP3    H149769   3.584   0.851   3.938  0.3198  0.2237 -2.7227
 9426TIP3    H249770   3.434   0.845   3.954  0.5589 -0.5591 -0.3344
 9427TIP3   OH249771   5.393   6.598  14.822  0.1772 -0.3798 -0.6500
 9427TIP3    H149772   5.343   6.565  14.747  1.1752 -2.4020 -0.4925
 9427TIP3    H249773   5.357   6.551  14.897  0.6473  0.0033 -0.1768
 9428TIP3   OH249774   3.596   3.760  11.215  0.2409  0.0466  0.4383
 9428TIP3    H149775   3.505   3.787  11.229 -0.0030 -0.1908 -0.6271
 9428TIP3    H249776   3.647   3.823  11.266 -0.5326 -0.0643  1.3776
 9429TIP3   OH249777   0.902   0.407   3.049  0.1716 -0.8774  0.1610
 9429TIP3    H149778   0.982   0.457   3.032  1.0936 -1.5595  2.2848
 9429TIP3    H249779   0.908   0.331   2.991  0.1747 -0.0470 -0.9604
 9430TIP3   OH249780   1.468   4.569   6.417 -0.1893 -0.2859 -0.2242
 9430TIP3    H149781   1.406   4.601   6.352  0.1396  2.2394  0.5788
 9430TIP3    H249782   1.413   4.530   6.485 -0.9461  1.6520  0.3427
 9431TIP3   OH249783   2.326   1.144  12.044  0.4106 -0.1687 -0.0317
 9431TIP3    H149784   2.355   1.222  12.090  1.0297  0.6295 -1.6841
 9431TIP3    H249785   2.240   1.124  12.080 -0.1276  1.7821 -0.1563
 9432TIP3   OH249786   3.899   0.247  11.664  0.0797 -0.0522 -0.5841
 9432TIP3    H149787   3.899   0.326  11.718  0.5791  0.1785 -0.9174
 9432TIP3    H249788   3.974   0.197  11.696 -0.3985 -0.5248 -0.1872
 9433TIP3   OH249789   1.443   4.591  14.335 -0.5276 -0.6539 -0.1732
 9433TIP3    H149790   1.445   4.684  14.359  1.2293 -0.3608 -1.1958
 9433TIP3    H249791   1.365   4.582  14.280  0.4411  0.7952 -1.9234
 9434TIP3   OH249792   1.235   4.234  14.589 -0.1126  0.1155  0.2104
 9434TIP3    H149793   1.252   4.172  14.518  1.1290  0.6349  0.0205
 9434TIP3    H249794   1.295   4.307  14.572 -0.3726  0.6194  1.3401
 9435TIP3   OH249795   1.535   1.907   3.376 -0.9313  0.6578 -0.4456
 9435TIP3    H149796   1.502   1.824   3.410 -0.9010  0.7543 -0.1800
 9435TIP3    H249797   1.495   1.973   3.432  0.6299  0.7306  0.6278
 9436TIP3   OH249798   2.199   3.690   4.037 -0.4448 -0.0532  0.2079
 9436TIP3    H149799   2.238   3.757   3.981 -1.0989  0.4787  0.3864
 9436TIP3    H249800   2.121   3.661   3.990 -0.0552 -0.8450  0.0325
 9437TIP3   OH249801   3.416   0.267   5.208  0.6709 -0.0740 -0.1066
 9437TIP3    H149802   3.419   0.183   5.161 -0.3798 -0.5131  0.5646
 9437TIP3    H249803   3.370   0.246   5.289  1.2025  0.9773  0.4775
 9438TIP3   OH249804   3.696   3.242   5.241  0.0876  0.3494  0.2644
 9438TIP3    H149805   3.726   3.332   5.231 -1.2474  1.0065  1.7731
 9438TIP3    H249806   3.619   3.236   5.183 -0.6678  0.6424  1.2045
 9439TIP3   OH249807   6.359   0.981  14.474  0.1380  0.1196 -0.1949
 9439TIP3    H149808   6.303   0.903  14.471 -0.0821  0.2623  0.1468
 9439TIP3    H249809   6.327   1.036  14.403  0.9066 -0.5028 -1.0547
 9440TIP3   OH249810   2.625   3.556   1.273 -0.3957  0.0085  0.1142
 9440TIP3    H149811   2.619   3.470   1.314  0.7750  0.5851  1.6250
 9440TIP3    H249812   2.718   3.566   1.251  0.1988  2.0505  2.9086
 9441TIP3   OH249813   1.078   0.080   1.779  0.4114 -0.0425 -0.1463
 9441TIP3    H149814   1.103   0.097   1.870  0.3684 -1.7754  0.2363
 9441TIP3    H249815   0.993   0.121   1.769 -0.5966 -1.6132  1.3098
 9442TIP3   OH249816   1.663   0.310   4.329 -0.4349 -0.4896 -0.5619
 9442TIP3    H149817   1.646   0.230   4.280  0.3844  0.1081 -1.8795
 9442TIP3    H249818   1.720   0.362   4.272 -0.9780  1.0584  0.2364
 9443TIP3   OH249819   3.669   3.653  14.318  0.2031 -0.2358  0.1653
 9443TIP3    H149820   3.761   3.629  14.322 -0.0538 -1.6510 -1.3306
 9443TIP3    H249821   3.640   3.654  14.409  1.1823 -1.9803  0.5317
 9444TIP3   OH249822   6.320   3.029  12.771  0.0630  0.4141 -0.6119
 9444TIP3    H149823   6.246   3.061  12.721 -0.6256 -0.3550 -0.1149
 9444TIP3    H249824   6.396   3.075  12.735 -0.4477  0.1273 -2.1287
 9445TIP3   OH249825   3.866   4.978  15.479 -0.5093  0.2776  0.1175
 9445TIP3    H149826   3.941   4.921  15.465 -2.4922 -2.9781  1.6342
 9445TIP3    H249827   3.889   5.059  15.433  2.2779 -1.8566 -2.6852
 9446TIP3   OH249828   1.725   5.219  15.249 -0.6058  0.3209  0.0276
 9446TIP3    H149829   1.775   5.231  15.329 -0.6142 -0.3686  0.1353
 9446TIP3    H249830   1.776   5.266  15.182  0.7768 -1.2809 -0.0965
 9447TIP3   OH249831   0.896   2.475  15.606  0.8749 -0.7364 -0.3766
 9447TIP3    H149832   0.939   2.421  15.672  0.6866 -1.0151 -0.4804
 9447TIP3    H249833   0.810   2.435  15.595  1.1361 -1.0732 -1.2587
 9448TIP3   OH249834   5.308   6.342  16.684  0.2429  0.0583 -0.5795
 9448TIP3    H149835   5.307   6.429  16.724 -0.0892  0.1495 -0.7793
 9448TIP3    H249836   5.400   6.315  16.687 -0.0619 -0.9098  2.3237
 9449TIP3   OH249837   5.302   2.115  13.186  0.4429 -0.4560 -0.1092
 9449TIP3    H149838   5.250   2.117  13.105 -0.5950  0.2375  0.5538
 9449TIP3    H249839   5.243   2.147  13.254  1.5734 -0.1912  0.7858
 9450TIP3   OH249840   4.087   4.496  11.861  0.2360 -0.2202  0.1256
 9450TIP3    H149841   4.129   4.412  11.842 -1.3363 -2.1140  3.9025
 9450TIP3    H249842   4.009   4.473  11.912 -1.1699  3.5057  0.0066
 9451TIP3   OH249843   0.284   0.126  16.686  0.2886  0.5381  0.2420
 9451TIP3    H149844   0.272   0.208  16.638 -1.8299  1.0870  1.5732
 9451TIP3    H249845   0.367   0.138  16.732  1.0802  1.0188 -1.2369
 9452TIP3   OH249846   1.633   2.831  13.718  0.2747 -0.0712 -0.4353
 9452TIP3    H149847   1.586   2.848  13.800 -0.5322  0.2128 -0.9546
 9452TIP3    H249848   1.725   2.847  13.740 -0.0212  0.8284  0.2006
 9453TIP3   OH249849   2.760   2.491   6.418 -0.3147 -0.0020 -0.4927
 9453TIP3    H149850   2.771   2.481   6.324  0.6356 -1.2370 -0.2798
 9453TIP3    H249851   2.809   2.571   6.440 -1.6218  1.0329 -1.1924
 9454TIP3   OH249852   0.124   2.975  12.430 -0.1033  0.3325  0.1645
 9454TIP3    H149853   0.154   2.918  12.501  0.9116 -0.0691 -0.5554
 9454TIP3    H249854   0.205   3.004  12.387 -0.6930  0.7039 -0.7247
 9455TIP3   OH249855   3.500   3.528  14.141 -0.2494 -0.4691  0.7059
 9455TIP3    H149856   3.546   3.577  14.208  0.8281 -0.3761 -0.0745
 9455TIP3    H249857   3.569   3.493  14.084 -1.0166 -2.2000  0.7620
 9456TIP3   OH249858   5.022   5.414   1.665  0.3946  0.2126 -0.0159
 9456TIP3    H149859   4.952   5.475   1.640  0.0231  0.6364  1.8753
 9456TIP3    H249860   5.087   5.469   1.708  1.5648 -0.2951 -1.0935
 9457TIP3   OH249861   2.682   5.498   1.733 -0.1934  0.0772  0.0369
 9457TIP3    H149862   2.744   5.449   1.679 -0.7829  1.0418 -1.5936
 9457TIP3    H249863   2.664   5.440   1.807  0.2619 -1.5258 -1.0501
 9458TIP3   OH249864   1.871   3.494   5.758  0.1044  0.0948  0.2777
 9458TIP3    H149865   1.898   3.490   5.667  0.5910  0.8900  0.3778
 9458TIP3    H249866   1.861   3.402   5.784  0.1477 -0.1425 -0.5119
 9459TIP3   OH249867   3.346   2.386   4.187 -0.5872 -0.4096 -0.3693
 9459TIP3    H149868   3.297   2.450   4.135  0.1662 -0.2602 -0.9185
 9459TIP3    H249869   3.398   2.439   4.248 -0.7246 -0.5448 -0.1333
 9460TIP3   OH249870   4.237   2.405   3.985 -1.1119  0.3499  0.3016
 9460TIP3    H149871   4.301   2.340   4.012 -2.1815 -0.5351  0.7950
 9460TIP3    H249872   4.282   2.457   3.919  0.6312  0.7731  1.7383
 9461TIP3   OH249873   5.923   3.320   4.068 -0.3720 -0.1727  0.3299
 9461TIP3    H149874   5.856   3.306   4.135  0.1421  0.2486  0.9470
 9461TIP3    H249875   6.006   3.303   4.113 -0.0698 -1.1552 -0.5464
 9462TIP3   OH249876   5.254   2.390  17.167  0.2025 -0.5583  0.4518
 9462TIP3    H149877   5.219   2.303  17.189 -1.7802 -0.0654 -0.5295
 9462TIP3    H249878   5.349   2.381  17.178  0.1136 -3.0064 -0.1051
 9463TIP3   OH249879   4.801   6.684   0.447 -0.3321  1.0680 -0.0182
 9463TIP3    H149880   4.814   6.729   0.531  3.2144 -0.7057  0.5796
 9463TIP3    H249881   4.864   6.726   0.388 -1.7884  1.3247 -1.4478
 9464TIP3   OH249882   1.899   3.543  10.604 -0.3370  0.0112 -0.0598
 9464TIP3    H149883   1.825   3.604  10.602  0.9167  1.6008 -0.0335
 9464TIP3    H249884   1.898   3.501  10.518 -1.8225 -0.7506  0.2809
 9465TIP3   OH249885   5.527   6.265   4.791  0.1438  0.0677  0.3919
 9465TIP3    H149886   5.551   6.172   4.785  0.2810  0.1329 -0.1020
 9465TIP3    H249887   5.594   6.303   4.849 -0.2052 -0.2362  1.0083
 9466TIP3   OH249888   2.476   6.664   4.702  0.2485  0.5965  0.5678
 9466TIP3    H149889   2.472   6.681   4.608  0.7411 -0.6330  0.3135
 9466TIP3    H249890   2.501   6.748   4.740  0.3432  1.0321 -0.4222
 9467TIP3   OH249891   5.077   4.069   5.500  0.2796 -0.9190  0.4427
 9467TIP3    H149892   5.046   3.981   5.481  0.4772 -1.0532  0.7544
 9467TIP3    H249893   5.040   4.123   5.429 -0.2452 -1.1641  0.5272
 9468TIP3   OH249894   4.411   1.248   2.545 -0.0146  0.4523 -0.7534
 9468TIP3    H149895   4.319   1.246   2.572  0.1384  1.0625 -0.1533
 9468TIP3    H249896   4.437   1.339   2.557  1.2828 -0.1263  1.2052
 9469TIP3   OH249897   5.099   2.094  15.133 -0.3772  0.3079  0.0722
 9469TIP3    H149898   5.028   2.136  15.084  0.2243 -2.3512 -3.4499
 9469TIP3    H249899   5.179   2.136  15.101  0.0375 -1.5618 -1.5082
 9470TIP3   OH249900   3.836   0.429   5.194  0.0145  0.0778  0.2747
 9470TIP3    H149901   3.856   0.336   5.180 -0.1055 -0.0550  0.9556
 9470TIP3    H249902   3.743   0.431   5.215  0.2720  0.2043  1.4900
 9471TIP3   OH249903   5.565   1.107  14.293  0.3873  0.6592  0.3159
 9471TIP3    H149904   5.508   1.031  14.279  3.0765 -1.5928  0.6716
 9471TIP3    H249905   5.589   1.135  14.205  0.6521  0.0188  0.1733
 9472TIP3   OH249906   5.314   0.722   1.269  0.3205  0.0370  0.0385
 9472TIP3    H149907   5.371   0.688   1.338  0.7772  2.5114  0.9783
 9472TIP3    H249908   5.374   0.759   1.205 -0.1701 -0.1132 -0.5119
 9473TIP3   OH249909   4.378   6.343  13.075 -0.3205  0.3337 -0.1135
 9473TIP3    H149910   4.436   6.314  13.146 -0.4857  0.0668 -0.0906
 9473TIP3    H249911   4.436   6.352  12.999 -0.3459 -0.4799 -0.2378
 9474TIP3   OH249912   3.642   4.377   0.769  0.1481  0.1817  0.0407
 9474TIP3    H149913   3.590   4.365   0.848 -0.1037 -0.7937 -0.2670
 9474TIP3    H249914   3.662   4.288   0.739 -0.0913  0.5286 -1.2118
 9475TIP3   OH249915   1.156   3.645   6.441  0.2222  0.2392 -0.2480
 9475TIP3    H149916   1.154   3.601   6.526  2.5816  2.0663  0.8875
 9475TIP3    H249917   1.245   3.632   6.409 -0.6613 -0.6010 -2.6267
 9476TIP3   OH249918   0.465   3.834  13.158  0.4005  0.3590  0.1951
 9476TIP3    H149919   0.391   3.895  13.161 -0.0310 -0.1723  1.0618
 9476TIP3    H249920   0.453   3.785  13.077 -0.4813 -0.0480  0.5588
 9477TIP3   OH249921   0.064   4.844  13.755  0.0462  0.3302  0.4332
 9477TIP3    H149922  -0.032   4.841  13.754  0.0596 -2.0063 -0.9899
 9477TIP3    H249923   0.087   4.840  13.848 -1.2424 -0.6420  0.7350
 9478TIP3   OH249924   4.909   0.327   4.478 -0.1938  0.0362  0.0744
 9478TIP3    H149925   4.828   0.360   4.440 -0.4628 -0.5877  0.0866
 9478TIP3    H249926   4.881   0.274   4.553  0.0871 -1.5280 -0.8641
 9479TIP3   OH249927   5.125   1.726   6.362 -0.5961 -0.1555  0.0847
 9479TIP3    H149928   5.135   1.818   6.337  2.2163 -0.5990 -0.7043
 9479TIP3    H249929   5.104   1.728   6.455  0.2207  1.2880  0.2602
 9480TIP3   OH249930   4.670   6.765  13.462 -0.1734 -0.3120 -0.7523
 9480TIP3    H149931   4.600   6.729  13.407 -0.1920 -1.4421 -0.0310
 9480TIP3    H249932   4.751   6.732  13.423 -0.0998  0.1745 -1.0098
 9481TIP3   OH249933   0.997   4.541   4.551 -0.0549 -0.3462  0.1478
 9481TIP3    H149934   1.037   4.589   4.624  2.2106  0.7545 -1.6885
 9481TIP3    H249935   1.063   4.543   4.482 -2.5484 -0.2948 -2.4049
 9482TIP3   OH249936   0.977   4.379  14.989 -0.5030 -0.3388 -0.4573
 9482TIP3    H149937   1.024   4.338  14.917  2.8955  2.7729 -0.2857
 9482TIP3    H249938   1.036   4.373  15.064 -1.8146  0.8459  0.7425
 9483TIP3   OH249939   1.554   6.453   2.862 -0.5471 -0.2126 -0.1710
 9483TIP3    H149940   1.552   6.360   2.886  0.4298 -0.3023 -0.3823
 9483TIP3    H249941   1.490   6.494   2.920  1.1657 -0.5357  2.0761
 9484TIP3   OH249942   4.172   1.725   5.050 -0.1073 -0.3462  0.2220
 9484TIP3    H149943   4.109   1.706   4.981  0.1648  0.5600 -0.2880
 9484TIP3    H249944   4.253   1.682   5.022  0.2290  0.6835 -0.4401
 9485TIP3   OH249945   1.062   1.440   5.860  0.4919  0.2650  0.2630
 9485TIP3    H149946   1.067   1.466   5.768 -2.6724  0.4256  0.0197
 9485TIP3    H249947   1.114   1.360   5.866 -0.2048 -0.4180 -1.9603
 9486TIP3   OH249948   6.040   0.633  14.674 -0.3317 -0.2654 -0.4690
 9486TIP3    H149949   6.033   0.687  14.595 -1.3965  0.7256  0.2673
 9486TIP3    H249950   6.034   0.543  14.643 -1.8831  0.1404 -1.4290
 9487TIP3   OH249951   1.142   5.794  16.453 -0.2426 -0.1263 -0.0557
 9487TIP3    H149952   1.192   5.720  16.419 -0.1083  0.3209 -0.8583
 9487TIP3    H249953   1.051   5.769  16.443 -0.1903 -0.4547  0.2928
 9488TIP3   OH249954   3.569   3.050  13.153 -0.1957  0.2205  0.6423
 9488TIP3    H149955   3.663   3.065  13.160 -0.2206 -0.1890  2.2000
 9488TIP3    H249956   3.536   3.126  13.104  1.0763 -0.2241 -0.9985
 9489TIP3   OH249957   1.767   3.713  11.915  0.0506 -0.1697 -0.1829
 9489TIP3    H149958   1.736   3.624  11.903 -2.6688  0.8119 -1.2367
 9489TIP3    H249959   1.693   3.760  11.955  0.7068  2.0103 -1.3425
 9490TIP3   OH249960   4.977   5.136   1.918 -0.1773 -0.2556 -0.0117
 9490TIP3    H149961   4.940   5.080   1.986  0.5695 -0.4024  0.2788
 9490TIP3    H249962   5.023   5.076   1.859  3.2359  0.2094  1.9177
 9491TIP3   OH249963   3.124   0.561  12.891  0.2923 -0.1241  0.0711
 9491TIP3    H149964   3.168   0.617  12.827  1.3893 -1.2010 -0.1429
 9491TIP3    H249965   3.124   0.474  12.852 -1.5307 -0.2908  0.3318
 9492TIP3   OH249966   6.361   6.181  14.722 -0.3103  0.9876  0.3287
 9492TIP3    H149967   6.313   6.220  14.649 -0.3344  1.5736  0.6508
 9492TIP3    H249968   6.332   6.090  14.723 -0.5618  1.0564 -0.1837
 9493TIP3   OH249969   6.392   5.814  12.031 -0.4417 -0.4121 -0.0465
 9493TIP3    H149970   6.405   5.733  11.981 -1.7577 -1.7816  1.6833
 9493TIP3    H249971   6.315   5.855  11.992  0.3815  0.1551 -1.0932
 9494TIP3   OH249972   5.701   3.052  16.202 -0.7895 -0.1072  0.6770
 9494TIP3    H149973   5.775   3.006  16.242 -0.3281  1.4496  1.7211
 9494TIP3    H249974   5.659   2.986  16.147  0.9768 -1.2154  0.5673
 9495TIP3   OH249975   5.565   0.998   5.431 -0.0286 -0.7021  0.0929
 9495TIP3    H149976   5.492   1.012   5.492  0.2834 -1.3544  0.6278
 9495TIP3    H249977   5.634   0.960   5.485  0.4992 -0.6339 -0.5320
 9496TIP3   OH249978   6.475   4.522   2.398  0.5236  0.1023 -0.3925
 9496TIP3    H149979   6.407   4.586   2.418  2.4261  1.6660  1.5685
 9496TIP3    H249980   6.505   4.492   2.484  0.6846 -2.4014 -1.2533
 9497TIP3   OH249981   3.115   1.634   4.078  0.1394 -0.5275 -0.3881
 9497TIP3    H149982   3.182   1.583   4.033  0.2296 -0.1685 -0.6668
 9497TIP3    H249983   3.082   1.576   4.146  1.0050 -0.5613  0.0079
 9498TIP3   OH249984   0.316   2.385   5.365 -0.0327 -0.1862  0.4370
 9498TIP3    H149985   0.408   2.358   5.372  0.2635  1.2437  2.7158
 9498TIP3    H249986   0.268   2.302   5.364  1.2353 -0.9747 -1.0162
 9499TIP3   OH249987   6.413   0.200  11.980  0.0009 -0.0521 -0.0394
 9499TIP3    H149988   6.483   0.249  12.022  0.4844  1.3384 -2.2746
 9499TIP3    H249989   6.457   0.149  11.911 -0.8381 -1.6043  0.5021
 9500TIP3   OH249990   4.742   3.094  16.153 -0.1115 -0.1835  0.3757
 9500TIP3    H149991   4.777   3.062  16.236  0.4909 -1.0978 -0.2148
 9500TIP3    H249992   4.726   3.187  16.168 -2.1006 -0.7474  2.2068
 9501TIP3   OH249993   3.019   4.728   2.338 -0.1343  0.0766  0.4911
 9501TIP3    H149994   3.087   4.794   2.325 -1.1655  1.3945  1.5596
 9501TIP3    H249995   2.939   4.769   2.305 -0.5021 -1.3706 -0.5421
 9502TIP3   OH249996   1.156   5.285   5.249 -0.2380  0.1279  0.1575
 9502TIP3    H149997   1.245   5.304   5.279  0.0649 -0.9442 -0.0427
 9502TIP3    H249998   1.158   5.194   5.222 -1.1134  0.4043 -0.9208
 9503TIP3   OH249999   4.506   3.120   1.411  0.4477 -0.0187 -0.1314
 9503TIP3    H150000   4.595   3.089   1.396  0.3412  0.0987 -1.0273
 9503TIP3    H250001   4.472   3.064   1.482  0.5469 -1.3847 -1.1317
 9504TIP3   OH250002   6.324   2.573  13.022 -0.2125 -0.2172 -0.3096
 9504TIP3    H150003   6.248   2.515  13.021  0.6182 -1.4314 -3.3321
 9504TIP3    H250004   6.301   2.643  12.961 -0.2767  1.5133  1.5658
 9505TIP3   OH250005   5.295   3.739  13.323 -0.7778 -0.1844  0.5103
 9505TIP3    H150006   5.220   3.721  13.380 -1.1498  1.3808  0.5435
 9505TIP3    H250007   5.281   3.828  13.291  0.9270  0.0310  0.2652
 9506TIP3   OH250008   2.710   1.771  14.110 -0.1201  0.1084 -0.8839
 9506TIP3    H150009   2.767   1.703  14.146 -3.4139 -1.7471  1.3710
 9506TIP3    H250010   2.678   1.734  14.028 -0.0484 -0.0143 -0.8576
 9507TIP3   OH250011   2.626   0.883   5.775 -0.1702  0.3927 -0.0382
 9507TIP3    H150012   2.560   0.897   5.842 -0.3860 -0.8435  0.0313
 9507TIP3    H250013   2.622   0.962   5.720 -0.5386  1.0564  0.9160
 9508TIP3   OH250014   3.296   5.459  15.487  0.2568 -0.1378 -0.5879
 9508TIP3    H150015   3.332   5.373  15.511 -0.1420 -0.6583 -1.7946
 9508TIP3    H250016   3.304   5.463  15.392 -0.8920  0.6273 -0.6734
 9509TIP3   OH250017   1.018   3.001  16.077 -0.5862 -0.7817  0.0760
 9509TIP3    H150018   1.058   3.061  16.139  0.0738 -1.5424  0.4132
 9509TIP3    H250019   0.953   3.053  16.030  0.4245  0.3511 -0.1018
 9510TIP3   OH250020   6.521   4.881   3.763  0.4182 -0.1205 -0.1849
 9510TIP3    H150021   6.537   4.823   3.838  0.2451 -1.0004 -0.8140
 9510TIP3    H250022   6.558   4.965   3.789 -1.2175  0.1202  1.6392
 9511TIP3   OH250023   6.506   5.106   5.859 -0.1548  0.8534  0.1398
 9511TIP3    H150024   6.461   5.187   5.882 -0.1904  0.6733  0.7515
 9511TIP3    H250025   6.441   5.037   5.877  0.3336  0.5937  0.9894
 9512TIP3   OH250026   1.645   5.742   1.328 -0.0252  0.0334  0.1561
 9512TIP3    H150027   1.617   5.764   1.416  1.8056  1.7551  0.3934
 9512TIP3    H250028   1.593   5.799   1.271 -0.1498 -0.0004  0.2356
 9513TIP3   OH250029   1.379   5.615   4.361 -0.7051 -0.0615  0.7230
 9513TIP3    H150030   1.408   5.644   4.448  0.5397 -0.7538  0.5579
 9513TIP3    H250031   1.424   5.532   4.347  0.9280  1.0804 -1.5071
 9514TIP3   OH250032   1.749   0.770   1.259  0.0595 -0.5669 -0.2580
 9514TIP3    H150033   1.820   0.794   1.200 -0.0667  0.1539 -0.1308
 9514TIP3    H250034   1.790   0.715   1.325  0.4415 -0.3954 -0.3525
 9515TIP3   OH250035   3.805   0.700   4.826 -0.3009 -0.0814 -0.6763
 9515TIP3    H150036   3.793   0.609   4.853  0.8700  0.3470  1.4789
 9515TIP3    H250037   3.718   0.730   4.801 -1.3823 -0.7944  1.9947
 9516TIP3   OH250038   3.657   5.583   2.051  0.9755 -0.0260 -0.2621
 9516TIP3    H150039   3.701   5.502   2.025  0.9561  0.3305 -1.4848
 9516TIP3    H250040   3.584   5.591   1.989  0.1550  0.2271  0.7156
 9517TIP3   OH250041   3.146   1.084   5.260 -0.0012 -0.1087 -1.0104
 9517TIP3    H150042   3.172   1.133   5.338  0.9941 -0.3108 -1.2062
 9517TIP3    H250043   3.072   1.134   5.224  0.2952  0.6364 -0.5985
 9518TIP3   OH250044   2.780   1.622  11.275 -0.1046  0.2589  0.2072
 9518TIP3    H150045   2.800   1.635  11.182  6.1391 -1.4316  0.8855
 9518TIP3    H250046   2.782   1.710  11.313  0.4127  0.6884 -0.7957
 9519TIP3   OH250047   5.963   1.694   5.830 -0.4285  0.5233  0.1997
 9519TIP3    H150048   5.954   1.620   5.890  0.5020  1.5283  1.6270
 9519TIP3    H250049   6.001   1.655   5.750 -0.8932 -0.6918  0.5435
 9520TIP3   OH250050   2.241   4.227   5.912  0.2224 -0.3037 -0.6948
 9520TIP3    H150051   2.211   4.313   5.885  0.8376 -0.0057 -0.4455
 9520TIP3    H250052   2.246   4.177   5.830 -0.0478 -0.0806 -0.8510
 9521TIP3   OH250053   2.878   2.805   4.455 -0.5596  0.3147  0.2182
 9521TIP3    H150054   2.957   2.753   4.467 -0.3746  0.1356 -1.5203
 9521TIP3    H250055   2.858   2.796   4.362 -2.5185  0.5238  0.5896
 9522TIP3   OH250056   3.125   2.022   4.218 -0.1925 -0.5506 -0.4462
 9522TIP3    H150057   3.131   1.952   4.282 -2.4611 -0.7017 -0.3332
 9522TIP3    H250058   3.184   1.995   4.148  0.6975 -1.4289  0.6020
 9523TIP3   OH250059   3.794   3.455   4.918 -0.2915  0.0615 -0.1126
 9523TIP3    H150060   3.862   3.432   4.981 -0.7453 -1.5773 -0.1721
 9523TIP3    H250061   3.727   3.500   4.971 -0.9768 -1.8824  0.7839
 9524TIP3   OH250062   2.722   1.456  13.069  0.5425  0.1484  0.1366
 9524TIP3    H150063   2.753   1.391  13.132  0.8665  1.0880  0.9790
 9524TIP3    H250064   2.704   1.406  12.990  2.2359 -0.7475  0.2695
 9525TIP3   OH250065   5.491   2.324  15.461 -0.3894  0.2693 -0.4058
 9525TIP3    H150066   5.568   2.349  15.512 -1.0495  1.7516 -0.0785
 9525TIP3    H250067   5.428   2.293  15.526 -1.3273  2.4033 -0.1993
 9526TIP3   OH250068   1.369   1.880  17.183  0.7042  0.5094  0.2389
 9526TIP3    H150069   1.433   1.815  17.210 -1.3427 -2.5691 -1.6170
 9526TIP3    H250070   1.297   1.871  17.246  0.5751  1.3073  0.2174
 9527TIP3   OH250071   6.223   0.481  12.194 -0.1676 -0.0495 -0.1511
 9527TIP3    H150072   6.297   0.528  12.231 -0.8330  0.5502  0.4639
 9527TIP3    H250073   6.239   0.389  12.216 -0.6986  0.3091  2.0008
 9528TIP3   OH250074   3.303   6.706   4.627  0.5445 -0.2221 -0.0224
 9528TIP3    H150075   3.291   6.762   4.704  1.2957  0.9159 -0.7083
 9528TIP3    H250076   3.254   6.750   4.558  0.8394 -0.6242 -0.4931
 9529TIP3   OH250077   5.820   0.089  14.296  0.4364  0.1175 -0.0510
 9529TIP3    H150078   5.798   0.027  14.365 -0.4273  0.2775 -0.1686
 9529TIP3    H250079   5.826   0.036  14.217  0.9673  0.0038  0.0594
 9530TIP3   OH250080   3.036   1.871  14.481 -0.2296  0.3419  0.3931
 9530TIP3    H150081   3.074   1.790  14.447 -0.0572  0.1413  1.0359
 9530TIP3    H250082   3.000   1.915  14.405  1.2560  0.5272 -0.2363
 9531TIP3   OH250083   6.390   2.037  16.700  0.1006  0.0937 -0.2646
 9531TIP3    H150084   6.434   1.952  16.708 -2.6308 -1.5561 -1.1688
 9531TIP3    H250085   6.332   2.026  16.625 -0.8302  2.5765  0.0069
 9532TIP3   OH250086   0.792   5.296   3.420 -0.4243  0.3025 -0.0793
 9532TIP3    H150087   0.756   5.209   3.433 -2.1332  0.9184 -0.3665
 9532TIP3    H250088   0.751   5.349   3.488 -1.1738  1.3216 -1.2688
 9533TIP3   OH250089   2.533   2.085   6.038  0.0066  0.3081 -0.2430
 9533TIP3    H150090   2.448   2.052   6.009 -0.1117  0.2487  0.1665
 9533TIP3    H250091   2.541   2.055   6.129  0.7425 -0.2253 -0.4742
 9534TIP3   OH250092   0.023   6.662  13.467  0.4766 -0.4542  0.1757
 9534TIP3    H150093   0.052   6.670  13.558  0.6971  1.8612 -0.0328
 9534TIP3    H250094  -0.021   6.577  13.463 -0.6029 -0.1103  2.7401
 9535TIP3   OH250095   3.422   3.777   2.117 -0.4853  0.5908 -0.4040
 9535TIP3    H150096   3.428   3.806   2.208 -3.5554 -0.0735  0.1362
 9535TIP3    H250097   3.508   3.741   2.098  0.2538  0.6890  2.2672
 9536TIP3   OH250098   3.417   5.599   0.743 -0.3888  0.4570  0.8196
 9536TIP3    H150099   3.443   5.624   0.831  1.4694  0.7701  0.2151
 9536TIP3    H250100   3.454   5.667   0.687 -3.2073  1.3855 -0.0942
 9537TIP3   OH250101   5.397   5.087   0.334  0.1874 -0.3292  0.2860
 9537TIP3    H150102   5.376   5.045   0.251  1.2330 -2.2286  0.9280
 9537TIP3    H250103   5.355   5.031   0.400 -0.6337  1.1470  1.0538
 9538TIP3   OH250104   4.877   2.389   1.833  0.0613  0.6821 -0.2762
 9538TIP3    H150105   4.910   2.301   1.819 -1.4153 -0.1284  0.9782
 9538TIP3    H250106   4.929   2.423   1.906 -0.0493  0.4495 -0.0878
 9539TIP3   OH250107   1.205   5.176  15.513 -0.1468  0.0847  0.1005
 9539TIP3    H150108   1.284   5.154  15.463  0.4927  0.6782  0.8304
 9539TIP3    H250109   1.172   5.091  15.543  1.5510 -0.0578  1.7581
 9540TIP3   OH250110   6.177   6.785   5.774  0.3186  0.0221 -0.0764
 9540TIP3    H150111   6.231   6.856   5.809 -1.5230  1.6241 -0.3548
 9540TIP3    H250112   6.114   6.828   5.716  0.3064 -2.0544 -1.7379
 9541TIP3   OH250113   4.415   2.410  15.207  0.3299 -0.2257 -0.3839
 9541TIP3    H150114   4.411   2.318  15.181 -1.1385  0.1074 -1.4741
 9541TIP3    H250115   4.374   2.413  15.294  0.3336 -0.6080 -0.3704
 9542TIP3   OH250116   1.936   1.765   3.977 -0.6816 -0.4149 -0.2323
 9542TIP3    H150117   1.936   1.769   3.881 -2.7528  0.8025 -0.2317
 9542TIP3    H250118   1.956   1.855   4.005 -0.2870 -0.7166  0.4856
 9543TIP3   OH250119   6.027   3.296  16.323  0.0647  0.0598 -0.4726
 9543TIP3    H150120   6.115   3.316  16.356  0.6159 -3.0463  0.2060
 9543TIP3    H250121   6.042   3.252  16.239 -0.7174 -1.5754  0.2055
 9544TIP3   OH250122   0.431   3.465   1.104  0.6442  0.2807  0.5075
 9544TIP3    H150123   0.474   3.477   1.019 -0.7860  0.7176 -0.1902
 9544TIP3    H250124   0.345   3.504   1.092 -0.3344 -1.4622  1.5126
 9545TIP3   OH250125   5.193   2.245  13.723  0.0072  0.5759  0.5813
 9545TIP3    H150126   5.196   2.209  13.635  1.2110  0.3514  0.6889
 9545TIP3    H250127   5.110   2.292  13.728 -0.5153 -0.2148 -0.3446
 9546TIP3   OH250128   5.319   2.851  15.603  0.4468 -0.5587  0.2168
 9546TIP3    H150129   5.270   2.920  15.559 -0.1956 -1.1071  0.0512
 9546TIP3    H250130   5.300   2.772  15.552  0.6938 -0.9694  0.7498
 9547TIP3   OH250131   5.075   0.142   3.254 -0.0124 -0.0043  0.1767
 9547TIP3    H150132   4.999   0.087   3.237  0.6119 -0.8280 -0.0074
 9547TIP3    H250133   5.052   0.192   3.332 -1.0821  0.4123 -0.3738
 9548TIP3   OH250134   0.565   4.012  14.370 -0.9322 -0.4658  0.2175
 9548TIP3    H150135   0.554   3.981  14.281 -2.0812  0.5444 -0.0074
 9548TIP3    H250136   0.613   3.942  14.414 -1.1708 -1.3722 -0.9415
 9549TIP3   OH250137   1.571   0.320   5.316 -0.1192  0.1244  0.1464
 9549TIP3    H150138   1.624   0.399   5.327 -2.5287  1.8767 -0.2143
 9549TIP3    H250139   1.517   0.316   5.395 -0.2146 -1.0442  0.0404
 9550TIP3   OH250140   2.378   6.667  16.740 -0.7687  0.2855 -0.1027
 9550TIP3    H150141   2.388   6.612  16.818  2.3261  0.9077  0.0751
 9550TIP3    H250142   2.376   6.606  16.667  1.8270 -0.2289  0.1474
 9551TIP3   OH250143   3.684   2.355  16.493 -0.3707  0.2758  0.4996
 9551TIP3    H150144   3.749   2.425  16.495 -0.7527  0.8076 -1.9752
 9551TIP3    H250145   3.600   2.400  16.491 -0.7436 -0.3506  1.3771
 9552TIP3   OH250146   2.891   2.754  14.941  0.1933 -0.1891  0.1699
 9552TIP3    H150147   2.812   2.807  14.955 -1.2504 -1.5215 -2.2492
 9552TIP3    H250148   2.868   2.667  14.974  0.9007 -0.4257  0.0519
 9553TIP3   OH250149   0.980   2.645  16.426  0.5954  0.4591 -0.2157
 9553TIP3    H150150   0.975   2.669  16.334  1.3196  0.1133 -0.3468
 9553TIP3    H250151   0.900   2.594  16.441  0.2639  0.8769 -0.5409
 9554TIP3   OH250152   5.978   2.070  13.612  0.6449  0.0783 -0.4303
 9554TIP3    H150153   6.017   2.123  13.681  1.0813 -1.3259  0.4237
 9554TIP3    H250154   5.922   2.007  13.658  3.4281 -3.0780 -0.9675
 9555TIP3   OH250155   0.534   5.014   4.831  0.4464  0.3115  0.1569
 9555TIP3    H150156   0.557   5.062   4.911 -0.1637  0.0451  0.4990
 9555TIP3    H250157   0.451   4.971   4.852 -0.3568  1.2206 -1.0324
 9556TIP3   OH250158   3.889   3.309   5.788  0.1243 -0.0173 -0.3890
 9556TIP3    H150159   3.981   3.332   5.793 -0.2104  1.1713  1.0242
 9556TIP3    H250160   3.845   3.374   5.844 -1.2666 -2.1018  1.0975
 9557TIP3   OH250161   5.795   5.982  14.723 -0.2482  0.8780 -0.0393
 9557TIP3    H150162   5.804   5.940  14.809  0.8486 -3.1835 -1.8847
 9557TIP3    H250163   5.885   5.996  14.694 -0.5802  0.9245 -1.0675
 9558TIP3   OH250164   3.907   5.975   1.198 -0.4907 -0.2942 -0.0875
 9558TIP3    H150165   3.962   5.904   1.166  0.7066  0.7602 -0.4791
 9558TIP3    H250166   3.864   6.009   1.120 -1.6670 -1.0731  0.2103
 9559TIP3   OH250167   0.638   2.637   6.499  0.3646  0.0501 -0.0456
 9559TIP3    H150168   0.704   2.670   6.560  0.8802 -0.6145 -0.2255
 9559TIP3    H250169   0.560   2.623   6.554  0.3527  0.8717  0.1593
 9560TIP3   OH250170   3.943   1.776   5.217  0.2156 -0.0587 -0.2511
 9560TIP3    H150171   3.885   1.813   5.150  1.7093 -0.1983 -1.6703
 9560TIP3    H250172   4.023   1.753   5.170  1.2741 -0.2942  1.5710
 9561TIP3   OH250173   5.523   1.473  16.986  0.4829 -0.3684 -0.1417
 9561TIP3    H150174   5.542   1.534  16.915  1.4491 -0.1616  0.2748
 9561TIP3    H250175   5.439   1.503  17.022  1.9365  2.1166  1.4560
 9562TIP3   OH250176   5.773   5.173   5.156 -0.4185 -0.4380  0.2794
 9562TIP3    H150177   5.741   5.085   5.135 -0.4499 -0.2860 -0.3138
 9562TIP3    H250178   5.723   5.199   5.233  0.9827 -1.7517  1.7255
 9563TIP3   OH250179   1.558   2.832   5.219 -0.0388 -0.5118  0.4331
 9563TIP3    H150180   1.526   2.895   5.156  1.7123  0.0780  0.0706
 9563TIP3    H250181   1.604   2.766   5.167  0.5959 -0.5397  1.0067
 9564TIP3   OH250182   4.664   2.552   1.913 -0.2234 -0.3937  0.0799
 9564TIP3    H150183   4.737   2.491   1.899 -0.5403 -0.5907 -0.7938
 9564TIP3    H250184   4.615   2.515   1.986 -0.3798 -1.1777 -0.4050
 9565TIP3   OH250185   2.566   5.148   1.306  0.1524 -0.0047 -0.2674
 9565TIP3    H150186   2.626   5.076   1.325 -1.5501 -0.9850  1.8204
 9565TIP3    H250187   2.513   5.116   1.233 -0.1749 -0.6042  0.2317
 9566TIP3   OH250188   6.591   5.457  13.213 -0.6052  0.3245  0.5276
 9566TIP3    H150189   6.615   5.496  13.297  1.3210  0.9109 -0.2315
 9566TIP3    H250190   6.662   5.397  13.193 -1.1447  0.0314 -0.5902
 9567TIP3   OH250191   2.588   5.983   1.843 -0.1204  0.4856  0.2715
 9567TIP3    H150192   2.561   5.907   1.792 -0.7146 -0.3697  1.7918
 9567TIP3    H250193   2.684   5.974   1.848 -0.0642  0.5163 -0.5629
 9568TIP3   OH250194   0.978   1.328   0.104  0.4917 -0.2668 -0.4577
 9568TIP3    H150195   0.927   1.372   0.035 -0.4427 -1.5013 -0.5738
 9568TIP3    H250196   1.067   1.361   0.091  0.2668 -0.1914 -2.0276
 9569TIP3   OH250197   6.339   1.554  13.169 -0.2656  0.7633  0.2627
 9569TIP3    H150198   6.389   1.474  13.155 -0.5962  0.1739  2.1638
 9569TIP3    H250199   6.256   1.525  13.207 -2.0720  1.7297 -2.5873
 9570TIP3   OH250200   6.746   3.642   0.203  0.5345 -0.1071 -0.0674
 9570TIP3    H150201   6.749   3.601   0.117  2.2263  0.2450 -0.2072
 9570TIP3    H250202   6.807   3.716   0.196  0.4547  0.1066  1.3291
 9571TIP3   OH250203   3.166   3.570   0.720  0.2323  0.4227 -0.0051
 9571TIP3    H150204   3.202   3.481   0.716 -1.5301 -0.2871 -2.1285
 9571TIP3    H250205   3.113   3.570   0.800 -0.8208 -0.9303 -0.6515
 9572TIP3   OH250206   0.463   5.551  16.012  0.1777  0.3452  0.2540
 9572TIP3    H150207   0.414   5.525  15.934 -3.0139 -3.3171  3.0663
 9572TIP3    H250208   0.546   5.503  16.005 -0.5521 -0.8798 -0.3961
 9573TIP3   OH250209   0.999   0.377  16.887 -0.0235  0.4034  0.0256
 9573TIP3    H150210   1.061   0.437  16.929  0.9096  0.0296 -0.7826
 9573TIP3    H250211   0.997   0.404  16.796 -0.8639  0.2390 -0.0109
 9574TIP3   OH250212   0.460   1.768  11.986  0.2282  0.0649  0.5350
 9574TIP3    H150213   0.463   1.768  11.890 -0.6224  1.5329  0.4734
 9574TIP3    H250214   0.388   1.709  12.008 -0.6198  0.9310  0.1765
 9575TIP3   OH250215   1.472   1.405  13.838 -0.3267 -0.7405  0.2981
 9575TIP3    H150216   1.459   1.470  13.907 -0.0103 -0.0716 -0.2607
 9575TIP3    H250217   1.389   1.358  13.834 -1.2096  0.8029 -0.4793
 9576TIP3   OH250218   3.634   1.972   3.732 -0.0268  0.0483  0.1760
 9576TIP3    H150219   3.551   2.012   3.706 -0.7740 -0.7168  1.2630
 9576TIP3    H250220   3.616   1.934   3.818  1.1002 -1.2539 -0.1372
 9577TIP3   OH250221   3.809   0.792   5.868 -0.3723  0.0997  0.1148
 9577TIP3    H150222   3.763   0.875   5.859 -0.1622  0.1137 -1.0484
 9577TIP3    H250223   3.743   0.725   5.852  0.2757  0.1386 -3.6080
 9578TIP3   OH250224   4.299   4.703  13.366 -0.9837 -0.2077  0.2238
 9578TIP3    H150225   4.302   4.756  13.446 -0.2902  1.5523 -0.9017
 9578TIP3    H250226   4.210   4.669  13.364 -1.3380  0.5799  1.2169
 9579TIP3   OH250227   1.512   5.587  16.834  0.1426 -0.1339  0.2056
 9579TIP3    H150228   1.439   5.619  16.781  0.2421  2.0388  1.2591
 9579TIP3    H250229   1.472   5.563  16.918  0.5103  0.2578  0.4956
 9580TIP3   OH250230   2.362   3.837  15.144  0.1928 -0.0993 -0.1615
 9580TIP3    H150231   2.451   3.822  15.174 -0.1010  0.4597  1.0824
 9580TIP3    H250232   2.307   3.814  15.220 -0.6887  0.0200 -0.7444
 9581TIP3   OH250233   1.026   4.777  12.596  0.0640 -0.2542  0.5114
 9581TIP3    H150234   1.022   4.797  12.502 -0.4862  0.1257  0.6088
 9581TIP3    H250235   1.087   4.842  12.631 -0.2859  0.0711  0.5270
 9582TIP3   OH250236   0.681   0.405  16.295  0.0051  0.2391  0.0624
 9582TIP3    H150237   0.626   0.443  16.226 -0.7361 -0.5920  0.1779
 9582TIP3    H250238   0.770   0.423  16.267 -0.2954  0.1772 -0.9721
 9583TIP3   OH250239   6.661   2.109  16.974 -0.1130  0.2210  0.0786
 9583TIP3    H150240   6.726   2.039  16.964 -1.6653 -1.4703  1.2191
 9583TIP3    H250241   6.639   2.135  16.885  1.4696  0.2102 -0.3391
 9584TIP3   OH250242   6.326   4.565  11.072 -0.3628 -0.3174  0.5958
 9584TIP3    H150243   6.351   4.492  11.015 -1.5951 -1.4070  1.3878
 9584TIP3    H250244   6.278   4.625  11.015 -0.6188 -0.8564  0.2390
 9585TIP3   OH250245   5.277   3.350  14.322 -0.3227 -0.3191  0.0483
 9585TIP3    H150246   5.338   3.398  14.378 -0.2917 -1.3393  0.9246
 9585TIP3    H250247   5.308   3.260  14.325 -0.5005 -0.4482 -1.3973
 9586TIP3   OH250248   3.325   4.583  13.513 -0.0132  0.2321  0.3987
 9586TIP3    H150249   3.326   4.625  13.427 -1.7057  0.1819  0.3300
 9586TIP3    H250250   3.411   4.603  13.550  1.0000 -0.2627 -1.5303
 9587TIP3   OH250251   4.490   1.049   2.983 -0.1418  0.3856  0.4669
 9587TIP3    H150252   4.430   1.012   2.917  0.3566 -1.7791  1.1278
 9587TIP3    H250253   4.434   1.103   3.038 -1.2484 -0.4915  0.2482
 9588TIP3   OH250254   2.806   3.832  12.838  0.3555 -0.0523 -0.9908
 9588TIP3    H150255   2.766   3.898  12.893  3.4041  1.2111 -0.0550
 9588TIP3    H250256   2.818   3.874  12.753 -0.1976 -0.3909 -1.2405
 9589TIP3   OH250257   0.661   5.147  16.228 -0.2545  0.0355 -0.5665
 9589TIP3    H150258   0.689   5.216  16.288 -0.5885  0.0418 -0.4173
 9589TIP3    H250259   0.733   5.083  16.230 -0.0344  0.2840 -0.5557
 9590TIP3   OH250260   4.190   1.544  15.413  0.0218 -0.2769  0.0222
 9590TIP3    H150261   4.117   1.494  15.448 -1.3780  0.4610 -1.6491
 9590TIP3    H250262   4.264   1.521  15.468 -1.2623 -1.7535  1.2261
 9591TIP3   OH250263   0.599   2.862  16.101  0.2512 -0.2927 -0.2991
 9591TIP3    H150264   0.633   2.802  16.035  0.9377 -2.0752  1.5850
 9591TIP3    H250265   0.531   2.912  16.055 -0.5749 -2.7025 -1.8871
 9592TIP3   OH250266   5.558   2.534   3.669  0.0992 -0.1743  0.1359
 9592TIP3    H150267   5.652   2.517   3.675  0.4265  1.3299 -0.3436
 9592TIP3    H250268   5.521   2.487   3.744  1.2470 -0.6244  0.4530
 9593TIP3   OH250269   1.095   4.987   4.729 -0.1188  0.3824 -0.3454
 9593TIP3    H150270   1.160   5.051   4.754 -0.0533 -0.3264  1.4343
 9593TIP3    H250271   1.082   5.001   4.635  0.5481  2.3541 -0.1818
 9594TIP3   OH250272   2.102   0.752   2.581  0.4346 -0.7436  0.3232
 9594TIP3    H150273   2.079   0.790   2.666 -1.1476  0.5178 -0.6172
 9594TIP3    H250274   2.122   0.661   2.600 -1.3546 -0.8781  1.8582
 9595TIP3   OH250275   0.182   5.239  14.581  0.4392  0.0103  0.5637
 9595TIP3    H150276   0.116   5.256  14.648  0.6161  0.5328  0.6020
 9595TIP3    H250277   0.147   5.280  14.502  0.1901 -0.6778  0.3055
 9596TIP3   OH250278   3.126   3.169  13.587 -0.4676  0.5743 -0.2938
 9596TIP3    H150279   3.083   3.202  13.508 -0.0234  2.3730  0.1756
 9596TIP3    H250280   3.105   3.233  13.655 -0.4026 -0.6601  0.9543
 9597TIP3   OH250281   1.293   2.627  11.242 -0.5581  0.2696  0.5137
 9597TIP3    H150282   1.204   2.652  11.266 -0.7914 -1.4469  1.6096
 9597TIP3    H250283   1.349   2.692  11.284 -1.1973  0.0210  1.7763
 9598TIP3   OH250284   1.145   4.083  13.894 -0.5745 -0.5485 -0.3477
 9598TIP3    H150285   1.121   4.175  13.906  0.2734 -0.0284 -2.2156
 9598TIP3    H250286   1.241   4.083  13.899 -0.6088 -2.0178  3.5122
 9599TIP3   OH250287   0.475   1.737  11.699 -0.0966  0.0465  0.2853
 9599TIP3    H150288   0.491   1.643  11.686  0.3379 -0.1803  2.1666
 9599TIP3    H250289   0.400   1.756  11.643  0.7120 -1.0630 -1.2732
 9600TIP3   OH250290   6.583   0.215  14.833 -0.4002  0.1912  0.1635
 9600TIP3    H150291   6.665   0.252  14.866 -0.8014  0.5242  0.8156
 9600TIP3    H250292   6.610   0.150  14.769  0.3368  1.6601 -1.0869
 9601TIP3   OH250293   1.402   5.853  12.344 -0.2343 -0.4648 -0.0665
 9601TIP3    H150294   1.366   5.771  12.377 -0.5860 -0.3769 -0.2265
 9601TIP3    H250295   1.325   5.908  12.328  0.0453  0.9486  2.7205
 9602TIP3   OH250296   5.156   2.475  10.897 -0.0916 -0.0417 -0.9746
 9602TIP3    H150297   5.223   2.467  10.965 -0.1141 -0.2611 -0.9789
 9602TIP3    H250298   5.183   2.551  10.846  0.5715 -0.5681 -1.4326
 9603TIP3   OH250299   3.125   6.521   2.231 -0.4534  0.1117  0.2630
 9603TIP3    H150300   3.185   6.595   2.222 -0.7607  0.3785  0.3697
 9603TIP3    H250301   3.101   6.499   2.141 -2.8180  2.1870  0.2746
 9604TIP3   OH250302   1.835   2.796  13.237 -0.1157 -0.5246  0.0499
 9604TIP3    H150303   1.821   2.868  13.300  1.0297 -2.4768  2.7398
 9604TIP3    H250304   1.924   2.810  13.205 -0.2768 -0.1812 -0.2608
 9605TIP3   OH250305   3.177   4.256   4.503  0.0278 -0.6993 -0.8032
 9605TIP3    H150306   3.090   4.269   4.542 -0.8837 -0.4785 -2.8098
 9605TIP3    H250307   3.231   4.324   4.543  0.1132 -2.5525  2.6075
 9606TIP3   OH250308   6.084   6.163   2.041 -0.1096 -0.4931  0.1521
 9606TIP3    H150309   6.036   6.080   2.039 -1.8244  0.4614 -1.8177
 9606TIP3    H250310   6.029   6.221   2.094 -1.3055  0.6248 -2.1634
 9607TIP3   OH250311   2.850   0.403   6.119  0.0058 -0.2985 -0.1804
 9607TIP3    H150312   2.914   0.357   6.173 -0.3910 -1.1263 -0.4029
 9607TIP3    H250313   2.892   0.410   6.033  0.7052  1.1654  0.2402
 9608TIP3   OH250314   0.965   0.059   1.392 -0.1864  0.3616  0.1966
 9608TIP3    H150315   1.039   0.073   1.451  0.1658 -1.4287  0.2315
 9608TIP3    H250316   0.938  -0.032   1.407 -0.7639  0.1753 -1.6204
 9609TIP3   OH250317   2.077   5.265   6.776  0.2750 -0.6764 -0.1975
 9609TIP3    H150318   2.061   5.205   6.849 -0.1069  0.3700  0.6105
 9609TIP3    H250319   2.171   5.261   6.762  0.4549 -0.4113  0.8076
 9610TIP3   OH250320   0.114   1.057  16.852  0.0749 -0.1890 -0.4193
 9610TIP3    H150321   0.037   1.113  16.862  0.1642  0.8046 -3.9754
 9610TIP3    H250322   0.081   0.978  16.809  0.8243 -0.3363 -0.7459
 9611TIP3   OH250323   5.259   0.209  15.111 -0.0476  0.1768 -0.4902
 9611TIP3    H150324   5.166   0.191  15.104 -0.1880  0.6233  0.1285
 9611TIP3    H250325   5.301   0.143  15.056 -0.7367  0.0925 -0.9232
 9612TIP3   OH250326   3.907   3.737  16.454 -0.0993  0.5079  0.2125
 9612TIP3    H150327   3.823   3.774  16.425 -0.1541 -0.2599 -0.6598
 9612TIP3    H250328   3.968   3.757  16.382  0.1614 -0.0180  0.2860
 9613TIP3   OH250329   3.708   1.872  11.631  0.1636 -0.3420  0.0130
 9613TIP3    H150330   3.697   1.798  11.691  0.8539  0.6034  1.3458
 9613TIP3    H250331   3.620   1.909  11.623 -0.4488 -1.9320 -1.6049
 9614TIP3   OH250332   5.391   0.052  14.902  0.3223 -0.1210 -0.9874
 9614TIP3    H150333   5.394  -0.038  14.871  2.8297 -0.1952 -0.7426
 9614TIP3    H250334   5.416   0.105  14.826  1.0124  0.1611 -0.5792
 9615TIP3   OH250335   5.451   0.873   0.238 -0.0807 -0.1381  0.0441
 9615TIP3    H150336   5.444   0.780   0.218 -3.0834 -0.1644  0.6551
 9615TIP3    H250337   5.386   0.915   0.182  1.8134  1.7695 -0.8716
 9616TIP3   OH250338   4.876   4.029  11.325  0.0199 -0.2613 -0.3143
 9616TIP3    H150339   4.924   4.084  11.386  1.2802 -2.3868  0.7630
 9616TIP3    H250340   4.902   4.061  11.239  2.3627 -0.4094  0.2430
 9617TIP3   OH250341   0.279   5.568   4.655 -0.1327  0.1906  0.5801
 9617TIP3    H150342   0.187   5.574   4.629  0.0646  1.2972  0.0884
 9617TIP3    H250343   0.281   5.598   4.745  0.0644  2.6989 -0.1815
 9618TIP3   OH250344   1.262   2.709   6.212 -0.0139 -0.1475 -0.7985
 9618TIP3    H150345   1.311   2.765   6.152 -1.1791  0.0614 -1.5933
 9618TIP3    H250346   1.222   2.771   6.274 -0.8012 -0.1201 -1.3087
 9619TIP3   OH250347   3.140   6.477  11.995 -0.3961 -0.2334 -0.3574
 9619TIP3    H150348   3.162   6.560  12.038  0.1361 -1.1026  1.1284
 9619TIP3    H250349   3.167   6.490  11.904  1.1922  0.6750  0.2017
 9620TIP3   OH250350   3.801   3.652   4.236 -0.4838 -0.2783 -0.0957
 9620TIP3    H150351   3.746   3.582   4.199 -2.1235  0.8476  0.1303
 9620TIP3    H250352   3.851   3.608   4.305 -0.4782 -1.5035 -0.8322
 9621TIP3   OH250353   3.840   6.081   0.288  0.2161 -0.1287 -0.6928
 9621TIP3    H150354   3.867   6.095   0.198  0.7463 -0.4842 -0.5969
 9621TIP3    H250355   3.916   6.040   0.330 -0.1581 -0.3221 -0.1849
 9622TIP3   OH250356   4.576   1.933   3.605  0.1501 -0.0290  0.0522
 9622TIP3    H150357   4.536   1.904   3.523 -1.9466 -3.8182  2.1875
 9622TIP3    H250358   4.509   1.985   3.648  0.6427  0.5619  0.1241
 9623TIP3   OH250359   1.260   2.188   5.136  0.8706 -0.2418 -0.1579
 9623TIP3    H150360   1.211   2.178   5.054  0.2780  1.8779 -0.1230
 9623TIP3    H250361   1.193   2.195   5.203  1.1781  1.8173 -0.0016
 9624TIP3   OH250362   3.434   4.643  10.445 -0.1333 -0.3327 -0.2525
 9624TIP3    H150363   3.415   4.551  10.463  2.5113 -1.1582 -1.1068
 9624TIP3    H250364   3.451   4.681  10.531 -0.9676 -0.7200  0.0894
 9625TIP3   OH250365   2.198   0.362  17.223  0.5349  0.3873 -0.1924
 9625TIP3    H150366   2.158   0.424  17.162 -1.8531 -0.0092  0.8525
 9625TIP3    H250367   2.194   0.278  17.177 -0.3041  0.2678  0.0868
 9626TIP3   OH250368   1.397   2.948   3.146  0.3667 -0.3083 -0.0139
 9626TIP3    H150369   1.370   2.872   3.198  1.6219 -1.6371 -1.2279
 9626TIP3    H250370   1.323   2.964   3.087 -0.4174  0.2362  1.0725
 9627TIP3   OH250371   4.652   0.386   3.335  0.8498  0.3985  0.1419
 9627TIP3    H150372   4.666   0.420   3.246  0.5805  0.8395  0.2592
 9627TIP3    H250373   4.606   0.303   3.321  0.3903  0.6867 -0.1262
 9628TIP3   OH250374   3.099   0.391   0.872 -0.5255  0.1211  0.1130
 9628TIP3    H150375   3.067   0.345   0.794 -0.8892 -0.0657  0.3716
 9628TIP3    H250376   3.122   0.321   0.934  1.5611  0.1830 -0.4927
 9629TIP3   OH250377   5.021   1.222  14.032 -0.5353 -0.1515 -0.2829
 9629TIP3    H150378   4.961   1.296  14.027  0.2429  0.4142 -2.7049
 9629TIP3    H250379   5.035   1.196  13.940  2.1845 -0.8341  0.2481
 9630TIP3   OH250380   4.857   1.469   5.743  0.2027 -0.2632 -0.1426
 9630TIP3    H150381   4.930   1.530   5.748 -2.0805  2.9749 -2.4391
 9630TIP3    H250382   4.798   1.496   5.814  0.6643 -2.2248  1.0753
 9631TIP3   OH250383   2.917   3.635  11.435 -0.3550 -0.0140  0.2665
 9631TIP3    H150384   2.885   3.693  11.366  0.9640  0.3527 -0.0580
 9631TIP3    H250385   3.010   3.654  11.442 -0.4474 -0.0430  2.1705
 9632TIP3   OH250386   3.371   1.996   1.350 -0.7015  0.4733 -0.2213
 9632TIP3    H150387   3.370   1.992   1.445  0.6189 -0.7514 -0.2128
 9632TIP3    H250388   3.453   2.041   1.328 -1.8499  2.4330 -0.8076
 9633TIP3   OH250389   3.449   2.006  11.747 -0.7226 -0.2768 -0.0917
 9633TIP3    H150390   3.361   2.036  11.724 -0.6193  0.0442 -0.0656
 9633TIP3    H250391   3.471   2.053  11.827 -0.3641 -0.0453 -0.3206
 9634TIP3   OH250392   5.065   6.552   1.839  0.2126 -0.4709 -0.6666
 9634TIP3    H150393   5.060   6.467   1.796 -0.6369 -0.4525 -0.6113
 9634TIP3    H250394   4.979   6.591   1.826 -0.7389 -1.2205  2.6088
 9635TIP3   OH250395   4.802   3.320   1.618 -0.3183  0.3989  0.6264
 9635TIP3    H150396   4.845   3.402   1.594  1.8646 -0.7428  0.4704
 9635TIP3    H250397   4.795   3.271   1.536 -1.1064  0.1735  0.8130
 9636TIP3   OH250398   0.840   1.725  11.839  0.3587  0.3052  0.2100
 9636TIP3    H150399   0.844   1.691  11.750  0.1217  0.9355 -0.0528
 9636TIP3    H250400   0.818   1.649  11.893  0.3492 -0.0533 -0.2895
 9637TIP3   OH250401   5.995   0.303  10.931 -0.1346 -0.3780 -0.2034
 9637TIP3    H150402   5.916   0.317  10.879 -0.8539 -0.0050  0.9305
 9637TIP3    H250403   6.046   0.382  10.920 -0.6005 -0.0152  0.1586
 9638TIP3   OH250404   0.919   2.819   6.334 -0.5736  0.1431  0.7680
 9638TIP3    H150405   0.961   2.902   6.358 -0.5109 -0.2429  2.0584
 9638TIP3    H250406   0.904   2.827   6.240 -0.0390  1.3809  0.7593
 9639TIP3   OH250407   2.684   6.802   3.904  0.1040 -0.3191  0.0729
 9639TIP3    H150408   2.760   6.861   3.897  1.2851 -1.8707 -0.8824
 9639TIP3    H250409   2.668   6.774   3.814 -1.0782 -0.6896  0.3838
 9640TIP3   OH250410   6.781   3.578   6.724  0.4692 -0.2679  0.5973
 9640TIP3    H150411   6.869   3.609   6.702  0.2489 -0.2108 -0.2464
 9640TIP3    H250412   6.792   3.486   6.747  0.5332 -0.7157 -1.1257
 9641TIP3   OH250413   6.369   3.832  13.238 -0.5406 -0.6887 -0.2397
 9641TIP3    H150414   6.431   3.795  13.175 -0.1387 -1.8432  0.7803
 9641TIP3    H250415   6.422   3.847  13.317 -1.3778 -0.8481  0.3552
 9642TIP3   OH250416   0.655   2.866  16.432  0.3153  0.1091 -0.2688
 9642TIP3    H150417   0.669   2.902  16.520  2.0223 -2.1093  0.4747
 9642TIP3    H250418   0.683   2.936  16.373 -0.1192  1.3654  0.9705
 9643TIP3   OH250419   6.392   4.145  13.682 -0.3037  0.1107  0.5047
 9643TIP3    H150420   6.360   4.155  13.772 -1.4234  1.0642  0.0220
 9643TIP3    H250421   6.477   4.101  13.692  0.0162  0.9945  2.0861
 9644TIP3   OH250422   1.289   3.634   5.735 -0.2048 -0.0417  0.2236
 9644TIP3    H150423   1.323   3.562   5.788  0.7636 -0.9710 -1.5595
 9644TIP3    H250424   1.204   3.604   5.704 -0.8572  0.5791  1.3342
 9645TIP3   OH250425   6.697   1.668   1.861  0.2762  0.5456 -0.3049
 9645TIP3    H150426   6.785   1.700   1.882  1.3449 -1.6607 -1.0748
 9645TIP3    H250427   6.673   1.615   1.937 -0.4729  1.2372 -0.0475
 9646TIP3   OH250428   1.725   4.944  15.184 -0.1112 -0.2315  0.1953
 9646TIP3    H150429   1.735   5.031  15.223  0.4177 -0.5585  0.8131
 9646TIP3    H250430   1.805   4.933  15.132 -0.3917 -0.1641 -0.2475
 9647TIP3   OH250431   5.878   0.629  10.796  0.5624 -0.0787  0.0655
 9647TIP3    H150432   5.805   0.687  10.772  1.8791  0.9198 -1.6879
 9647TIP3    H250433   5.836   0.545  10.813 -1.1608  0.8233  0.5986
 9648TIP3   OH250434   1.513   1.011  14.295 -0.0794 -0.0116 -0.3459
 9648TIP3    H150435   1.553   0.998  14.380  2.1055  0.2337 -1.2771
 9648TIP3    H250436   1.464   1.093  14.303 -0.9304 -0.6155  0.9785
 9649TIP3   OH250437   3.122   2.497  17.135 -0.2228  0.1983  0.0132
 9649TIP3    H150438   3.089   2.473  17.048  0.3720 -2.6047  0.4708
 9649TIP3    H250439   3.044   2.517  17.186 -0.5955  1.5550 -1.0432
 9650TIP3   OH250440   2.191   4.886   5.507 -0.4470 -0.3555  0.4640
 9650TIP3    H150441   2.163   4.957   5.565 -0.7907 -0.8854  0.9649
 9650TIP3    H250442   2.276   4.859   5.541 -0.1252  0.0905  0.0181
 9651TIP3   OH250443   3.154   0.723   2.936 -0.0221  0.3575 -0.0756
 9651TIP3    H150444   3.072   0.721   2.984  0.2223  0.4700  0.3522
 9651TIP3    H250445   3.144   0.657   2.868  0.1776 -0.8331  1.0222
 9652TIP3   OH250446   2.076   2.530   5.963  0.0555  0.2431  0.4714
 9652TIP3    H150447   2.050   2.599   6.023  0.9035  1.3127 -0.3617
 9652TIP3    H250448   2.106   2.576   5.885 -0.7169 -1.1037 -0.6562
 9653TIP3   OH250449   2.220   2.373   4.239  0.2344  0.9996 -0.4314
 9653TIP3    H150450   2.216   2.309   4.311  0.6554  1.5766  0.1153
 9653TIP3    H250451   2.263   2.326   4.168 -0.1779  0.4215 -0.3045
 9654TIP3   OH250452   3.812   1.252  14.420  0.2837 -0.1416  0.4891
 9654TIP3    H150453   3.722   1.266  14.449 -0.2085 -1.7373 -0.1587
 9654TIP3    H250454   3.812   1.165  14.380  1.8071  0.3548 -0.7421
 9655TIP3   OH250455   3.110   6.497  16.364  0.9753 -0.4075 -0.3506
 9655TIP3    H150456   3.196   6.524  16.332  1.2171  1.9480  2.0041
 9655TIP3    H250457   3.048   6.541  16.305  1.4375  2.4383  1.0867
 9656TIP3   OH250458   2.479   1.944  13.638  0.5162  0.4347 -0.4004
 9656TIP3    H150459   2.558   1.899  13.610  0.7440 -0.3675  1.4143
 9656TIP3    H250460   2.481   1.940  13.734 -1.2535  1.2140 -0.2855
 9657TIP3   OH250461   4.307   6.096  11.014 -0.1903 -0.1526 -0.0804
 9657TIP3    H150462   4.338   6.149  11.088 -1.3154  1.1177 -0.4637
 9657TIP3    H250463   4.375   6.031  11.000  0.4233  0.0866  1.5610
 9658TIP3   OH250464   2.652   3.688   2.690  0.3414 -0.1184 -0.3619
 9658TIP3    H150465   2.598   3.628   2.638 -2.5071  0.6711  1.4454
 9658TIP3    H250466   2.740   3.676   2.657 -0.3584 -4.0206 -1.2483
 9659TIP3   OH250467   4.785   4.293  11.756 -0.2395  0.4189  0.2269
 9659TIP3    H150468   4.801   4.310  11.849  1.3760 -0.7523  0.1946
 9659TIP3    H250469   4.739   4.209  11.754  0.0495  0.2633 -0.0386
 9660TIP3   OH250470   0.414   3.206  12.584  0.5376  0.3677  0.7885
 9660TIP3    H150471   0.360   3.259  12.526 -0.4311 -0.6040  0.7747
 9660TIP3    H250472   0.501   3.207  12.543  0.1211  0.5557 -0.1024
 9661TIP3   OH250473   4.631   6.776   2.784 -0.0220 -0.4580  0.1207
 9661TIP3    H150474   4.653   6.685   2.806  0.2520 -0.3753  0.1910
 9661TIP3    H250475   4.560   6.768   2.720 -1.0874 -0.6873  1.3006
 9662TIP3   OH250476   1.385   4.585   2.944  0.4829 -0.2174  0.0718
 9662TIP3    H150477   1.312   4.626   2.897 -1.3380 -2.7810  0.4298
 9662TIP3    H250478   1.401   4.643   3.018 -1.9305 -0.0575  0.5583
 9663TIP3   OH250479   2.767   4.075   5.496  0.0160  0.4760  0.1046
 9663TIP3    H150480   2.791   4.063   5.404  1.8462 -0.9347  0.7077
 9663TIP3    H250481   2.847   4.106   5.538 -0.5515  0.2559  1.3831
 9664TIP3   OH250482   5.865   3.543  13.539 -0.1429 -0.3935 -0.4399
 9664TIP3    H150483   5.859   3.619  13.597  0.4263 -0.1516 -0.6913
 9664TIP3    H250484   5.783   3.495  13.554 -0.7358  0.5369 -0.6643
 9665TIP3   OH250485   0.572   2.222  11.889  0.4094 -0.0367 -0.3022
 9665TIP3    H150486   0.520   2.260  11.960  1.2590  1.4770 -0.4541
 9665TIP3    H250487   0.512   2.217  11.815 -0.4415 -1.4780  0.4273
 9666TIP3   OH250488   2.664   6.726   1.876 -0.3597 -0.0109 -0.5669
 9666TIP3    H150489   2.722   6.656   1.906 -1.7507 -1.0664 -0.2520
 9666TIP3    H250490   2.649   6.706   1.783  0.8650  1.0822 -1.0504
 9667TIP3   OH250491   3.384   2.459  13.154  0.2231 -0.1423 -0.3427
 9667TIP3    H150492   3.362   2.377  13.197 -0.7752  0.9430  1.3328
 9667TIP3    H250493   3.443   2.434  13.083 -2.7604 -2.7290 -2.1833
 9668TIP3   OH250494   3.695   6.716   5.686 -0.1200 -0.5860  0.2467
 9668TIP3    H150495   3.638   6.714   5.763  0.6610  0.8702  0.8879
 9668TIP3    H250496   3.688   6.805   5.652  0.4791 -0.8713 -0.6759
 9669TIP3   OH250497   3.680   3.925  11.716 -0.3475  0.1068  0.4167
 9669TIP3    H150498   3.613   3.948  11.780  1.9505  0.9130  2.7345
 9669TIP3    H250499   3.674   3.994  11.649 -1.1160  0.7657  1.1456
 9670TIP3   OH250500   2.193   5.027   0.108 -0.0621  0.0700  0.4956
 9670TIP3    H150501   2.198   5.047   0.015  0.1040  0.3693  0.5680
 9670TIP3    H250502   2.145   5.101   0.146 -1.8080 -0.9285  0.3704
 9671TIP3   OH250503   0.220   6.020  15.707  0.1921  0.3305 -0.5462
 9671TIP3    H150504   0.198   6.024  15.614  0.2673  1.4645 -0.5356
 9671TIP3    H250505   0.184   5.936  15.737  0.0019  0.0420 -1.5497
 9672TIP3   OH250506   4.883   3.033   4.821 -0.1509 -0.4038  0.1085
 9672TIP3    H150507   4.873   2.947   4.779 -0.2699 -0.2433 -0.1992
 9672TIP3    H250508   4.829   3.027   4.900 -0.1916 -0.5968  0.0681
 9673TIP3   OH250509   0.817   6.741  16.476 -0.5180  0.1870  0.6339
 9673TIP3    H150510   0.841   6.799  16.404 -1.5155  0.2857  0.3584
 9673TIP3    H250511   0.838   6.791  16.555  0.1311  0.2733  0.4091
 9674TIP3   OH250512   2.920   6.215  16.834 -0.3429 -0.1541  0.1969
 9674TIP3    H150513   2.855   6.156  16.797 -0.6961  0.9069 -0.9681
 9674TIP3    H250514   2.919   6.291  16.775  1.4478  0.1899  0.5470
 9675TIP3   OH250515   5.355   3.332   2.281 -0.2005  0.1944  0.2369
 9675TIP3    H150516   5.263   3.322   2.305 -0.5757  0.8415 -0.8516
 9675TIP3    H250517   5.353   3.357   2.189  1.1759 -1.8964 -0.4268
 9676TIP3   OH250518   6.172   6.729  10.865 -0.0332 -0.8158  0.2208
 9676TIP3    H150519   6.127   6.646  10.853  1.7186 -2.1005  1.9576
 9676TIP3    H250520   6.104   6.790  10.895 -0.8567 -2.3722  1.6420
 9677TIP3   OH250521   6.282   5.226   4.621 -0.3755  0.2971  0.0465
 9677TIP3    H150522   6.273   5.295   4.686 -1.7944  1.3872 -1.2480
 9677TIP3    H250523   6.356   5.253   4.567 -1.3222  1.2065 -0.8534
 9678TIP3   OH250524   2.889   1.524  10.806 -0.1922 -0.5248 -0.2943
 9678TIP3    H150525   2.899   1.579  10.727 -2.6461 -0.8824 -0.9220
 9678TIP3    H250526   2.914   1.436  10.777 -0.6656 -0.5743 -0.5584
 9679TIP3   OH250527   2.799   5.440   5.850  0.1314  0.6544  0.5774
 9679TIP3    H150528   2.732   5.379   5.881  0.5544  1.3116  2.9779
 9679TIP3    H250529   2.788   5.518   5.904  0.9812  1.9063 -0.9813
 9680TIP3   OH250530   0.434   6.641  16.776 -0.2089 -0.3104 -0.0908
 9680TIP3    H150531   0.422   6.684  16.861 -0.1022 -0.8793  0.2188
 9680TIP3    H250532   0.434   6.548  16.797  0.2628 -0.4416 -0.6598
 9681TIP3   OH250533   6.046   4.814  11.255  0.5796 -0.2242 -0.3182
 9681TIP3    H150534   6.123   4.841  11.206 -0.2725  0.2026 -1.4562
 9681TIP3    H250535   6.050   4.864  11.337  1.5145 -0.2424 -0.3441
 9682TIP3   OH250536   6.361   4.864  15.183  0.1573 -0.4490  0.6088
 9682TIP3    H150537   6.419   4.795  15.152 -0.3363 -0.8155  0.4944
 9682TIP3    H250538   6.316   4.896  15.105 -0.6676 -0.9840  0.8510
 9683TIP3   OH250539   2.196   5.510   0.083  0.4021 -0.2027 -0.3184
 9683TIP3    H150540   2.212   5.587   0.138  0.4861 -0.3491 -0.1366
 9683TIP3    H250541   2.252   5.524   0.006  0.4039 -0.0748 -0.2942
 9684TIP3   OH250542   0.638   4.303  14.402  0.1263 -0.0921  0.3384
 9684TIP3    H150543   0.627   4.211  14.426  1.0087 -0.3500 -0.1917
 9684TIP3    H250544   0.568   4.319  14.338  1.9536 -1.4035 -2.1722
 9685TIP3   OH250545   5.924   6.127   5.159  0.0338  0.2851 -0.1086
 9685TIP3    H150546   6.007   6.084   5.179  0.0408 -0.0794 -0.8530
 9685TIP3    H250547   5.936   6.218   5.187  0.8780  0.3620 -0.6785
 9686TIP3   OH250548   5.801   3.150   0.309  0.0226 -0.8343 -0.2654
 9686TIP3    H150549   5.821   3.198   0.389 -0.6162  1.3591 -1.3328
 9686TIP3    H250550   5.885   3.118   0.278  0.9369  1.8919 -0.8416
 9687TIP3   OH250551   0.876   3.698   2.589 -0.3166 -0.5927 -0.2564
 9687TIP3    H150552   0.857   3.606   2.568 -1.8853 -0.4288  0.3352
 9687TIP3    H250553   0.859   3.705   2.683  0.6120  0.1145 -0.1349
 9688TIP3   OH250554   0.923   2.041   2.893  0.3381  0.1890  0.5069
 9688TIP3    H150555   1.004   2.066   2.848  1.9177  0.6847  3.3740
 9688TIP3    H250556   0.911   2.110   2.959 -1.5986 -0.6939  1.1340
 9689TIP3   OH250557   1.195   4.999  12.467  0.1568 -0.2600 -0.2158
 9689TIP3    H150558   1.204   4.969  12.377  0.0080 -0.5452 -0.1365
 9689TIP3    H250559   1.125   5.063  12.464  0.2429 -0.1700 -0.3254
 9690TIP3   OH250560   4.787   2.578   6.361 -0.3032 -0.2951  0.5634
 9690TIP3    H150561   4.815   2.491   6.333 -2.1272 -1.7652  2.9287
 9690TIP3    H250562   4.716   2.602   6.301 -0.3145 -0.8091  0.3721
 9691TIP3   OH250563   4.194   1.406   5.773  0.2381 -0.3407  0.0964
 9691TIP3    H150564   4.199   1.460   5.852 -2.1498 -1.2799  1.0283
 9691TIP3    H250565   4.273   1.352   5.776  0.0284 -0.6424  2.1383
 9692TIP3   OH250566   0.309   0.607  15.407  0.3278  0.0639 -0.4254
 9692TIP3    H150567   0.227   0.638  15.369  0.0278 -1.7008 -1.3273
 9692TIP3    H250568   0.377   0.642  15.349  0.2685  1.7666  0.4872
 9693TIP3   OH250569   2.511   2.199  14.783  0.5027 -0.3984  0.5182
 9693TIP3    H150570   2.427   2.187  14.827  0.1366 -1.4317 -0.4039
 9693TIP3    H250571   2.491   2.252  14.706  0.6357 -0.8432  0.1689
 9694TIP3   OH250572   3.358   2.386  12.007  0.0821 -0.4102 -0.3064
 9694TIP3    H150573   3.413   2.325  11.957  0.3223 -0.9393  0.5716
 9694TIP3    H250574   3.377   2.472  11.970  0.1354 -0.8038 -1.2201
 9695TIP3   OH250575   3.783   4.197   5.491  0.0145 -0.1343 -0.2193
 9695TIP3    H150576   3.700   4.243   5.479  0.3094  0.0826 -1.5910
 9695TIP3    H250577   3.849   4.265   5.482  0.4030 -0.6035 -0.9673
 9696TIP3   OH250578   6.707   2.110  12.358  0.0417  0.1643  0.1655
 9696TIP3    H150579   6.705   2.015  12.345  1.9192 -0.0075  0.7876
 9696TIP3    H250580   6.616   2.137  12.352 -0.5673 -1.7179  0.2798
 9697TIP3   OH250581   3.894   5.065   5.912 -0.3939 -0.3417  0.9279
 9697TIP3    H150582   3.833   5.118   5.963  0.0798  0.1383  1.0112
 9697TIP3    H250583   3.976   5.069   5.962  0.3220  0.8076 -0.2636
 9698TIP3   OH250584   6.530   0.040  15.769  0.0130  0.2794 -0.4535
 9698TIP3    H150585   6.540  -0.051  15.799  0.7727  0.3598 -0.4609
 9698TIP3    H250586   6.500   0.088  15.846  3.4422  0.8080  0.7327
 9699TIP3   OH250587   5.905   4.086  15.298  0.5499  0.2927 -0.0555
 9699TIP3    H150588   5.984   4.039  15.324  1.2113  1.5003  0.2235
 9699TIP3    H250589   5.912   4.170  15.343 -0.2534  0.9135 -1.0431
 9700TIP3   OH250590   3.357   0.640   0.625  0.2129  0.6566  0.1397
 9700TIP3    H150591   3.332   0.566   0.680  2.2026 -0.6400 -0.5946
 9700TIP3    H250592   3.410   0.696   0.683 -1.2951  1.5821  0.6956
 9701TIP3   OH250593   4.725   5.138  13.775  0.2482 -0.0936  0.8887
 9701TIP3    H150594   4.806   5.144  13.825  1.0187 -0.5115 -0.2580
 9701TIP3    H250595   4.749   5.169  13.688 -1.0974  0.7845  0.8056
 9702TIP3   OH250596   4.754   3.356   1.144 -0.1951 -0.0785 -0.0404
 9702TIP3    H150597   4.817   3.324   1.079  0.4283  1.3352 -0.1735
 9702TIP3    H250598   4.681   3.391   1.091  0.3361  1.1217 -0.0205
 9703TIP3   OH250599   4.674   2.564  17.260  0.2264  0.2274  0.2150
 9703TIP3    H150600   4.704   2.577  17.170 -2.6722  0.9434 -0.7768
 9703TIP3    H250601   4.741   2.509  17.301  1.0454 -1.1725 -2.7524
 9704TIP3   OH250602   5.963   3.679  12.364 -0.2468  0.5224  0.4015
 9704TIP3    H150603   5.960   3.676  12.460 -0.1409  1.5868  0.4469
 9704TIP3    H250604   5.904   3.750  12.340  0.8266  1.2439 -0.2291
 9705TIP3   OH250605   2.415   5.100  16.563 -0.0654 -0.5349  0.3091
 9705TIP3    H150606   2.347   5.035  16.545 -1.1856  0.8071 -0.5098
 9705TIP3    H250607   2.437   5.136  16.477 -0.5002  1.1386  0.8482
 9706TIP3   OH250608   6.659   4.728  17.098  0.0777  0.0311  0.0115
 9706TIP3    H150609   6.567   4.727  17.126  0.3091 -2.2769  0.8484
 9706TIP3    H250610   6.671   4.645  17.052  1.6657  0.4915 -0.4549
 9707TIP3   OH250611   1.051   4.564   0.512  0.4041 -0.4404 -0.2985
 9707TIP3    H150612   1.035   4.493   0.573 -0.5366  0.0592  0.0603
 9707TIP3    H250613   0.969   4.574   0.464  1.1009 -0.7684 -1.5966
 9708TIP3   OH250614   5.639   0.791  12.578 -1.1746  0.0717  0.4263
 9708TIP3    H150615   5.678   0.772  12.663 -0.0507  0.9739  0.1459
 9708TIP3    H250616   5.648   0.885  12.567  1.8771 -0.3216 -2.0777
 9709TIP3   OH250617   2.621   6.678   2.290 -0.4879 -0.6147 -0.6096
 9709TIP3    H150618   2.711   6.708   2.280 -0.7172  1.6172  2.6199
 9709TIP3    H250619   2.628   6.594   2.334  0.0046 -1.3258 -2.0013
 9710TIP3   OH250620   4.065   3.012  12.545  0.0586  0.5843  0.2338
 9710TIP3    H150621   4.102   2.978  12.627 -1.1931  0.1084  0.6249
 9710TIP3    H250622   4.126   2.983  12.477 -0.0796 -0.9991  0.7444
 9711TIP3   OH250623   1.723   3.277   3.700  0.3199  0.1719  0.6425
 9711TIP3    H150624   1.806   3.296   3.657 -0.1384  1.8681  0.4447
 9711TIP3    H250625   1.664   3.254   3.628  0.7400 -1.7101  0.8370
 9712TIP3   OH250626   4.564   3.083   0.609 -0.3321 -0.1551 -0.1696
 9712TIP3    H150627   4.558   3.086   0.705  0.2713  3.1310 -0.1119
 9712TIP3    H250628   4.473   3.079   0.580 -0.6442  0.8935  0.5897
 9713TIP3   OH250629   5.358   3.604  14.522 -0.7951 -0.1762 -0.1848
 9713TIP3    H150630   5.311   3.658  14.585 -1.8963 -1.2132 -0.0647
 9713TIP3    H250631   5.328   3.634  14.436 -0.2028  0.4362 -0.1853
 9714TIP3   OH250632   3.251   3.854   0.673  0.2179  0.3527 -0.1637
 9714TIP3    H150633   3.220   3.764   0.671  0.2497  0.3223  0.5276
 9714TIP3    H250634   3.345   3.847   0.691  0.0970  0.5446  0.5547
 9715TIP3   OH250635   1.009   5.458   4.270 -0.0504 -0.0922  0.2179
 9715TIP3    H150636   1.045   5.504   4.194  0.1859 -1.4662 -0.5387
 9715TIP3    H250637   1.086   5.428   4.318 -0.1965 -0.3061  0.3194
 9716TIP3   OH250638   1.137   6.728   5.208 -0.1378 -0.2499 -0.0892
 9716TIP3    H150639   1.088   6.720   5.126 -1.6057  1.4918  0.5535
 9716TIP3    H250640   1.156   6.821   5.215 -1.9069  0.0094  2.5200
 9717TIP3   OH250641   2.015   2.907  16.275 -0.4435  0.6053 -0.3401
 9717TIP3    H150642   1.989   2.932  16.186  1.2779 -0.9857 -1.3686
 9717TIP3    H250643   2.085   2.968  16.297 -1.1905  1.3049  0.1470
 9718TIP3   OH250644   6.425   2.499   5.026 -0.0764 -0.3737  0.4467
 9718TIP3    H150645   6.430   2.562   4.954  0.2602 -1.3524 -0.3932
 9718TIP3    H250646   6.516   2.471   5.039 -0.3956 -1.6433 -0.0338
 9719TIP3   OH250647   4.101   4.451   3.692  0.0032 -0.0370 -0.8461
 9719TIP3    H150648   4.127   4.389   3.760 -1.5359  1.1147  0.8937
 9719TIP3    H250649   4.087   4.397   3.614  1.2351 -1.4817 -0.1216
 9720TIP3   OH250650   5.045   5.442  16.093 -0.2809 -0.4371  0.2572
 9720TIP3    H150651   5.044   5.506  16.022  0.2934 -0.8518 -0.1373
 9720TIP3    H250652   4.953   5.425  16.113 -0.4675 -0.8649 -0.8938
 9721TIP3   OH250653   6.781   2.533   3.673  0.4107  0.3356  0.1683
 9721TIP3    H150654   6.699   2.582   3.676 -0.4302 -0.7881 -2.1422
 9721TIP3    H250655   6.772   2.466   3.741  0.1560  1.2460  1.0581
 9722TIP3   OH250656   4.376   3.651  13.267  0.4568  0.0331 -0.6521
 9722TIP3    H150657   4.355   3.563  13.235 -0.3101 -0.2014  0.4411
 9722TIP3    H250658   4.309   3.707  13.228 -1.1635 -0.4203  1.3164
 9723TIP3   OH250659   1.404   5.569   5.710 -0.0442 -0.3404  0.4142
 9723TIP3    H150660   1.396   5.635   5.779  0.7672 -1.5094  1.6759
 9723TIP3    H250661   1.392   5.618   5.629  0.1868  1.2878  1.3180
 9724TIP3   OH250662   0.811   1.703   1.056 -0.0728 -0.4938  0.1541
 9724TIP3    H150663   0.873   1.633   1.035  0.4552 -0.1256  0.4516
 9724TIP3    H250664   0.758   1.668   1.127 -0.3956 -0.9179 -0.2954
 9725TIP3   OH250665   1.027   3.579  16.216  0.4615  0.0266 -0.9097
 9725TIP3    H150666   0.945   3.629  16.222  0.7093  0.3225  0.2373
 9725TIP3    H250667   1.083   3.631  16.159  1.5517  2.3191  2.0249
 9726TIP3   OH250668   4.895   0.397  10.604 -0.5304 -0.1296  0.1550
 9726TIP3    H150669   4.806   0.391  10.567 -0.2565 -0.6611 -0.4473
 9726TIP3    H250670   4.903   0.488  10.633 -0.7996  0.2956 -1.0353
 9727TIP3   OH250671   1.131   3.050   3.049  0.3075  0.2356  0.7542
 9727TIP3    H150672   1.115   3.016   3.137  1.1212 -0.7244  0.5504
 9727TIP3    H250673   1.111   3.144   3.055  0.8123  0.2730  2.0766
 9728TIP3   OH250674   1.233   2.735   3.206 -0.0957 -0.1215 -0.1808
 9728TIP3    H150675   1.187   2.752   3.289 -0.0536 -1.6836  0.1867
 9728TIP3    H250676   1.203   2.648   3.179  2.4452 -1.1308 -0.0448
 9729TIP3   OH250677   4.425   6.386  17.301 -0.2793  0.1039  0.5926
 9729TIP3    H150678   4.331   6.379  17.282 -0.5555 -1.9617  2.2438
 9729TIP3    H250679   4.461   6.301  17.276  0.9723  0.5379  0.8413
 9730TIP3   OH250680   2.078   5.397  15.877 -0.1025 -0.3199 -0.3867
 9730TIP3    H150681   2.043   5.344  15.948  0.9323  0.2078  0.5462
 9730TIP3    H250682   2.103   5.334  15.810 -0.1393 -0.9085  0.1479
 9731TIP3   OH250683   4.229   6.041   1.823 -0.2590  0.0493  0.4307
 9731TIP3    H150684   4.155   6.021   1.881  0.4838  0.0460  1.3921
 9731TIP3    H250685   4.297   5.978   1.849  0.3935  0.6350  0.1608
 9732TIP3   OH250686   3.504   4.529   0.168 -0.2049 -0.0672 -0.3916
 9732TIP3    H150687   3.572   4.573   0.116 -0.0031 -1.0855 -1.0289
 9732TIP3    H250688   3.495   4.443   0.127 -0.2517 -0.8036  1.0843
 9733TIP3   OH250689   5.286   1.214  10.922  0.4679 -0.7029 -0.2131
 9733TIP3    H150690   5.211   1.187  10.869 -1.1002  2.0622  0.4375
 9733TIP3    H250691   5.283   1.156  10.998 -1.0435 -0.6015 -0.1792
 9734TIP3   OH250692   2.775   4.738   4.858 -0.3656  0.2769  0.3166
 9734TIP3    H150693   2.694   4.697   4.829 -0.3066  0.5132 -0.2028
 9734TIP3    H250694   2.788   4.811   4.797 -0.5565  1.1694  1.3230
 9735TIP3   OH250695   1.510   5.955  15.451 -0.0333  0.0143  0.0690
 9735TIP3    H150696   1.414   5.954  15.451 -0.1203 -3.1291  1.3188
 9735TIP3    H250697   1.534   6.008  15.527 -0.7367  0.6896 -0.1652
 9736TIP3   OH250698   4.796   1.069  14.865 -0.5997 -0.2969  0.0987
 9736TIP3    H150699   4.730   1.134  14.889 -0.4352 -0.3978  0.8497
 9736TIP3    H250700   4.850   1.060  14.944 -0.6839 -1.4141  0.0420
 9737TIP3   OH250701   0.332   4.549   2.073  0.5194 -0.9793 -0.0131
 9737TIP3    H150702   0.367   4.613   2.011 -0.1275  0.4444  1.0450
 9737TIP3    H250703   0.401   4.539   2.139  0.6638 -1.4590 -0.2359
 9738TIP3   OH250704   4.437   2.878   1.607 -0.1083  0.0413 -0.8164
 9738TIP3    H150705   4.391   2.829   1.676 -0.7336 -1.2657 -2.0977
 9738TIP3    H250706   4.527   2.846   1.610 -0.2820 -0.4744 -0.9943
 9739TIP3   OH250707   5.846   1.309   4.350 -0.1893 -0.2800 -0.5382
 9739TIP3    H150708   5.750   1.304   4.345 -0.0693 -2.5824 -2.1257
 9739TIP3    H250709   5.867   1.275   4.437 -0.8093  1.1003  0.1841
 9740TIP3   OH250710   5.245   0.367   3.572  0.3544  0.5433  0.0692
 9740TIP3    H150711   5.337   0.386   3.558  0.9361 -3.0701 -2.4462
 9740TIP3    H250712   5.204   0.388   3.488 -0.1409 -2.1664 -0.4613
 9741TIP3   OH250713   3.861   0.338  15.157 -0.1457 -0.3278 -0.3581
 9741TIP3    H150714   3.946   0.322  15.199 -0.6579 -0.4002  0.7029
 9741TIP3    H250715   3.878   0.406  15.092  0.5349  0.3950  0.5478
 9742TIP3   OH250716   1.395   3.634   0.756  0.2478  0.2420  0.1428
 9742TIP3    H150717   1.320   3.591   0.716  0.9027 -1.6530  0.8359
 9742TIP3    H250718   1.417   3.706   0.697 -1.4718  0.2092 -0.5797
 9743TIP3   OH250719   4.517   4.809  14.312 -0.1668 -0.0321  0.3575
 9743TIP3    H150720   4.524   4.885  14.254 -0.3180 -0.6873 -0.5576
 9743TIP3    H250721   4.608   4.786  14.331 -0.0479 -0.7846 -0.9769
 9744TIP3   OH250722   6.714   1.115   3.999 -0.0303 -1.0136  0.2032
 9744TIP3    H150723   6.628   1.156   4.010  0.5444  0.0843  0.7165
 9744TIP3    H250724   6.743   1.142   3.913  0.5656  0.0966  0.7399
 9745TIP3   OH250725   5.998   1.837   0.788  0.0008  0.0273 -0.4118
 9745TIP3    H150726   5.988   1.791   0.705 -0.9353  0.7217 -0.6909
 9745TIP3    H250727   5.952   1.783   0.852 -1.3929  0.7178 -0.8006
 9746TIP3   OH250728   3.472   3.956  16.027 -0.4465 -0.0622  0.1332
 9746TIP3    H150729   3.398   4.004  15.990 -0.9835  0.6854  2.0555
 9746TIP3    H250730   3.546   4.017  16.020 -0.5372  0.0620  0.2554
 9747TIP3   OH250731   5.762   5.773   3.458 -0.3691  0.1041 -0.1406
 9747TIP3    H150732   5.736   5.728   3.539 -1.4975  2.4420  0.8860
 9747TIP3    H250733   5.854   5.751   3.448 -0.1788 -0.2121  1.8214
 9748TIP3   OH250734   0.879   5.459   4.569 -0.2058  0.2670 -0.0177
 9748TIP3    H150735   0.800   5.412   4.543  0.0303  1.0667 -2.4306
 9748TIP3    H250736   0.850   5.516   4.640 -1.7239  0.2323 -0.5545
 9749TIP3   OH250737   1.242   1.053   0.383 -0.4436  0.4848  0.0986
 9749TIP3    H150738   1.194   1.136   0.383 -1.2593  0.0300 -0.8317
 9749TIP3    H250739   1.182   0.990   0.342  0.4238 -0.4190  0.1676
 9750TIP3   OH250740   0.437   0.173  14.562  0.0547  0.2589 -0.2128
 9750TIP3    H150741   0.365   0.141  14.507  0.1415 -1.3957  0.5837
 9750TIP3    H250742   0.394   0.226  14.629 -0.4862 -0.9335  0.4157
 9751TIP3   OH250743   6.756   0.260  12.385  0.1684  0.2737  0.5454
 9751TIP3    H150744   6.726   0.239  12.474 -1.2381 -2.2810 -0.4189
 9751TIP3    H250745   6.828   0.198  12.370  1.7844  2.0444  0.5250
 9752TIP3   OH250746   2.885   6.044   5.699  0.5017 -0.1703  0.1872
 9752TIP3    H150747   2.957   6.099   5.730  1.2794  0.3050 -2.2461
 9752TIP3    H250748   2.922   5.956   5.692  0.5924 -0.0987 -0.2411
 9753TIP3   OH250749   0.308   1.695   5.643 -0.0739 -0.2035  0.2596
 9753TIP3    H150750   0.389   1.742   5.626 -0.7859  0.6030 -0.9935
 9753TIP3    H250751   0.336   1.615   5.688  1.1437  1.5026  2.7812
 9754TIP3   OH250752   2.335   4.900   3.816  0.0921 -0.1004 -0.0781
 9754TIP3    H150753   2.261   4.956   3.792  1.1072  1.2580 -0.1530
 9754TIP3    H250754   2.310   4.813   3.784 -1.5359  0.2789  0.0602
 9755TIP3   OH250755   4.983   6.504   5.073  0.3656 -0.3368  0.1813
 9755TIP3    H150756   5.042   6.509   4.998 -0.3134  0.1360 -0.3383
 9755TIP3    H250757   5.011   6.575   5.131 -0.4549  0.7038 -0.6510
 9756TIP3   OH250758   3.809   4.378  16.860 -0.6190  0.2754 -0.3582
 9756TIP3    H150759   3.814   4.366  16.765  1.9984  0.5814 -0.3263
 9756TIP3    H250760   3.870   4.449  16.879  0.1529 -0.8646  1.7091
 9757TIP3   OH250761   6.781   1.033  13.936 -0.4492 -0.1621 -0.1986
 9757TIP3    H150762   6.714   1.011  14.001 -1.8024  2.9074 -0.3986
 9757TIP3    H250763   6.734   1.029  13.852 -0.2735  1.3745 -0.3989
 9758TIP3   OH250764   5.022   3.229  14.182 -0.1086  0.2174  0.2643
 9758TIP3    H150765   5.083   3.286  14.135 -0.0546 -0.1981 -0.1714
 9758TIP3    H250766   4.943   3.283  14.193  0.1487  0.5758  0.3683
 9759TIP3   OH250767   3.765   3.928  16.249  0.3215  0.2201 -0.3367
 9759TIP3    H150768   3.816   4.003  16.281  0.5041 -0.5709  1.3393
 9759TIP3    H250769   3.715   3.963  16.176  1.3165  1.6717 -0.3791
 9760TIP3   OH250770   2.010   2.165  13.135 -0.1627 -0.1344  1.0611
 9760TIP3    H150771   1.965   2.200  13.058 -1.0882 -0.3202  1.4977
 9760TIP3    H250772   2.102   2.184  13.120 -0.4102  0.4775  0.2477
 9761TIP3   OH250773   6.193   4.643   0.664 -0.3573 -0.4102  0.1771
 9761TIP3    H150774   6.222   4.625   0.753  0.6223 -1.2590 -0.2966
 9761TIP3    H250775   6.106   4.683   0.675  0.7614  1.7973  1.5933
 9762TIP3   OH250776   5.308   2.971   1.842 -0.3280  0.5060  0.4841
 9762TIP3    H150777   5.310   3.067   1.849 -0.5388  0.4534  1.4234
 9762TIP3    H250778   5.295   2.941   1.932 -1.8559 -0.3678  0.0040
 9763TIP3   OH250779   2.224   5.103   1.526  0.7518  0.0342 -0.0542
 9763TIP3    H150780   2.209   5.197   1.534  0.0272 -0.0601 -0.2580
 9763TIP3    H250781   2.165   5.075   1.456  1.1521 -0.5316 -0.1777
 9764TIP3   OH250782   3.233   0.750  12.704  0.0907  0.4892  0.1985
 9764TIP3    H150783   3.214   0.838  12.738  3.0122  1.0356  0.7176
 9764TIP3    H250784   3.295   0.766  12.633 -1.2066 -1.0616 -1.3771
 9765TIP3   OH250785   1.910   1.770  13.945 -0.2728  0.1840 -0.2698
 9765TIP3    H150786   1.944   1.682  13.927  0.5851  0.0292  1.7647
 9765TIP3    H250787   1.894   1.808  13.859  3.7600 -0.2718 -1.3927
 9766TIP3   OH250788   2.022   1.851  11.554  0.3289  0.1798  0.1234
 9766TIP3    H150789   1.953   1.908  11.589 -0.2200 -1.2200  1.4669
 9766TIP3    H250790   2.098   1.908  11.545 -0.1633  1.1236  1.5163
 9767TIP3   OH250791   3.295   3.436  10.787 -0.7905 -0.0297 -0.1578
 9767TIP3    H150792   3.353   3.476  10.722 -0.2689 -0.5741 -0.0411
 9767TIP3    H250793   3.328   3.467  10.871 -2.6547  2.2460 -0.1811
 9768TIP3   OH250794   3.921   6.249   5.329  0.5953  0.8515 -0.3759
 9768TIP3    H150795   3.966   6.204   5.258  0.3584  2.0823 -1.3401
 9768TIP3    H250796   3.990   6.267   5.393  1.0625  0.8729 -0.8794
 9769TIP3   OH250797   3.021   4.019   0.178 -0.4723  0.1039 -0.3974
 9769TIP3    H150798   3.081   3.987   0.245  1.6681 -1.6213 -2.8858
 9769TIP3    H250799   2.937   3.978   0.199 -0.1783  0.5384  1.8048
 9770TIP3   OH250800   1.558   4.843  14.978 -0.4042  0.3933  0.3167
 9770TIP3    H150801   1.551   4.930  14.940 -2.9520  0.6472  1.2075
 9770TIP3    H250802   1.612   4.855  15.056  0.1968  0.9083 -0.1613
 9771TIP3   OH250803   1.968   4.226  12.934 -0.1105  0.3305  0.0724
 9771TIP3    H150804   1.929   4.173  12.864  0.0189 -0.2138  0.4075
 9771TIP3    H250805   2.062   4.206  12.929  0.0693  1.2239 -0.3832
 9772TIP3   OH250806   4.188   2.698  11.806 -0.1911 -0.0990  0.3994
 9772TIP3    H150807   4.158   2.751  11.732  0.3994  0.4824  0.5545
 9772TIP3    H250808   4.109   2.682  11.858 -0.2879  1.2124  0.6954
 9773TIP3   OH250809   1.218   4.300   2.449 -0.0609 -0.1633  0.5143
 9773TIP3    H150810   1.157   4.351   2.502 -0.9016  0.8027 -1.3095
 9773TIP3    H250811   1.287   4.361   2.426  1.0016 -0.9285  1.5380
 9774TIP3   OH250812   5.913   4.858   1.613 -0.7117 -0.2108  0.7972
 9774TIP3    H150813   5.968   4.903   1.550  0.0771  1.0659  2.3420
 9774TIP3    H250814   5.863   4.795   1.560  1.1983 -0.4581 -0.8324
 9775TIP3   OH250815   3.470   6.105  14.359  0.1629  0.3897  0.2412
 9775TIP3    H150816   3.475   6.015  14.391 -0.0640  0.5541  0.7497
 9775TIP3    H250817   3.445   6.096  14.267 -4.9335 -0.0208  1.3453
 9776TIP3   OH250818   5.964   6.471   3.651  0.7135 -0.2413 -0.4969
 9776TIP3    H150819   5.886   6.461   3.597  0.6494  0.0572 -0.4618
 9776TIP3    H250820   6.014   6.540   3.608 -0.3409  1.5299  0.9672
 9777TIP3   OH250821   5.437   2.718   2.112 -0.4185  0.1213  0.3913
 9777TIP3    H150822   5.479   2.689   2.192  3.4835  1.6897 -0.8782
 9777TIP3    H250823   5.461   2.651   2.047 -0.7425  0.5477 -0.1728
 9778TIP3   OH250824   5.202   3.655  15.803 -0.4574  0.1852 -0.4123
 9778TIP3    H150825   5.262   3.615  15.740 -0.8817  0.4679 -1.0079
 9778TIP3    H250826   5.210   3.749  15.788  0.1492  0.3130  0.6265
 9779TIP3   OH250827   5.701   1.364  13.087  0.2589 -0.2649  0.1720
 9779TIP3    H150828   5.766   1.295  13.074  0.1354 -0.5730  1.0878
 9779TIP3    H250829   5.741   1.423  13.152 -0.8429 -1.1334  1.7226
 9780TIP3   OH250830   0.832   1.658   4.119  0.6256 -0.0815 -0.4004
 9780TIP3    H150831   0.824   1.574   4.164  0.2803  0.1260 -0.0694
 9780TIP3    H250832   0.835   1.723   4.190  1.2479  0.1585 -0.6373
 9781TIP3   OH250833   1.368   1.705  14.781 -0.1204 -0.3392 -0.2226
 9781TIP3    H150834   1.457   1.675  14.760 -0.5052 -0.5419 -1.7153
 9781TIP3    H250835   1.338   1.646  14.849  1.2342  0.3457  1.0227
 9782TIP3   OH250836   3.546   0.789  16.747 -0.8284  0.0500  0.5600
 9782TIP3    H150837   3.587   0.815  16.829  0.2296  2.3136 -0.5867
 9782TIP3    H250838   3.497   0.867  16.720 -1.9424 -0.9874 -0.4813
 9783TIP3   OH250839   0.582   5.425  16.555  0.1374  0.5623 -0.1758
 9783TIP3    H150840   0.566   5.437  16.462 -2.2554  0.1728  0.1268
 9783TIP3    H250841   0.512   5.367  16.584  1.2234  0.1347  1.7551
 9784TIP3   OH250842   1.929   1.387  11.511  0.5164  0.0042 -0.4610
 9784TIP3    H150843   2.010   1.436  11.494  0.9309 -0.6416 -0.3570
 9784TIP3    H250844   1.918   1.331  11.434  1.7846 -2.0953  0.8114
 9785TIP3   OH250845   2.075   1.428  16.120 -0.0040  0.4418 -0.0064
 9785TIP3    H150846   2.076   1.350  16.064  1.3903 -0.3177  1.0113
 9785TIP3    H250847   2.049   1.499  16.061 -0.8203 -0.7022 -1.0709
 9786TIP3   OH250848   4.604   4.777   0.509  0.6223  0.0433  0.3495
 9786TIP3    H150849   4.593   4.855   0.455  0.4275  1.0909  1.8463
 9786TIP3    H250850   4.517   4.761   0.547  0.9586 -0.1126  1.0722
 9787TIP3   OH250851   5.940   6.271  11.008 -0.2471 -0.3077 -0.1754
 9787TIP3    H150852   5.910   6.328  11.078  2.5976 -1.0323  1.7872
 9787TIP3    H250853   6.022   6.309  10.978  0.7885 -2.3076 -0.0712
 9788TIP3   OH250854   3.769   3.239   6.191 -0.2275 -0.1826 -0.1728
 9788TIP3    H150855   3.693   3.272   6.238 -0.2124 -1.1906  0.6034
 9788TIP3    H250856   3.779   3.149   6.222  2.0844  0.3272  0.7599
 9789TIP3   OH250857   2.747   2.131   3.408  0.3779  0.0099 -0.7962
 9789TIP3    H150858   2.702   2.193   3.466  0.1910 -0.7768 -0.0916
 9789TIP3    H250859   2.823   2.180   3.376 -1.7058  1.9510 -3.2670
 9790TIP3   OH250860   4.201   0.233  11.290  0.3629  0.8209 -0.2166
 9790TIP3    H150861   4.230   0.311  11.337 -2.0342  0.7496  1.5745
 9790TIP3    H250862   4.130   0.198  11.343 -0.0910 -1.3767 -2.0996
 9791TIP3   OH250863   3.853   0.500  14.374 -0.1117 -0.1307 -0.0900
 9791TIP3    H150864   3.814   0.579  14.337 -0.2168 -0.1918 -0.1097
 9791TIP3    H250865   3.939   0.528  14.405 -0.7800  0.3787  1.4020
 9792TIP3   OH250866   2.141   0.894   1.668 -0.0400  0.4909 -0.5102
 9792TIP3    H150867   2.167   0.838   1.595 -0.9362 -1.4471  0.5803
 9792TIP3    H250868   2.057   0.858   1.697  0.7612  0.5325  2.0874
 9793TIP3   OH250869   5.049   6.770  13.103 -0.5248  0.1204 -0.1261
 9793TIP3    H150870   4.971   6.815  13.070 -0.9637 -0.2205  0.4166
 9793TIP3    H250871   5.100   6.839  13.145 -2.6762 -0.2330  3.5215
 9794TIP3   OH250872   1.332   0.485  14.105  0.3331  0.0608  0.3095
 9794TIP3    H150873   1.263   0.447  14.158 -2.2064  0.6158 -2.3296
 9794TIP3    H250874   1.369   0.555  14.159 -0.8300 -0.5570  1.9726
 9795TIP3   OH250875   1.700   6.249  14.578 -0.1292  0.1438 -0.2872
 9795TIP3    H150876   1.791   6.230  14.557 -0.2258 -1.4631  0.5793
 9795TIP3    H250877   1.657   6.263  14.494  0.9278  1.0777 -0.6950
 9796TIP3   OH250878   0.975   5.706  15.343 -0.1534  0.3651 -0.1653
 9796TIP3    H150879   0.892   5.695  15.388 -0.7194  1.2148 -0.9597
 9796TIP3    H250880   1.023   5.769  15.397  0.8835 -1.6699  1.4394
 9797TIP3   OH250881   6.394   0.966  16.413 -0.4170 -0.0451 -0.0112
 9797TIP3    H150882   6.310   0.963  16.459  0.1277  0.8532  1.1048
 9797TIP3    H250883   6.457   0.933  16.476  0.2447  0.4675 -0.3941
 9798TIP3   OH250884   6.405   1.897  15.226  0.0205 -0.0815  0.1824
 9798TIP3    H150885   6.418   1.987  15.195 -2.5652  0.4960  0.5570
 9798TIP3    H250886   6.351   1.856  15.158  0.7883 -1.2427  0.2436
 9799TIP3   OH250887   1.180   0.010  11.284  0.2263 -0.7777 -0.3603
 9799TIP3    H150888   1.190  -0.006  11.378 -1.1556  1.3423  0.1935
 9799TIP3    H250889   1.172   0.105  11.276  0.3969 -0.9063 -2.6467
 9800TIP3   OH250890   3.530   6.510  12.882  0.7254  0.0022  0.1218
 9800TIP3    H150891   3.466   6.477  12.820  0.0105 -0.6761  1.1775
 9800TIP3    H250892   3.614   6.475  12.851  0.1892 -1.5367  0.3341
 9801TIP3   OH250893   4.826   6.737  11.820  1.2756  0.4253  0.1094
 9801TIP3    H150894   4.806   6.666  11.758  0.1953  0.7842  0.0147
 9801TIP3    H250895   4.874   6.802  11.769  3.5679 -0.8275  0.5345
 9802TIP3   OH250896   1.990   1.775   0.876 -0.4569  0.0282  0.0373
 9802TIP3    H150897   1.927   1.755   0.807  1.3830  2.8002 -2.7251
 9802TIP3    H250898   1.960   1.858   0.912 -0.4477 -0.5525  1.4583
 9803TIP3   OH250899   3.025   1.678   6.008 -0.7132  0.5513  0.4193
 9803TIP3    H150900   2.971   1.757   6.016 -1.2647  0.1370  0.8154
 9803TIP3    H250901   3.029   1.642   6.097 -0.9634 -0.1988  0.1328
 9804TIP3   OH250902   0.018   5.720  12.900  0.7539 -0.6346 -0.0772
 9804TIP3    H150903   0.033   5.790  12.964  0.4883  0.2550 -0.9658
 9804TIP3    H250904   0.100   5.671  12.899  1.0481 -0.1665  0.3618
 9805TIP3   OH250905   6.670   1.094  12.769  0.3589  0.2872 -0.7263
 9805TIP3    H150906   6.619   1.100  12.850 -0.4642 -1.4627 -1.0526
 9805TIP3    H250907   6.759   1.073  12.798  0.3271  0.7814 -0.2485
 9806TIP3   OH250908   1.926   6.052   0.154  0.0222  0.3421 -0.1146
 9806TIP3    H150909   1.958   5.977   0.103  3.1676 -0.3864  2.4986
 9806TIP3    H250910   1.990   6.121   0.138 -1.0048  1.3549  0.0401
 9807TIP3   OH250911   3.475   5.447   4.485  0.7783  0.2131 -0.0051
 9807TIP3    H150912   3.400   5.403   4.444 -0.8428  0.0716  2.8268
 9807TIP3    H250913   3.456   5.541   4.475  1.2025  0.2185 -0.8729
 9808TIP3   OH250914   2.772   4.990  15.528 -0.1390 -0.1626  0.1039
 9808TIP3    H150915   2.701   5.054  15.531  0.3755  0.5004 -0.9713
 9808TIP3    H250916   2.752   4.928  15.598 -0.8697  0.9521  0.9205
 9809TIP3   OH250917   2.698   6.413  14.167 -0.4626 -0.2611  0.0873
 9809TIP3    H150918   2.714   6.330  14.211 -1.7591 -0.9874 -0.7482
 9809TIP3    H250919   2.645   6.390  14.090 -0.6051  1.3008 -0.3246
 9810TIP3   OH250920   3.535   4.903  14.537 -0.4503  0.3465  0.2403
 9810TIP3    H150921   3.485   4.830  14.499  0.1922 -0.3500  0.7004
 9810TIP3    H250922   3.472   4.975  14.539 -1.2188 -0.2932  0.1082
 9811TIP3   OH250923   2.427   2.173   0.863  0.0452  0.3895 -0.0650
 9811TIP3    H150924   2.492   2.213   0.805 -0.4052 -2.5245 -2.8798
 9811TIP3    H250925   2.461   2.087   0.883 -1.3207  0.1436  1.4343
 9812TIP3   OH250926   1.304   4.101  14.333  0.0205  0.0301  0.0765
 9812TIP3    H150927   1.229   4.055  14.295  0.3899 -2.9514  2.6461
 9812TIP3    H250928   1.379   4.069  14.283  0.0090 -0.1943  0.2008
 9813TIP3   OH250929   0.088   2.550  12.736  0.1249  0.4095  0.0323
 9813TIP3    H150930   0.067   2.458  12.753  1.3802 -0.0398 -0.6693
 9813TIP3    H250931   0.174   2.563  12.777  0.3493  1.0136 -0.6040
 9814TIP3   OH250932   5.795   6.453   3.424  0.1550 -0.7412 -0.7156
 9814TIP3    H150933   5.840   6.494   3.351 -0.2790  0.6831 -0.2090
 9814TIP3    H250934   5.712   6.499   3.431  0.7609  0.1425  1.5205
 9815TIP3   OH250935   6.264   0.615  13.796  0.8653 -0.0349  0.0573
 9815TIP3    H150936   6.215   0.631  13.716  1.3763  3.7450  0.3339
 9815TIP3    H250937   6.239   0.687  13.854  2.0064 -1.5467  2.5950
 9816TIP3   OH250938   1.770   0.672   0.594  0.1510 -0.8130  0.3937
 9816TIP3    H150939   1.794   0.598   0.651 -2.5459 -0.6823  1.8414
 9816TIP3    H250940   1.706   0.636   0.533  0.9302 -0.2725 -0.7867
 9817TIP3   OH250941   2.248   6.451   6.146 -0.6513  0.2204 -0.3493
 9817TIP3    H150942   2.283   6.532   6.182  1.4159  0.3053 -2.3302
 9817TIP3    H250943   2.277   6.383   6.208  2.8418  0.3487 -1.6079
 9818TIP3   OH250944   4.991   1.667   1.428  0.3804 -0.0357 -0.8121
 9818TIP3    H150945   5.044   1.726   1.482 -0.8421 -0.3531  0.8213
 9818TIP3    H250946   5.051   1.595   1.406  0.7979 -0.1424  0.5672
 9819TIP3   OH250947   5.674   6.458   1.964  0.2623  0.3587 -0.0740
 9819TIP3    H150948   5.682   6.413   2.048 -1.3825 -0.1481 -0.1687
 9819TIP3    H250949   5.763   6.491   1.947  1.2639 -1.8505  0.5268
 9820TIP3   OH250950   5.710   1.559   5.535  0.2182 -0.2128 -0.3603
 9820TIP3    H150951   5.790   1.598   5.500 -0.2331  2.3204  1.1742
 9820TIP3    H250952   5.639   1.612   5.497 -0.6625 -1.4734 -0.5425
 9821TIP3   OH250953   3.782   0.866   5.066 -0.1136 -0.0377  0.4435
 9821TIP3    H150954   3.771   0.803   4.995  0.0686  0.3135  0.0999
 9821TIP3    H250955   3.857   0.919   5.040 -0.5413  0.6122  0.5105
 9822TIP3   OH250956   6.381   3.330  11.611 -0.5350  0.5097 -0.0818
 9822TIP3    H150957   6.400   3.355  11.520 -0.8971  1.3210  0.0602
 9822TIP3    H250958   6.312   3.264  11.604 -0.2291  0.2256 -0.4212
 9823TIP3   OH250959   3.883   2.699   1.496 -0.0574  0.3233 -0.0306
 9823TIP3    H150960   3.811   2.752   1.463 -0.5268 -0.4094 -0.1928
 9823TIP3    H250961   3.850   2.661   1.577 -0.1180 -0.5948 -0.4746
 9824TIP3   OH250962   3.675   0.488   0.157  0.2067  0.4648 -0.1774
 9824TIP3    H150963   3.749   0.547   0.149 -0.6736  1.6932  0.4609
 9824TIP3    H250964   3.672   0.442   0.073  2.4049 -0.5247  0.2107
 9825TIP3   OH250965   5.528   1.414  15.159 -0.0957 -0.4813  0.4803
 9825TIP3    H150966   5.554   1.480  15.094  1.4526 -1.3445  0.1734
 9825TIP3    H250967   5.608   1.364  15.174 -1.4471 -2.9099  0.0012
 9826TIP3   OH250968   3.806   1.792   2.147  0.4459  0.2762  0.2570
 9826TIP3    H150969   3.821   1.708   2.190 -1.6961 -0.1641  0.2521
 9826TIP3    H250970   3.809   1.772   2.054  0.8297  0.3915  0.2431
 9827TIP3   OH250971   2.013   1.312   5.207 -0.1818  0.5207 -0.6596
 9827TIP3    H150972   2.040   1.262   5.130  1.2147  1.2939 -0.7099
 9827TIP3    H250973   2.066   1.392   5.203 -0.2404  0.6707  0.9754
 9828TIP3   OH250974   4.922   3.996  12.085 -0.1374 -0.0468 -0.0329
 9828TIP3    H150975   4.832   3.983  12.057 -0.3085  0.4541  0.2577
 9828TIP3    H250976   4.973   3.932  12.036 -0.7777 -0.9943  0.5233
 9829TIP3   OH250977   5.380   3.521  15.134  0.3842 -0.1905 -0.1931
 9829TIP3    H150978   5.309   3.584  15.119  0.2618 -0.1228  0.6189
 9829TIP3    H250979   5.368   3.493  15.225 -0.2891 -2.2771 -0.8515
 9830TIP3   OH250980   0.891   2.473   4.931  0.4386 -0.4301 -0.5958
 9830TIP3    H150981   0.974   2.438   4.964  1.3121  0.3078 -1.8880
 9830TIP3    H250982   0.877   2.426   4.849  1.4155  1.8118 -2.1484
 9831TIP3   OH250983   4.651   0.317   2.255 -0.2702 -0.3514 -0.5896
 9831TIP3    H150984   4.647   0.284   2.166 -0.6262  2.6659 -1.8097
 9831TIP3    H250985   4.576   0.376   2.263  0.3838  0.3164  1.3272
 9832TIP3   OH250986   2.148   3.749   1.231 -0.8376  0.2427  0.0050
 9832TIP3    H150987   2.164   3.682   1.164 -1.3266 -0.0089  0.1326
 9832TIP3    H250988   2.221   3.739   1.293  0.3739  1.3777 -1.1831
 9833TIP3   OH250989   1.953   3.360  14.476  0.6024 -0.6234 -0.1757
 9833TIP3    H150990   2.018   3.377  14.408  0.0472  1.2219 -0.3090
 9833TIP3    H250991   1.959   3.266  14.492  2.5155 -0.6902 -0.9613
 9834TIP3   OH250992   0.283   5.413   2.554  0.1239  0.5617 -1.0816
 9834TIP3    H150993   0.361   5.386   2.505  2.2511  1.9758  1.3023
 9834TIP3    H250994   0.248   5.486   2.503  0.0262 -0.4018 -2.4450
 9835TIP3   OH250995   4.752   5.065  12.746  0.6068 -0.3606 -0.2587
 9835TIP3    H150996   4.752   5.106  12.832  1.3081 -1.3875  0.2475
 9835TIP3    H250997   4.782   4.975  12.762 -0.9596 -1.1185 -1.3068
 9836TIP3   OH250998   6.340   6.311   6.864  0.6149 -0.0032 -0.5632
 9836TIP3    H150999   6.287   6.269   6.797 -0.3361  1.4498 -0.7634
 9836TIP3    H251000   6.418   6.342   6.818  0.5775 -0.1504 -0.7243
 9837TIP3   OH251001   2.316   6.670   5.532  0.3430 -0.0634  0.1715
 9837TIP3    H151002   2.232   6.665   5.488 -0.6842 -1.7581  2.1563
 9837TIP3    H251003   2.295   6.663   5.625  2.6905 -1.0804  0.7017
 9838TIP3   OH251004   1.161   3.576   4.660 -0.2147  0.4565 -0.0709
 9838TIP3    H151005   1.108   3.654   4.669 -0.3975  0.1643  1.8151
 9838TIP3    H251006   1.109   3.517   4.604 -0.7486  1.0976 -0.2558
 9839TIP3   OH251007   6.312   4.320   2.277  0.9012 -0.2376  0.1765
 9839TIP3    H151008   6.236   4.367   2.242 -0.2587  0.4681  3.2541
 9839TIP3    H251009   6.379   4.387   2.287  0.9793 -0.2855 -0.0243
 9840TIP3   OH251010   5.710   5.200   1.051 -0.3485  0.1399 -0.1729
 9840TIP3    H151011   5.679   5.271   1.107  0.1664 -0.5302  1.0093
 9840TIP3    H251012   5.686   5.226   0.962 -1.3362  1.1648  0.3771
 9841TIP3   OH251013   0.678   2.707   2.421 -0.0888  0.9322  0.1143
 9841TIP3    H151014   0.725   2.699   2.338 -0.0243  0.5613  0.1815
 9841TIP3    H251015   0.735   2.761   2.476 -0.3374  1.5454 -0.2258
 9842TIP3   OH251016   6.505   3.449   0.822 -0.4573  0.2808 -0.0769
 9842TIP3    H151017   6.468   3.365   0.795  0.2930 -0.1040  0.0877
 9842TIP3    H251018   6.598   3.442   0.804  0.1523 -0.1039  2.8113
 9843TIP3   OH251019   2.036   1.592   3.637  0.0323  0.6610  0.0086
 9843TIP3    H151020   2.035   1.532   3.712  0.6418  0.8478  0.1764
 9843TIP3    H251021   2.100   1.555   3.577 -1.4441 -0.2278 -1.0658
 9844TIP3   OH251022   1.115   6.626  13.210 -0.1273 -0.2310 -0.2435
 9844TIP3    H151023   1.135   6.696  13.271  0.1497  0.6315 -1.2885
 9844TIP3    H251024   1.179   6.636  13.139  0.8826 -2.4661  0.2707
 9845TIP3   OH251025   3.300   5.102   5.829 -0.3399 -0.1759 -0.3795
 9845TIP3    H151026   3.297   5.193   5.860 -1.7074 -0.2002 -0.3940
 9845TIP3    H251027   3.315   5.110   5.735  3.8015 -0.1013  0.0975
 9846TIP3   OH251028   2.287   5.096   6.681 -0.1730  0.3815  0.0767
 9846TIP3    H151029   2.346   5.098   6.605 -2.3194  1.5052 -1.6623
 9846TIP3    H251030   2.333   5.147   6.748  1.9590 -0.9867 -0.2311
 9847TIP3   OH251031   3.608   4.897  12.190 -0.0480 -0.2690 -0.2876
 9847TIP3    H151032   3.583   4.987  12.210  0.0453 -0.4563  0.7535
 9847TIP3    H251033   3.687   4.882  12.242 -0.0531 -0.9474 -0.4635
 9848TIP3   OH251034   6.687   5.059   4.339  0.0169  0.5038 -0.7247
 9848TIP3    H151035   6.700   4.997   4.412  0.8707 -0.1938 -1.4445
 9848TIP3    H251036   6.775   5.089   4.318 -0.1698  0.3665 -1.7493
 9849TIP3   OH251037   0.077   1.213  11.782  0.1717  0.5464 -0.0136
 9849TIP3    H151038   0.166   1.239  11.801  0.3673  1.6017 -2.0811
 9849TIP3    H251039   0.076   1.118  11.794  1.1371  0.7129  1.5026
 9850TIP3   OH251040   5.631   6.273   1.219 -0.6423 -0.5156  0.4244
 9850TIP3    H151041   5.707   6.215   1.214 -0.7022 -0.7535  1.9434
 9850TIP3    H251042   5.668   6.359   1.237 -0.4948  0.1631 -2.4958
 9851TIP3   OH251043   0.438   0.976   4.824  0.0670  0.0431 -0.1858
 9851TIP3    H151044   0.472   0.998   4.911 -0.7464  0.3468  0.0570
 9851TIP3    H251045   0.357   0.929   4.841 -1.0563  1.6768 -0.7994
 9852TIP3   OH251046   2.009   1.016  11.401 -0.1677 -0.0643  0.0104
 9852TIP3    H151047   1.929   0.989  11.446  0.0519  0.0411  0.4649
 9852TIP3    H251048   1.981   1.030  11.310 -1.1668  2.1835  0.5884
 9853TIP3   OH251049   3.067   3.056   0.396  0.3297  0.7732 -0.3668
 9853TIP3    H151050   3.063   2.989   0.327 -0.5473 -0.2413  0.6455
 9853TIP3    H251051   2.984   3.048   0.443  0.5654  2.0188  0.3024
 9854TIP3   OH251052   6.595   1.786   0.233  0.3936 -0.4604 -0.1649
 9854TIP3    H151053   6.649   1.823   0.163  0.4675  3.7994  1.8263
 9854TIP3    H251054   6.658   1.758   0.299  0.2410 -1.6282 -0.4927
 9855TIP3   OH251055   0.700   5.541   6.010  0.0491  0.2556  0.1309
 9855TIP3    H151056   0.635   5.591   6.061 -1.4437  0.7821 -2.1373
 9855TIP3    H251057   0.656   5.524   5.926  1.9163 -1.6905 -0.5256
 9856TIP3   OH251058   0.114   1.257   1.935 -0.3013  0.6145 -0.1242
 9856TIP3    H151059   0.147   1.335   1.889 -2.1623  2.1110  0.9250
 9856TIP3    H251060   0.188   1.228   1.988  0.1855  2.2420  0.1503
 9857TIP3   OH251061   3.552   2.027   3.259 -0.3932  0.6648 -0.3495
 9857TIP3    H151062   3.622   1.987   3.311 -0.4691  2.4828  1.2415
 9857TIP3    H251063   3.492   1.955   3.241  0.4270 -0.3456  0.7601
 9858TIP3   OH251064   0.519   3.966   3.257 -0.7871  0.2240 -0.1528
 9858TIP3    H151065   0.468   3.891   3.226  1.8349 -0.6382 -2.8701
 9858TIP3    H251066   0.472   4.042   3.222 -1.4920 -0.3580 -0.5129
 9859TIP3   OH251067   2.091   1.100   4.027 -0.4155 -0.6290  0.3293
 9859TIP3    H151068   2.120   1.056   3.948 -0.3287  1.4183 -0.8558
 9859TIP3    H251069   1.999   1.073   4.038 -0.2776 -1.3052 -0.1813
 9860TIP3   OH251070   0.229   5.690   4.362  0.5391 -0.0013  0.1373
 9860TIP3    H151071   0.271   5.776   4.356  0.1217  0.1514 -0.7197
 9860TIP3    H251072   0.288   5.639   4.417  1.9961  0.1379 -1.2144
 9861TIP3   OH251073   4.846   2.305   4.361  0.6997 -0.2550 -0.3086
 9861TIP3    H151074   4.763   2.284   4.319  0.8751  2.0533 -2.0218
 9861TIP3    H251075   4.830   2.388   4.407  2.6988  1.9649 -3.2607
 9862TIP3   OH251076   1.116   6.430  11.673 -0.3605 -0.4416  0.0278
 9862TIP3    H151077   1.030   6.392  11.689 -0.5744  0.0892  0.1358
 9862TIP3    H251078   1.175   6.381  11.731 -0.8041  0.1107  0.9688
 9863TIP3   OH251079   3.044   6.032  12.155  0.1129 -0.0422  0.1052
 9863TIP3    H151080   2.996   5.956  12.124  1.1535 -0.3412 -0.8381
 9863TIP3    H251081   3.061   6.084  12.075  2.2649 -0.4870  0.2097
 9864TIP3   OH251082   2.549   3.974   4.566 -0.0830 -0.0724  0.0496
 9864TIP3    H151083   2.479   3.941   4.622 -0.9131 -0.9837 -1.4711
 9864TIP3    H251084   2.627   3.927   4.595 -0.4204 -0.2630  0.6681
 9865TIP3   OH251085   2.133   4.086   4.313  0.3905 -0.6314  0.2207
 9865TIP3    H151086   2.096   4.147   4.377  0.2385  1.1485 -1.4623
 9865TIP3    H251087   2.226   4.081   4.335  0.7397  1.4955 -0.5002
 9866TIP3   OH251088   0.273   2.595   0.282  0.3186 -0.2193 -0.2159
 9866TIP3    H151089   0.326   2.617   0.205 -0.5773 -1.8921 -1.3679
 9866TIP3    H251090   0.187   2.631   0.263  0.7180  1.6320  1.2177
 9867TIP3   OH251091   5.480   3.226   0.920 -0.2774  0.3297 -0.4489
 9867TIP3    H151092   5.453   3.277   0.996 -0.5890  0.9789 -0.9786
 9867TIP3    H251093   5.540   3.160   0.955  0.3317  1.2176  0.2176
 9868TIP3   OH251094   2.145   5.905  12.950  0.8455  0.5750  0.2189
 9868TIP3    H151095   2.085   5.963  12.996 -0.6285 -0.2656 -0.5670
 9868TIP3    H251096   2.213   5.963  12.915  1.1250  1.4087  2.0320
 9869TIP3   OH251097   3.353   3.177  12.988 -0.0340 -0.0242  1.1508
 9869TIP3    H151098   3.394   3.261  12.969  1.4009 -1.1260 -1.1232
 9869TIP3    H251099   3.368   3.125  12.909 -0.1115 -2.7056  2.7789
 9870TIP3   OH251100   5.911   4.656   3.957  0.7074  0.5132 -0.4526
 9870TIP3    H151101   5.897   4.694   3.871  0.4315  0.4942 -0.4156
 9870TIP3    H251102   5.920   4.731   4.016  1.8388  0.5447 -0.6399
 9871TIP3   OH251103   1.827   4.925  13.751  0.6183  0.0305  0.4184
 9871TIP3    H151104   1.879   4.997  13.788  0.4020  0.5153 -0.2012
 9871TIP3    H251105   1.769   4.967  13.688 -0.7500 -0.4540  1.2906
 9872TIP3   OH251106   0.973   5.560   4.939  0.3657 -0.3482  0.0362
 9872TIP3    H151107   1.006   5.557   5.029 -1.6921 -1.1189  0.8270
 9872TIP3    H251108   0.939   5.649   4.929 -0.4402 -0.6014  0.4432
 9873TIP3   OH251109   6.676   5.964  12.034  0.3629  0.0783 -0.4239
 9873TIP3    H151110   6.628   6.004  12.106 -1.1103  0.9687 -1.8358
 9873TIP3    H251111   6.744   5.911  12.077 -1.0207 -0.1708  1.6177
 9874TIP3   OH251112   2.524   5.438   0.448 -0.6914 -0.0791  0.8233
 9874TIP3    H151113   2.540   5.461   0.356  0.6828  0.4953  1.1958
 9874TIP3    H251114   2.437   5.475   0.466 -1.5996 -1.3635 -0.6081
 9875TIP3   OH251115   6.412   5.020   1.880  0.2169  0.1139  0.0518
 9875TIP3    H151116   6.389   4.942   1.931 -0.1876  0.1249 -0.1147
 9875TIP3    H251117   6.467   4.986   1.809 -2.0268 -0.4162 -1.5371
 9876TIP3   OH251118   2.775   0.215   1.809 -0.2809 -0.1274  0.8043
 9876TIP3    H151119   2.694   0.166   1.824 -0.8855  1.0229  1.4229
 9876TIP3    H251120   2.757   0.302   1.845  0.6415  0.6630 -0.5664
 9877TIP3   OH251121   5.669   6.356  10.549  0.9197 -0.4645  0.5644
 9877TIP3    H151122   5.735   6.324  10.611 -0.7186 -3.2782  1.0584
 9877TIP3    H251123   5.661   6.285  10.485 -0.1711  0.7031 -0.6283
 9878TIP3   OH251124   1.939   3.245  11.046 -0.5734  0.1295 -0.5185
 9878TIP3    H151125   2.025   3.210  11.026 -0.1693  0.5475  0.4281
 9878TIP3    H251126   1.925   3.314  10.980  0.3328  0.8637  0.0369
 9879TIP3   OH251127   6.050   2.044   5.733  0.3929 -0.2304 -0.2484
 9879TIP3    H151128   6.001   2.032   5.815 -0.7548  2.1781 -0.4911
 9879TIP3    H251129   6.142   2.037   5.759  0.0904  1.3791  1.4953
 9880TIP3   OH251130   1.070   5.283  14.576  0.2859  0.0811  0.6603
 9880TIP3    H151131   1.012   5.219  14.534 -0.2247  0.7222  0.3513
 9880TIP3    H251132   1.039   5.289  14.666  0.8850 -0.7270  0.9295
 9881TIP3   OH251133   2.203   2.538  12.175  0.0320  0.0536  0.1427
 9881TIP3    H151134   2.119   2.525  12.219  0.2673 -0.0801  0.5585
 9881TIP3    H251135   2.262   2.477  12.219  0.3003  0.0027 -0.2831
 9882TIP3   OH251136   0.591   6.658  15.494  0.1582 -0.2889  0.8982
 9882TIP3    H151137   0.631   6.726  15.548 -0.8303  0.1064  1.1372
 9882TIP3    H251138   0.504   6.644  15.531 -0.2853 -0.5055 -0.1668
 9883TIP3   OH251139   1.043   6.295  12.075  0.1231  0.0408  0.0088
 9883TIP3    H151140   1.132   6.277  12.044 -0.6365 -0.3952 -2.0610
 9883TIP3    H251141   1.044   6.388  12.098  1.6505 -0.4172  2.0847
 9884TIP3   OH251142   2.661   6.188   4.277  0.1801 -0.3802 -0.1026
 9884TIP3    H151143   2.582   6.207   4.329 -0.2460 -0.6079 -0.6527
 9884TIP3    H251144   2.627   6.148   4.197  0.7831  0.5408 -0.8340
 9885TIP3   OH251145   0.421   1.924   5.327 -0.0913  0.0929  0.5901
 9885TIP3    H151146   0.479   1.866   5.277 -0.0660  0.8308 -0.2758
 9885TIP3    H251147   0.381   1.981   5.260  1.3204  2.3512  1.5382
 9886TIP3   OH251148   3.302   4.188   1.445  0.1862 -0.2802 -0.1919
 9886TIP3    H151149   3.283   4.217   1.356  1.0090  0.1034 -0.2504
 9886TIP3    H251150   3.373   4.125   1.435 -0.1994 -0.7761  0.1348
 9887TIP3   OH251151   2.822   2.377  15.391  0.0858 -0.0602 -0.0411
 9887TIP3    H151152   2.728   2.367  15.379 -0.0759  1.6833 -0.4820
 9887TIP3    H251153   2.846   2.306  15.451 -1.6446 -0.0825  0.6938
 9888TIP3   OH251154   1.919   3.265  17.062  0.2754  0.5179  0.0194
 9888TIP3    H151155   1.897   3.324  17.134 -0.6762  0.9502 -0.6015
 9888TIP3    H251156   2.013   3.249  17.072  0.0659  0.1944  1.6073
 9889TIP3   OH251157   3.379   0.671  14.999 -0.4997 -0.0785  0.0589
 9889TIP3    H151158   3.436   0.615  14.948  0.1749 -0.1200  0.8348
 9889TIP3    H251159   3.431   0.750  15.015 -0.2844 -0.4766  1.5306
 9890TIP3   OH251160   6.156   3.686   5.504  0.5122 -0.3173 -0.6248
 9890TIP3    H151161   6.231   3.658   5.451 -0.0433 -1.2690 -0.9432
 9890TIP3    H251162   6.084   3.694   5.442  0.2088  0.0230 -0.2381
 9891TIP3   OH251163   4.912   1.742  13.127  0.3806  0.0546 -0.0439
 9891TIP3    H151164   4.974   1.711  13.061  0.4821 -0.6442  0.3763
 9891TIP3    H251165   4.827   1.709  13.098  0.0906  1.4673 -0.9154
 9892TIP3   OH251166   0.744   1.901  16.606 -0.4667  0.1218  0.2281
 9892TIP3    H151167   0.692   1.938  16.536  1.0836  0.8002 -0.6075
 9892TIP3    H251168   0.831   1.938  16.594 -0.1993  0.4721  2.6694
 9893TIP3   OH251169   1.296   5.065  12.974 -0.1066 -0.4635 -0.0922
 9893TIP3    H151170   1.238   5.124  13.023 -0.2363 -2.4274  2.3383
 9893TIP3    H251171   1.236   5.007  12.926 -0.3699 -2.7185  2.6913
 9894TIP3   OH251172   5.881   6.273  12.692 -0.1227 -0.3781 -0.3573
 9894TIP3    H151173   5.883   6.264  12.787 -0.2590 -1.0709 -0.4182
 9894TIP3    H251174   5.961   6.231  12.661 -0.3796 -0.7035 -0.5906
 9895TIP3   OH251175   4.649   5.416   6.305 -0.2867 -0.0336 -0.0173
 9895TIP3    H151176   4.633   5.325   6.328  0.1115  0.3253  1.8438
 9895TIP3    H251177   4.693   5.453   6.381  0.0205  1.6008 -0.9290
 9896TIP3   OH251178   0.162   4.825   2.899  0.0312 -0.0134  0.3420
 9896TIP3    H151179   0.122   4.858   2.979 -1.1575 -1.0517  0.2107
 9896TIP3    H251180   0.089   4.819   2.836  0.6246 -0.7359 -0.3030
 9897TIP3   OH251181   5.629   2.835   1.887  0.3917  0.1154  0.1174
 9897TIP3    H151182   5.622   2.756   1.942 -0.0524  0.5660  0.7136
 9897TIP3    H251183   5.543   2.877   1.893 -0.3366 -0.8268 -2.5032
 9898TIP3   OH251184   2.545   3.827   3.245 -0.2934 -0.4894  0.0647
 9898TIP3    H151185   2.512   3.869   3.324  0.9645  0.2806  0.1975
 9898TIP3    H251186   2.610   3.888   3.210  0.6948 -1.7737 -0.4043
 9899TIP3   OH251187   1.876   5.213  16.312 -0.3987 -0.1067 -0.8108
 9899TIP3    H151188   1.788   5.242  16.337 -0.0755  1.8093 -1.6732
 9899TIP3    H251189   1.928   5.294  16.309  0.9286 -0.9509 -2.1587
 9900TIP3   OH251190   1.500   5.745  16.169 -0.4618 -0.3073  0.3941
 9900TIP3    H151191   1.465   5.833  16.162 -0.0093 -0.1341  0.2696
 9900TIP3    H251192   1.527   5.737  16.261 -0.1445 -0.1807  0.3105
 9901TIP3   OH251193   3.156   4.341   3.497 -0.0779 -0.4724 -0.4540
 9901TIP3    H151194   3.189   4.361   3.409  1.1887 -0.1946  0.0556
 9901TIP3    H251195   3.124   4.424   3.530 -1.1902 -0.7116 -0.8899
 9902TIP3   OH251196   4.606   4.620   5.215  0.6226 -0.1492  0.1547
 9902TIP3    H151197   4.577   4.547   5.269  1.6698 -1.4216 -0.9262
 9902TIP3    H251198   4.530   4.642   5.161  0.0811  0.0434  0.9942
 9903TIP3   OH251199   0.223   3.365   5.716  0.0322 -0.1619 -1.0698
 9903TIP3    H151200   0.155   3.361   5.649  0.9756  2.2222 -2.2905
 9903TIP3    H251201   0.176   3.390   5.796 -0.6046  1.0858 -1.8079
 9904TIP3   OH251202   2.722   0.921   2.939  0.3529 -0.0357 -0.4180
 9904TIP3    H151203   2.663   0.997   2.940  1.3303  0.7369 -0.2300
 9904TIP3    H251204   2.681   0.861   2.877 -1.1082  0.0842  0.3737
 9905TIP3   OH251205   0.936   5.587   0.809  0.4207 -0.0260  0.0754
 9905TIP3    H151206   1.006   5.546   0.757  0.3884  0.7857 -0.6178
 9905TIP3    H251207   0.891   5.513   0.850  2.4588 -0.5444  1.5761
 9906TIP3   OH251208   2.058   1.866  16.056  0.1818 -0.2972  0.0677
 9906TIP3    H151209   2.115   1.813  16.112  1.6843 -1.0030 -2.0086
 9906TIP3    H251210   2.063   1.825  15.970 -1.8148  0.9109 -0.7095
 9907TIP3   OH251211   6.681   2.322   5.058  0.5750 -0.7814 -0.7668
 9907TIP3    H151212   6.773   2.346   5.044  0.7357 -0.9402 -0.0177
 9907TIP3    H251213   6.680   2.284   5.146 -0.0338 -1.6946 -1.1692
 9908TIP3   OH251214   5.324   4.247  13.274 -0.0470  0.2497  0.5907
 9908TIP3    H151215   5.277   4.324  13.308  1.0914  1.9102 -1.3880
 9908TIP3    H251216   5.308   4.179  13.340 -3.5858  1.2388  0.9850
 9909TIP3   OH251217   2.455   2.000  14.585 -0.1827 -0.4624 -0.4061
 9909TIP3    H151218   2.508   1.920  14.587  1.0022  0.3117  1.0096
 9909TIP3    H251219   2.484   2.050  14.661  0.0501  1.9130 -1.9462
 9910TIP3   OH251220   2.415   1.149   1.668  0.2480 -0.4656  0.0853
 9910TIP3    H151221   2.498   1.180   1.706 -0.2354  0.5099  0.4020
 9910TIP3    H251222   2.390   1.075   1.723  1.2680 -1.2400 -0.4682
 9911TIP3   OH251223   3.430   3.939  11.865  1.0560 -0.2162 -0.6430
 9911TIP3    H151224   3.355   3.998  11.870  0.9813 -0.3393 -0.2680
 9911TIP3    H251225   3.417   3.878  11.938 -0.1421 -2.1981 -2.3776
 9912TIP3   OH251226   4.717   4.601   0.110  0.0691  0.1625  0.4140
 9912TIP3    H151227   4.747   4.526   0.162  0.2663  0.8549  1.3159
 9912TIP3    H251228   4.623   4.607   0.127 -0.0918 -0.3189 -0.2458
 9913TIP3   OH251229   0.574   3.443  12.216 -0.0503  0.0007 -0.6267
 9913TIP3    H151230   0.635   3.498  12.166  1.0685  0.9780  1.6707
 9913TIP3    H251231   0.630   3.384  12.266 -0.9434  0.7850  1.3910
 9914TIP3   OH251232   3.722   3.178   0.775  0.9963 -0.6868 -0.5302
 9914TIP3    H151233   3.698   3.110   0.712  1.4823  0.5898 -2.1430
 9914TIP3    H251234   3.679   3.257   0.743  0.4869 -0.1707  1.2805
 9915TIP3   OH251235   3.672   5.772   1.620 -0.0596  0.1204  0.8186
 9915TIP3    H151236   3.730   5.718   1.674  1.2949 -1.0521 -1.6480
 9915TIP3    H251237   3.626   5.709   1.565  1.8844  1.3106 -2.4536
 9916TIP3   OH251238   6.008   3.196  12.071 -0.6738 -0.4146  0.1762
 9916TIP3    H151239   5.937   3.222  12.131 -1.1446  0.0153 -0.5532
 9916TIP3    H251240   5.969   3.128  12.016  0.4696 -2.6161  1.9011
 9917TIP3   OH251241   3.311   5.677   2.847 -0.2516 -0.0238  0.8196
 9917TIP3    H151242   3.217   5.656   2.840  0.3238 -2.5171 -0.9775
 9917TIP3    H251243   3.326   5.744   2.781 -0.4720 -0.9746 -0.2224
 9918TIP3   OH251244   2.033   3.164   1.380  0.5954  0.6594 -0.0497
 9918TIP3    H151245   1.973   3.234   1.354 -0.6149  0.2099  1.4327
 9918TIP3    H251246   2.046   3.113   1.300 -2.3562 -0.2113 -0.0583
 9919TIP3   OH251247   5.783   4.475  15.580 -0.6348 -0.1460  0.4984
 9919TIP3    H151248   5.806   4.429  15.661 -0.6169 -0.7868  0.1370
 9919TIP3    H251249   5.822   4.422  15.510  0.6172  1.1752  0.1399
 9920TIP3   OH251250   5.646   5.919  13.857 -0.5336  0.0878  0.5181
 9920TIP3    H151251   5.717   5.876  13.809 -1.8072 -1.6164  0.0656
 9920TIP3    H251252   5.574   5.924  13.794 -0.7542  2.0349  0.8830
 9921TIP3   OH251253   6.416   6.665   4.808 -0.2406  0.3368 -0.3506
 9921TIP3    H151254   6.421   6.572   4.785  0.0187 -0.4421  2.4513
 9921TIP3    H251255   6.499   6.701   4.778  0.3955 -0.7517  0.0209
 9922TIP3   OH251256   3.401   2.948   4.694  0.1978  1.1112 -0.2059
 9922TIP3    H151257   3.483   2.995   4.674  0.9242  0.3823  0.9608
 9922TIP3    H251258   3.360   2.999   4.763  1.4758 -0.4020  1.7797
 9923TIP3   OH251259   1.774   5.766  11.105 -0.3328  0.0381 -0.0940
 9923TIP3    H151260   1.847   5.709  11.130 -0.7238 -0.1778  0.5762
 9923TIP3    H251261   1.753   5.815  11.185 -0.6575  0.3893 -0.3915
 9924TIP3   OH251262   2.538   3.921   0.787 -0.0026 -0.7433  0.9101
 9924TIP3    H151263   2.555   3.857   0.718 -0.0743  0.2185 -0.0368
 9924TIP3    H251264   2.603   3.990   0.772  0.9603 -1.1990  2.7388
 9925TIP3   OH251265   1.406   0.941  16.377 -0.1843 -0.1421  0.4134
 9925TIP3    H151266   1.501   0.942  16.387  0.1728  2.2547 -2.0266
 9925TIP3    H251267   1.388   0.860  16.329  0.3020 -1.6459  2.6394
 9926TIP3   OH251268   1.149   3.316  14.474 -0.5213  0.5527 -0.5022
 9926TIP3    H151269   1.165   3.287  14.564 -1.0357  0.5719 -0.4021
 9926TIP3    H251270   1.117   3.238  14.429 -0.2170  0.5310 -0.6855
 9927TIP3   OH251271   5.555   6.232  16.675 -0.6280 -0.4177 -0.2009
 9927TIP3    H151272   5.632   6.245  16.619 -0.4934 -1.8297 -0.4015
 9927TIP3    H251273   5.590   6.225  16.763 -0.4119 -1.7047 -0.3617
 9928TIP3   OH251274   2.775   0.914   0.066 -0.7522 -0.0156 -0.5686
 9928TIP3    H151275   2.729   0.861   0.130 -0.1644  1.0767  0.8184
 9928TIP3    H251276   2.715   0.986   0.047 -0.2170  0.6345  0.1530
 9929TIP3   OH251277   5.425   5.724  11.044  0.5026 -0.5928 -0.0175
 9929TIP3    H151278   5.404   5.794  11.106  0.5476 -0.2297 -0.4071
 9929TIP3    H251279   5.408   5.763  10.958 -0.6238 -1.4364 -0.2020
 9930TIP3   OH251280   6.476   6.058  11.878 -0.1597  0.2739  0.7927
 9930TIP3    H151281   6.548   6.004  11.909  0.7563  0.4385 -0.8883
 9930TIP3    H251282   6.406   5.996  11.858  0.7134 -0.2935 -0.6694
 9931TIP3   OH251283   3.713   6.355  12.347 -0.0518  0.0361  0.3827
 9931TIP3    H151284   3.673   6.271  12.324  0.3999 -0.3240  0.8939
 9931TIP3    H251285   3.802   6.333  12.372  1.0157  1.0105 -2.2519
 9932TIP3   OH251286   3.466   4.673  15.707  0.1606 -0.5677  0.4935
 9932TIP3    H151287   3.536   4.725  15.667  0.5463 -0.4771  1.2535
 9932TIP3    H251288   3.469   4.589  15.661  0.1354 -0.2309 -0.1268
 9933TIP3   OH251289   1.229   2.136  16.504 -0.1788 -0.2296 -0.1550
 9933TIP3    H151290   1.238   2.217  16.554  0.8392 -0.0038 -0.6808
 9933TIP3    H251291   1.292   2.076  16.544  1.1247  0.1605 -1.5331
 9934TIP3   OH251292   0.171   3.809  14.869  0.6933  0.1235 -0.2551
 9934TIP3    H151293   0.194   3.805  14.962 -0.6119 -0.6167  0.0671
 9934TIP3    H251294   0.190   3.721  14.837  1.3567  0.4451 -0.7518
 9935TIP3   OH251295   4.940   3.801  15.236 -0.3174 -0.7997 -0.1844
 9935TIP3    H151296   4.857   3.795  15.188 -1.1059  0.1495  0.9798
 9935TIP3    H251297   4.919   3.764  15.322  0.5667 -0.8374  0.0159
 9936TIP3   OH251298   5.806   1.341  14.445 -0.3954  0.0341  0.1213
 9936TIP3    H151299   5.724   1.343  14.495 -1.1041  0.3719 -1.0190
 9936TIP3    H251300   5.817   1.249  14.422 -1.0662  0.1319 -0.6624
 9937TIP3   OH251301   3.452   3.518  15.836  0.4370  0.0210 -0.2033
 9937TIP3    H151302   3.496   3.593  15.877 -0.1757  0.5291 -0.4603
 9937TIP3    H251303   3.523   3.463  15.804  0.8911  0.6838 -0.3556
 9938TIP3   OH251304   0.013   0.628   5.128 -0.2213 -0.1152 -0.2854
 9938TIP3    H151305  -0.045   0.645   5.054 -0.9453 -1.4042 -0.0578
 9938TIP3    H251306  -0.005   0.700   5.189  1.9469  2.1820 -2.1747
 9939TIP3   OH251307   0.632   2.223   4.271  0.2903 -0.0158  0.1003
 9939TIP3    H151308   0.596   2.134   4.272  0.7323 -0.2016  1.2147
 9939TIP3    H251309   0.713   2.216   4.321  1.9648  0.3604 -2.3480
 9940TIP3   OH251310   4.030   1.579   4.665 -0.5639 -0.6130 -0.2289
 9940TIP3    H151311   3.975   1.605   4.739 -0.2571  0.4832 -0.3730
 9940TIP3    H251312   4.116   1.564   4.704 -0.3406  0.2119 -0.3956
 9941TIP3   OH251313   1.258   6.226  15.192 -0.1714 -0.1138 -0.1169
 9941TIP3    H151314   1.270   6.133  15.213  2.1988 -0.0113 -0.7309
 9941TIP3    H251315   1.279   6.231  15.099  0.5616  1.1662  0.1055
 9942TIP3   OH251316   2.161   4.637  11.669  0.0063 -0.1636  0.4558
 9942TIP3    H151317   2.219   4.571  11.632  0.3118  0.6372 -0.5637
 9942TIP3    H251318   2.179   4.635  11.763 -0.6171 -2.0990  0.5688
 9943TIP3   OH251319   1.832   0.800   2.746  0.4913  0.2001  0.0050
 9943TIP3    H151320   1.900   0.737   2.771 -0.9844 -1.3483  0.2785
 9943TIP3    H251321   1.770   0.799   2.818  0.6193  2.3120  0.1909
 9944TIP3   OH251322   3.490   1.422   6.549 -0.1936 -0.2203  0.5326
 9944TIP3    H151323   3.555   1.406   6.618 -0.6433  0.4104  1.1206
 9944TIP3    H251324   3.409   1.384   6.583 -0.1671 -0.9202 -0.1583
 9945TIP3   OH251325   0.353   3.248   5.375  0.6915  0.0523 -0.2776
 9945TIP3    H151326   0.395   3.316   5.322  1.5734  1.0574  1.5841
 9945TIP3    H251327   0.425   3.191   5.401  0.1262 -0.9643 -0.9005
 9946TIP3   OH251328   1.374   3.755  15.350  0.4326  0.4604 -0.2155
 9946TIP3    H151329   1.354   3.665  15.327  1.1826  0.3607 -0.5249
 9946TIP3    H251330   1.305   3.807  15.309 -0.1279  0.0194  0.1516
 9947TIP3   OH251331   5.400   4.569  14.332 -0.8824  0.5995 -0.4592
 9947TIP3    H151332   5.334   4.500  14.329 -0.1469 -0.1376 -0.1105
 9947TIP3    H251333   5.484   4.522  14.324 -0.4272  1.5892 -1.8395
 9948TIP3   OH251334   2.063   0.041   0.185 -0.1372  0.5022 -0.0151
 9948TIP3    H151335   2.055   0.098   0.108  2.1836  3.4785  1.6969
 9948TIP3    H251336   2.016   0.088   0.254 -3.3101 -2.7187  0.3101
 9949TIP3   OH251337   6.456   1.005   3.244  0.1363 -0.5848  0.2115
 9949TIP3    H151338   6.373   1.051   3.253  0.8400  0.8964 -0.6117
 9949TIP3    H251339   6.432   0.912   3.248 -1.1469 -0.2743  3.5966
 9950TIP3   OH251340   0.851   2.537  11.209 -0.0611  0.5278  0.3970
 9950TIP3    H151341   0.837   2.491  11.126 -1.2993  2.2861 -0.4328
 9950TIP3    H251342   0.763   2.548  11.245  0.5056 -0.7703  2.3193
 9951TIP3   OH251343   3.533   6.622  13.231 -0.0532 -0.2023  0.1083
 9951TIP3    H151344   3.625   6.611  13.207 -0.4165 -0.3537 -1.2527
 9951TIP3    H251345   3.491   6.540  13.204 -0.4608 -0.4906  1.4937
 9952TIP3   OH251346   5.879   0.661  12.446  0.0057  0.1649  0.7546
 9952TIP3    H151347   5.834   0.581  12.418  0.2322  0.3640 -0.2455
 9952TIP3    H251348   5.816   0.706  12.502 -0.4283 -0.3364  0.6771
 9953TIP3   OH251349   1.569   6.234  11.376  0.2086 -0.1155  0.6846
 9953TIP3    H151350   1.510   6.272  11.311  0.6634 -0.6219 -0.0486
 9953TIP3    H251351   1.512   6.199  11.444 -0.2662  0.7218  0.7315
 9954TIP3   OH251352   4.362   1.619   3.574 -0.0257  1.0739  0.1535
 9954TIP3    H151353   4.339   1.596   3.664  0.7202  1.1141  0.3584
 9954TIP3    H251354   4.456   1.636   3.577 -0.0378  1.2862 -0.5915
 9955TIP3   OH251355   0.209   0.144  15.449 -0.0524 -0.7589 -0.3394
 9955TIP3    H151356   0.189   0.050  15.450  0.4601 -0.8751  0.7317
 9955TIP3    H251357   0.222   0.167  15.541 -1.4786  0.6645 -0.4582
 9956TIP3   OH251358   1.037   2.595  14.758  0.3074 -0.2512 -0.1100
 9956TIP3    H151359   1.116   2.648  14.768 -1.0484  2.1220 -1.0016
 9956TIP3    H251360   0.984   2.617  14.835  0.2633 -1.3925  0.1987
 9957TIP3   OH251361   1.728   1.692  12.565 -0.4811 -0.0160  0.6441
 9957TIP3    H151362   1.709   1.606  12.602 -0.3152 -0.2789  0.1236
 9957TIP3    H251363   1.821   1.689  12.544 -0.1126  0.8138  1.9886
 9958TIP3   OH251364   3.889   0.330   1.454 -0.4278 -0.3692  0.2536
 9958TIP3    H151365   3.914   0.353   1.544  2.7305 -2.1428 -0.0282
 9958TIP3    H251366   3.853   0.241   1.461  1.5449 -1.2800 -0.3434
 9959TIP3   OH251367   3.076   5.569   2.804 -0.0111 -0.4972 -0.1742
 9959TIP3    H151368   3.085   5.489   2.752 -0.5356 -1.7290  1.5306
 9959TIP3    H251369   3.012   5.546   2.871 -0.2660  1.4151  0.2770
 9960TIP3   OH251370   2.898   1.211   1.302  0.3176 -0.0160 -0.7659
 9960TIP3    H151371   2.813   1.218   1.259  0.0577  0.2443 -0.2221
 9960TIP3    H251372   2.915   1.299   1.336  0.8208 -0.0585 -0.8994
 9961TIP3   OH251373   6.492   4.623   4.366  0.1735  0.3941  1.1006
 9961TIP3    H151374   6.585   4.623   4.389  0.4072  1.7250  0.2417
 9961TIP3    H251375   6.450   4.580   4.440  1.5264 -0.8017  1.2293
 9962TIP3   OH251376   5.053   5.596   2.563  0.2215 -0.2151  0.4628
 9962TIP3    H151377   5.052   5.692   2.563  0.2300 -0.2131  0.8968
 9962TIP3    H251378   5.131   5.573   2.612  0.0383 -0.4442  0.6515
 9963TIP3   OH251379   0.269   2.310  13.239  0.0388  0.1994 -0.1008
 9963TIP3    H151380   0.224   2.339  13.160 -0.1148  0.7506  0.1881
 9963TIP3    H251381   0.293   2.219  13.221  2.0851  0.9944 -1.7199
 9964TIP3   OH251382   1.336   5.406   3.029  0.0702 -0.0149 -0.7160
 9964TIP3    H151383   1.320   5.499   3.043  1.3189 -0.1314  2.1382
 9964TIP3    H251384   1.260   5.362   3.067  1.9270 -0.2167  3.2276
 9965TIP3   OH251385   6.097   2.108  14.959  0.1132  0.1596 -0.1114
 9965TIP3    H151386   6.077   2.133  15.049 -0.3242  1.0189 -0.4344
 9965TIP3    H251387   6.043   2.167  14.905  0.6893 -0.0511 -0.9399
 9966TIP3   OH251388   4.477   2.169  11.512 -0.0652  0.3820 -0.2472
 9966TIP3    H151389   4.415   2.183  11.441  0.8871  0.6213 -1.0445
 9966TIP3    H251390   4.529   2.249  11.515  0.4728  0.0210  0.1485
 9967TIP3   OH251391   4.922   5.841   5.408 -0.0200  0.1164 -0.2647
 9967TIP3    H151392   4.910   5.903   5.480  2.3587  0.4067 -0.0204
 9967TIP3    H251393   4.904   5.756   5.447 -1.3348  0.4600 -0.0655
 9968TIP3   OH251394   0.826   5.177   1.672  0.2356 -0.2850 -0.1345
 9968TIP3    H151395   0.917   5.147   1.662  0.8582  1.1621  0.8363
 9968TIP3    H251396   0.786   5.114   1.731  2.0145  1.5243  3.2995
 9969TIP3   OH251397   0.069   6.725   5.827 -0.3628  0.9036  0.6295
 9969TIP3    H151398   0.107   6.677   5.754 -0.5517  0.6775  0.6812
 9969TIP3    H251399   0.145   6.755   5.878 -0.2332 -2.2574  2.5238
 9970TIP3   OH251400   0.770   3.844   1.447 -0.1646 -0.2024 -0.0966
 9970TIP3    H151401   0.855   3.803   1.467  0.3537  0.8614 -0.0340
 9970TIP3    H251402   0.786   3.894   1.367 -0.8530 -0.3208 -0.3096
 9971TIP3   OH251403   0.996   4.731  13.347  0.0569  0.6494 -0.0034
 9971TIP3    H151404   0.941   4.801  13.384 -0.2217 -0.2645  1.4037
 9971TIP3    H251405   1.085   4.766  13.349 -0.2311  1.4385 -0.5323
 9972TIP3   OH251406   1.628   2.380  17.393  0.0390 -0.4083  0.1370
 9972TIP3    H151407   1.575   2.311  17.433 -1.3419  1.2919  1.3715
 9972TIP3    H251408   1.630   2.450  17.458  0.7296  1.0534 -1.3681
 9973TIP3   OH251409   1.120   4.157  16.854 -0.2725  0.2938  0.1886
 9973TIP3    H151410   1.054   4.218  16.821  1.3385  1.8561 -0.3220
 9973TIP3    H251411   1.135   4.185  16.944  2.7410  2.9108 -0.9393
 9974TIP3   OH251412   4.398   3.610  16.531 -0.0862 -0.3746  0.3110
 9974TIP3    H151413   4.360   3.527  16.563 -1.3023  0.4637  1.1490
 9974TIP3    H251414   4.323   3.661  16.502  0.5654  0.7122  0.4755
 9975TIP3   OH251415   1.361   5.851   1.609 -0.7235  0.2523  0.5424
 9975TIP3    H151416   1.274   5.878   1.580  0.6088  1.8476 -2.5044
 9975TIP3    H251417   1.368   5.883   1.699 -2.0904  3.2714 -0.2957
 9976TIP3   OH251418   1.965   3.779   4.787 -0.5225 -0.2334 -0.2517
 9976TIP3    H151419   1.947   3.788   4.881 -1.4539 -0.3549 -0.4120
 9976TIP3    H251420   2.061   3.773   4.782 -0.4255  0.3197  0.6392
 9977TIP3   OH251421   0.358   1.211   2.100 -0.1178  0.0329  0.2062
 9977TIP3    H151422   0.371   1.118   2.084  0.3958 -0.0028  0.8361
 9977TIP3    H251423   0.401   1.228   2.183  1.1015  1.1465 -0.6228
 9978TIP3   OH251424   1.281   4.464  12.723  0.1676 -0.1905  0.3362
 9978TIP3    H151425   1.325   4.490  12.804  0.5354  0.5952 -0.0989
 9978TIP3    H251426   1.304   4.372  12.712  2.2820  0.3404 -0.2185
 9979TIP3   OH251427   5.629   2.292   2.094  0.6806  0.7511 -0.0945
 9979TIP3    H151428   5.619   2.207   2.137  1.5605  1.0627  0.7794
 9979TIP3    H251429   5.705   2.281   2.036  0.3762  0.7508 -0.4994
 9980TIP3   OH251430   2.042   4.501  13.655  0.5186 -0.4824  0.0292
 9980TIP3    H151431   2.132   4.508  13.624  0.2378  1.2492 -0.5133
 9980TIP3    H251432   1.991   4.479  13.577  0.3887 -0.9341  0.2347
 9981TIP3   OH251433   1.615   4.478   6.192 -0.0380  0.6477  0.1383
 9981TIP3    H151434   1.546   4.533   6.229 -0.2891  1.0479 -0.8981
 9981TIP3    H251435   1.697   4.519   6.220 -0.2246  1.2001 -0.1274
 9982TIP3   OH251436   1.324   1.039   6.427 -0.0756  0.0713  0.0843
 9982TIP3    H151437   1.399   1.065   6.372 -0.8112 -2.2486 -2.1845
 9982TIP3    H251438   1.254   1.098   6.401  0.4841  1.2449  1.1162
 9983TIP3   OH251439   6.112   3.753  11.922  0.2910  0.0512 -0.3772
 9983TIP3    H151440   6.097   3.677  11.865  0.8916 -1.1585  1.0179
 9983TIP3    H251441   6.197   3.787  11.894  0.9426 -0.9964  0.2505
 9984TIP3   OH251442   2.874   6.269   2.154 -0.3413  0.3728  0.0351
 9984TIP3    H151443   2.868   6.201   2.087  1.1069  0.1409  0.1132
 9984TIP3    H251444   2.876   6.351   2.104  0.1609  0.2338 -0.1770
 9985TIP3   OH251445   4.344   2.804   5.945 -0.4834  0.0548 -0.4681
 9985TIP3    H151446   4.355   2.741   6.016  0.8071 -1.2227 -1.7281
 9985TIP3    H251447   4.399   2.878   5.969 -1.1288  0.2401  0.4899
 9986TIP3   OH251448   4.658   3.669   4.740 -0.2702  0.3792 -0.0194
 9986TIP3    H151449   4.685   3.633   4.655  0.8249  0.1433  0.4056
 9986TIP3    H251450   4.564   3.651   4.745  0.0965 -1.9238 -0.1115
 9987TIP3   OH251451   4.502   1.428  13.801  0.0717  0.0910  0.2990
 9987TIP3    H151452   4.455   1.348  13.779 -0.8189 -0.0616  2.4930
 9987TIP3    H251453   4.594   1.402  13.806 -0.1051 -0.5866  0.1146
 9988TIP3   OH251454   1.476   3.075   1.569  0.1744  0.1180  0.5934
 9988TIP3    H151455   1.468   3.063   1.474  1.0656  3.0040  0.0449
 9988TIP3    H251456   1.425   3.154   1.588  1.1883  0.4283  2.2634
 9989TIP3   OH251457   5.832   1.397  15.085  0.2594  0.1281 -0.1225
 9989TIP3    H151458   5.906   1.450  15.055 -0.2912  0.8000 -0.3222
 9989TIP3    H251459   5.843   1.392  15.180  0.3669  0.5318 -0.1129
 9990TIP3   OH251460   4.761   2.151  11.854 -0.1252  0.2514  0.1378
 9990TIP3    H151461   4.707   2.092  11.802 -0.8161  0.4556  0.6097
 9990TIP3    H251462   4.702   2.221  11.881  0.4513  0.6512  0.3925
 9991TIP3   OH251463   2.174   1.537  14.688 -0.0251  0.3688  0.3572
 9991TIP3    H151464   2.216   1.584  14.616 -0.6709 -0.3579 -0.5139
 9991TIP3    H251465   2.108   1.598  14.720 -0.7191  0.1650 -0.6322
 9992TIP3   OH251466   1.735   3.464  14.217 -0.1286  0.3449  0.1152
 9992TIP3    H151467   1.682   3.511  14.152  0.2441  2.0806  0.9909
 9992TIP3    H251468   1.819   3.510  14.216  0.6580 -1.0646  0.2172
 9993TIP3   OH251469   0.430   5.302   1.138 -0.1474 -0.3845  0.6514
 9993TIP3    H151470   0.336   5.291   1.128 -0.1185 -0.6921  0.7128
 9993TIP3    H251471   0.464   5.213   1.152  0.1010 -0.2274  1.0499
 9994TIP3   OH251472   4.406   5.625  15.810  0.2394  0.2583  0.0548
 9994TIP3    H151473   4.423   5.635  15.717  0.7208 -1.1510 -0.0307
 9994TIP3    H251474   4.440   5.706  15.850  0.7256  0.5338 -0.8949
 9995TIP3   OH251475   1.156   4.700   5.615 -0.2605 -0.0226  0.2427
 9995TIP3    H151476   1.198   4.631   5.563 -0.6552  0.3250 -0.5563
 9995TIP3    H251477   1.229   4.749   5.652  0.0377 -0.0532 -0.2854
 9996TIP3   OH251478   0.612   3.301  15.479  0.2078  0.3719 -0.0953
 9996TIP3    H151479   0.595   3.215  15.519 -0.3723  1.2335  1.6366
 9996TIP3    H251480   0.702   3.295  15.448  0.3782 -0.6873  0.5265
 9997TIP3   OH251481   3.197   4.310   0.672  0.4069 -0.0213  0.4266
 9997TIP3    H151482   3.228   4.266   0.751 -1.5198  0.6320  1.6246
 9997TIP3    H251483   3.104   4.325   0.688 -0.0483  0.1642 -1.9837
 9998TIP3   OH251484   1.038   1.286  11.854 -0.2469  0.3084 -0.0130
 9998TIP3    H151485   1.059   1.298  11.946  0.9924  2.5200 -0.5187
 9998TIP3    H251486   1.117   1.313  11.807 -1.5514  1.3109 -1.7637
 9999TIP3   OH251487   1.746   1.429  16.065  0.2065 -0.6014 -0.3109
 9999TIP3    H151488   1.706   1.509  16.030  0.0128 -0.0330  1.1226
 9999TIP3    H251489   1.840   1.448  16.065  0.1470 -0.2812  0.2103
10000TIP3   OH251490   2.754   6.069  16.676  0.4123  0.0781 -0.9348
10000TIP3    H151491   2.730   5.992  16.728 -0.4798  0.8380 -0.1857
10000TIP3    H251492   2.730   6.045  16.586  0.8708 -0.8018 -0.8353
10001TIP3   OH251493   5.788   5.522   6.128 -0.2780 -0.0140 -0.2041
10001TIP3    H151494   5.805   5.549   6.037  0.4703 -0.5633 -0.2359
10001TIP3    H251495   5.874   5.519   6.169 -0.3093 -2.3040 -0.1948
10002TIP3   OH251496   6.087   5.005  16.022  0.1164  0.0458 -0.0049
10002TIP3    H151497   6.050   5.092  16.009 -0.5107  0.0370  1.5033
10002TIP3    H251498   6.026   4.946  15.978 -0.0197  0.2950 -0.1507
10003TIP3   OH251499   3.443   5.005   6.220 -0.4866 -0.0960  0.3776
10003TIP3    H151500   3.517   4.982   6.164 -0.8877 -0.0633 -0.1842
10003TIP3    H251501   3.372   4.949   6.189 -0.8656  0.3111  0.4971
10004TIP3   OH251502   6.246   3.668  10.401 -0.0616 -0.3068 -0.0774
10004TIP3    H151503   6.300   3.713  10.466 -1.4964  1.8114 -0.2484
10004TIP3    H251504   6.179   3.623  10.453 -0.3893  0.2517 -0.0062
10005TIP3   OH251505   2.607   6.400   5.767 -0.3662  0.2255 -0.2192
10005TIP3    H151506   2.513   6.412   5.778 -0.6900 -0.9504 -1.4517
10005TIP3    H251507   2.624   6.311   5.797 -0.0033 -0.2614 -1.7856
10006TIP3   OH251508   5.784   0.460   6.423 -0.2307 -0.2655 -0.2358
10006TIP3    H151509   5.864   0.414   6.395  0.2878  1.3840 -1.6782
10006TIP3    H251510   5.763   0.517   6.349 -2.7420 -0.5999  0.1420
10007TIP3   OH251511   2.250   5.207  12.265  0.2574 -0.1151  0.1989
10007TIP3    H151512   2.222   5.270  12.331  1.5004  2.8431 -1.9058
10007TIP3    H251513   2.169   5.166  12.235 -0.8104  1.6087  0.5745
10008TIP3   OH251514   4.353   4.939   5.378  0.6760  0.1841 -0.2976
10008TIP3    H151515   4.388   4.907   5.461  1.4237 -0.5340 -0.8799
10008TIP3    H251516   4.258   4.937   5.390  0.7354 -1.1105  0.1240
10009TIP3   OH251517   2.393   2.743   3.359  0.5152 -0.1025  0.1284
10009TIP3    H151518   2.381   2.779   3.447  1.1446 -3.0945  1.5934
10009TIP3    H251519   2.451   2.806   3.315 -0.6055  1.9694  1.4532
10010TIP3   OH251520   5.584   0.390   1.783  0.1815 -0.2132 -0.0747
10010TIP3    H151521   5.634   0.449   1.840 -1.8985  1.2137  0.4139
10010TIP3    H251522   5.581   0.435   1.698  3.9813 -2.7128 -1.8039
10011TIP3   OH251523   2.444   1.323  14.211 -0.1609  0.0112  0.6254
10011TIP3    H151524   2.411   1.326  14.121 -0.1309  0.2220  0.6204
10011TIP3    H251525   2.365   1.326  14.266 -0.1703  0.1002  0.6079
10012TIP3   OH251526   1.397   1.304   5.866 -0.7000  0.2069  0.3616
10012TIP3    H151527   1.452   1.251   5.923 -1.7581 -1.5583 -0.1717
10012TIP3    H251528   1.418   1.395   5.889  2.6126 -0.3554 -0.0610
10013TIP3   OH251529   3.620   1.849   1.892  0.5377 -0.1206  0.7775
10013TIP3    H151530   3.670   1.782   1.847 -2.3226 -0.7244 -1.8250
10013TIP3    H251531   3.654   1.932   1.859 -0.6293 -0.5384 -1.7317
10014TIP3   OH251532   1.217   4.548   3.665 -0.1370  0.2018  0.5373
10014TIP3    H151533   1.196   4.463   3.628  2.0331 -0.7264  1.2354
10014TIP3    H251534   1.203   4.537   3.759 -2.2812  1.4622  0.4268
10015TIP3   OH251535   1.365   3.299  15.925 -0.1123  0.1916 -0.1539
10015TIP3    H151536   1.340   3.387  15.895 -2.0391  0.0504  0.8834
10015TIP3    H251537   1.308   3.240  15.876 -0.4796 -0.3038  0.8552
10016TIP3   OH251538   3.478   2.219   4.538 -0.3877  0.1874  0.4248
10016TIP3    H151539   3.530   2.210   4.459  0.7462  0.0559  1.1645
10016TIP3    H251540   3.393   2.181   4.515  0.5731 -1.8059 -0.0982
10017TIP3   OH251541   1.013   6.753  11.978  0.0076 -0.3774  0.4607
10017TIP3    H151542   1.001   6.729  11.886 -3.0723  0.1659  0.5930
10017TIP3    H251543   0.961   6.833  11.988  1.1787  0.1958  2.4537
10018TIP3   OH251544   6.027   5.228  11.391  0.1138 -0.2050  0.1799
10018TIP3    H151545   5.993   5.173  11.462 -1.0615  0.1647 -0.0727
10018TIP3    H251546   6.107   5.267  11.426  0.8417 -1.8617  0.4618
10019TIP3   OH251547   0.869   3.221   0.258  0.0904 -0.1025 -0.3540
10019TIP3    H151548   0.963   3.203   0.259  0.0974 -0.2214  1.7582
10019TIP3    H251549   0.829   3.141   0.225  0.5945 -1.1673  1.4842
10020TIP3   OH251550   6.257   3.508  15.490 -0.4103 -0.9684  0.7439
10020TIP3    H151551   6.338   3.482  15.447 -0.1210 -1.6051  1.6500
10020TIP3    H251552   6.281   3.585  15.542 -0.7449 -0.2394 -0.1484
10021TIP3   OH251553   5.658   4.738   4.328  0.8827 -0.3394 -0.8007
10021TIP3    H151554   5.603   4.700   4.259 -0.1578 -1.0674  0.3850
10021TIP3    H251555   5.735   4.769   4.282 -0.1819  0.0404 -2.4307
10022TIP3   OH251556   6.284   5.225   0.250  0.4444 -0.4905  0.2180
10022TIP3    H151557   6.232   5.173   0.189  1.3609 -0.8997 -0.2245
10022TIP3    H251558   6.371   5.187   0.246  1.2050  1.2482 -0.3177
10023TIP3   OH251559   2.178   5.834  15.304 -0.0814  0.9104  0.5196
10023TIP3    H151560   2.229   5.871  15.376 -2.7035  1.1774  2.3803
10023TIP3    H251561   2.115   5.776  15.346 -2.2473  1.6712 -1.4494
10024TIP3   OH251562   6.508   0.783  13.909  0.4313 -0.0791 -0.0414
10024TIP3    H151563   6.458   0.863  13.895  1.3930  0.4719 -0.4578
10024TIP3    H251564   6.554   0.797  13.992 -0.2811 -0.6847  0.4677
10025TIP3   OH251565   4.385   2.855  14.132 -0.1558  0.0185 -0.6939
10025TIP3    H151566   4.364   2.880  14.222 -1.9414 -1.2712 -0.7156
10025TIP3    H251567   4.479   2.871  14.125 -0.1098  0.8334  1.1676
10026TIP3   OH251568   5.623   6.008  12.558  0.4619 -0.5645 -0.1022
10026TIP3    H151569   5.717   6.017  12.541  1.3919  0.0121  4.1263
10026TIP3    H251570   5.613   5.918  12.589 -0.5096 -0.7688 -0.9834
10027TIP3   OH251571   0.041   0.265   3.013 -0.2011  0.5614  0.8311
10027TIP3    H151572   0.009   0.198   3.073 -2.3421  0.3135 -0.4966
10027TIP3    H251573   0.044   0.222   2.928  1.0076  1.4229  0.4096
10028TIP3   OH251574   3.110   2.046   0.178 -0.2650  0.0520 -0.4065
10028TIP3    H151575   3.069   2.125   0.213 -1.6458 -0.6874 -0.3076
10028TIP3    H251576   3.160   2.010   0.251 -1.8846 -0.6486  0.4065
10029TIP3   OH251577   2.581   6.327  16.101 -0.4346 -0.1529  0.0121
10029TIP3    H151578   2.605   6.289  16.186  1.3982 -0.4703 -0.6105
10029TIP3    H251579   2.495   6.289  16.081 -0.5731 -0.6178  1.3752
10030TIP3   OH251580   4.368   1.597   1.325  0.2460 -0.1345  1.0951
10030TIP3    H151581   4.310   1.644   1.265  0.6752 -1.2359 -0.2285
10030TIP3    H251582   4.446   1.578   1.272 -0.6569 -4.0333  0.8640
10031TIP3   OH251583   4.269   3.263  15.989  0.0954  0.4642  0.8757
10031TIP3    H151584   4.206   3.195  16.013 -1.6671  1.0275 -1.7354
10031TIP3    H251585   4.242   3.340  16.040 -2.1959  1.0385 -1.0469
10032TIP3   OH251586   2.239   3.869   5.894 -0.2504 -0.5914 -0.0927
10032TIP3    H151587   2.213   3.868   5.986  1.6233  1.1945  0.5350
10032TIP3    H251588   2.188   3.939   5.855 -1.0538 -1.3562 -0.4513
10033TIP3   OH251589   6.624   4.883   3.190  0.1152  0.6536 -0.0781
10033TIP3    H151590   6.608   4.810   3.249 -0.1325  1.2173  0.5607
10033TIP3    H251591   6.564   4.951   3.219 -0.3445  0.7847 -1.2725
10034TIP3   OH251592   1.015   2.687   1.238 -0.3207  0.3613  0.4744
10034TIP3    H151593   0.966   2.664   1.317  0.3098  2.2118  1.4585
10034TIP3    H251594   1.021   2.782   1.240  0.4417  0.3971 -1.3900
10035TIP3   OH251595   2.764   5.839   2.194 -0.0845  0.5886 -0.0801
10035TIP3    H151596   2.704   5.781   2.147  0.2083  0.2130  0.0049
10035TIP3    H251597   2.707   5.889   2.253 -0.4515  1.0540 -0.8195
10036TIP3   OH251598   6.048   0.257  14.306 -0.4137 -0.2394 -0.2389
10036TIP3    H151599   5.976   0.193  14.303  0.5869 -1.4090 -0.3901
10036TIP3    H251600   6.117   0.216  14.254  0.1681  1.1229 -0.5776
10037TIP3   OH251601   5.712   5.170  13.925 -0.2263  0.4766  0.4587
10037TIP3    H151602   5.677   5.259  13.923  0.5820  0.8481 -2.6851
10037TIP3    H251603   5.635   5.113  13.930 -0.7401  1.2736  2.7422
10038TIP3   OH251604   5.720   1.945  11.933 -0.5536 -0.1623 -0.3084
10038TIP3    H151605   5.793   1.962  11.874  0.5039 -1.0619  0.6938
10038TIP3    H251606   5.666   2.024  11.928  0.6602  0.6656 -0.8127
10039TIP3   OH251607   6.095   0.978   6.500  0.1760 -0.6414 -0.0587
10039TIP3    H151608   6.080   1.064   6.460  1.1366 -1.1058 -1.5011
10039TIP3    H251609   6.045   0.917   6.446  3.0523 -1.5494 -1.9225
10040TIP3   OH251610   1.669   0.594  14.236  0.1390  0.3518  0.1199
10040TIP3    H151611   1.737   0.630  14.292  0.4557  0.5512 -0.3843
10040TIP3    H251612   1.602   0.663  14.232 -0.8822 -0.4594  1.9212
10041TIP3   OH251613   1.054   2.383   0.216  0.3577  0.3740 -0.0522
10041TIP3    H151614   1.140   2.356   0.184  0.1853 -0.1042 -0.1210
10041TIP3    H251615   1.032   2.320   0.285  0.7888  1.4927  1.1385
10042TIP3   OH251616   3.169   2.906  11.514 -0.3247  0.6150  0.1346
10042TIP3    H151617   3.141   2.977  11.456 -0.0691  1.2673  0.7942
10042TIP3    H251618   3.258   2.885  11.486 -1.2267 -1.1315 -1.6509
10043TIP3   OH251619   2.352   3.386  16.692  0.3660 -0.2604 -0.5197
10043TIP3    H151620   2.270   3.407  16.738  0.6067 -1.1864  0.3842
10043TIP3    H251621   2.328   3.383  16.600  0.0623  2.6015 -0.6099
10044TIP3   OH251622   4.237   0.114  16.062 -0.4493  0.0410 -0.2531
10044TIP3    H151623   4.300   0.171  16.105  1.0155 -0.5782 -1.4824
10044TIP3    H251624   4.174   0.091  16.131  0.1910  1.3192  0.8012
10045TIP3   OH251625   4.123   0.049   1.469  0.8101 -1.1142  0.0912
10045TIP3    H151626   4.058   0.063   1.400  0.7170 -0.8313  0.2355
10045TIP3    H251627   4.093  -0.030   1.515  0.7734 -1.1987 -0.0779
10046TIP3   OH251628   0.757   0.641  12.992  0.4892 -0.1944  0.3189
10046TIP3    H151629   0.792   0.557  13.021  1.4663 -0.8047 -2.3499
10046TIP3    H251630   0.697   0.618  12.921 -1.5737  1.2174  1.4931
10047TIP3   OH251631   6.521   5.208   0.663 -0.7355 -0.3345  0.0884
10047TIP3    H151632   6.444   5.225   0.609 -0.8532 -0.4501  0.2179
10047TIP3    H251633   6.485   5.173   0.744 -0.7884  2.6097  1.4583
10048TIP3   OH251634   6.512   1.369  15.878 -0.2569 -0.3126  0.3844
10048TIP3    H151635   6.564   1.315  15.819  0.4934 -0.0124  0.7594
10048TIP3    H251636   6.554   1.455  15.876 -0.8156 -0.0303  0.5935
10049TIP3   OH251637   3.983   3.669   2.075 -0.8623 -0.0221  0.1916
10049TIP3    H151638   3.967   3.737   2.009  0.6167  0.4515  0.2680
10049TIP3    H251639   4.079   3.663   2.080 -0.8374  0.8441  3.1333
10050TIP3   OH251640   5.268   3.425  16.121  0.1548  0.3850  0.5725
10050TIP3    H151641   5.219   3.361  16.068 -2.1948  4.3184 -2.6103
10050TIP3    H251642   5.202   3.463  16.179  0.9949  1.2114  1.0028
10051TIP3   OH251643   3.799   2.076  14.240 -0.6850 -0.0445 -0.1045
10051TIP3    H151644   3.858   2.084  14.315 -1.2856  0.9647  0.2900
10051TIP3    H251645   3.742   2.003  14.262  0.4921 -1.1301 -0.5625
10052TIP3   OH251646   1.171   6.705  12.879  0.3405 -0.1996  0.2282
10052TIP3    H151647   1.204   6.770  12.941  1.9579 -0.0494 -0.7080
10052TIP3    H251648   1.250   6.658  12.850 -0.0591  0.8384 -2.9092
10053TIP3   OH251649   0.506   5.177   2.440  0.2289 -0.5562 -0.1845
10053TIP3    H151650   0.501   5.097   2.493  1.2980 -0.9956 -0.7049
10053TIP3    H251651   0.416   5.193   2.412 -0.1545 -1.0141  0.7328
10054TIP3   OH251652   0.078   3.199   2.952 -0.2620 -0.1398 -0.0388
10054TIP3    H151653   0.160   3.186   2.904 -1.0773 -0.9165 -1.2736
10054TIP3    H251654   0.087   3.144   3.030  0.7316  0.4654  0.2919
10055TIP3   OH251655   0.259   3.978   1.101  0.0284 -0.3965 -0.1777
10055TIP3    H151656   0.283   4.045   1.165 -1.8949 -0.6271  0.8606
10055TIP3    H251657   0.208   4.025   1.036 -1.8126 -0.8707  0.8501
10056TIP3   OH251658   4.732   0.477   2.665  0.1205  0.7869 -0.3066
10056TIP3    H151659   4.787   0.474   2.743 -0.1705  0.3238 -0.1099
10056TIP3    H251660   4.772   0.415   2.604 -0.5594 -0.0810  0.1030
10057TIP3   OH251661   2.147   2.257   1.759 -0.2521  0.5072 -0.2134
10057TIP3    H151662   2.086   2.262   1.686 -1.5524  1.5589  0.9056
10057TIP3    H251663   2.205   2.183   1.737 -1.1643  0.2464 -1.8562
10058TIP3   OH251664   3.532   0.170   3.921 -0.8592  0.1867  0.0595
10058TIP3    H151665   3.609   0.181   3.865  0.0576  0.3539  1.3288
10058TIP3    H251666   3.498   0.259   3.932 -0.5506  0.2619  0.4326
10059TIP3   OH251667   6.444   5.591   0.829  0.2878  0.5107  0.0512
10059TIP3    H151668   6.400   5.539   0.896  0.3720 -0.0306 -0.3057
10059TIP3    H251669   6.499   5.652   0.879 -0.0244  0.4492  0.4774
10060TIP3   OH251670   0.756   3.963   4.220  0.3684 -0.0718  0.4248
10060TIP3    H151671   0.787   3.884   4.175  2.2580  0.7711  0.1089
10060TIP3    H251672   0.776   3.948   4.312  1.9275  0.4699  0.2236
10061TIP3   OH251673   6.231   6.139  11.122 -0.1300  0.3594  0.2412
10061TIP3    H151674   6.312   6.172  11.161  0.8336  0.2085 -1.5260
10061TIP3    H251675   6.259   6.099  11.040 -1.5079 -2.9496  1.1892
10062TIP3   OH251676   0.067   3.563   5.856  1.0066 -0.1893  0.3462
10062TIP3    H151677   0.028   3.553   5.943 -1.5647  0.7664 -0.6082
10062TIP3    H251678   0.117   3.644   5.862  0.7412 -0.0590  0.8998
10063TIP3   OH251679   0.421   5.357   5.292  0.5280 -0.4156 -0.2516
10063TIP3    H151680   0.396   5.428   5.233 -0.1050 -0.1929  0.2821
10063TIP3    H251681   0.513   5.375   5.313  0.2925  0.4059  0.1119
10064TIP3   OH251682   4.920   4.901  17.177  0.1871  0.0700 -0.2247
10064TIP3    H151683   4.840   4.954  17.181 -0.3308 -0.3309 -2.9624
10064TIP3    H251684   4.895   4.817  17.216  0.0401  0.7130  1.1302
10065TIP3   OH251685   1.792   0.427  12.481 -0.3014 -0.1368  0.3238
10065TIP3    H151686   1.822   0.514  12.453 -0.8339 -0.3923 -1.1305
10065TIP3    H251687   1.841   0.366  12.426 -2.7102 -0.5860 -1.5175
10066TIP3   OH251688   6.503   6.509  14.070 -0.2379 -0.2098 -0.0857
10066TIP3    H151689   6.500   6.413  14.068 -0.9875 -0.1928  0.1451
10066TIP3    H251690   6.412   6.536  14.077  0.0535  0.5011  1.2286
10067TIP3   OH251691   0.542   4.562   6.578  0.1009  0.0780  0.3895
10067TIP3    H151692   0.579   4.474   6.581  1.9591  0.8077 -0.1408
10067TIP3    H251693   0.587   4.610   6.647 -0.4623  0.7801  0.2792
10068TIP3   OH251694   2.134   3.044   0.313  0.3015  0.2113 -0.0388
10068TIP3    H151695   2.118   3.081   0.400  0.8750 -0.8612  0.5518
10068TIP3    H251696   2.122   3.118   0.253  0.3839  1.0968  0.9917
10069TIP3   OH251697   5.429   2.310   1.060  0.1426 -0.2709  0.0863
10069TIP3    H151698   5.475   2.250   1.002  1.0755 -0.1020  0.6361
10069TIP3    H251699   5.363   2.256   1.104  0.3415 -0.6820 -0.1206
10070TIP3   OH251700   1.095   6.729   0.952 -0.8596 -0.1319 -0.9044
10070TIP3    H151701   1.112   6.816   0.988 -0.9705 -0.3665 -0.2850
10070TIP3    H251702   1.005   6.733   0.919 -1.6853 -0.6638  1.1266
10071TIP3   OH251703   1.446   6.386   0.974 -0.1822 -0.0574  0.0654
10071TIP3    H151704   1.418   6.362   1.062  1.1080 -1.8037  0.0457
10071TIP3    H251705   1.372   6.433   0.937 -0.4814  1.4429  2.3382
10072TIP3   OH251706   6.513   6.229   3.430 -1.0056 -0.1441 -0.0268
10072TIP3    H151707   6.561   6.312   3.421 -0.4048 -0.6709 -2.3990
10072TIP3    H251708   6.479   6.231   3.520  2.0634  0.9909  1.2413
10073TIP3   OH251709   1.696   1.891  11.845  0.6420 -0.7406  0.0332
10073TIP3    H151710   1.609   1.852  11.854  0.1609  0.4827  1.0467
10073TIP3    H251711   1.756   1.821  11.870 -0.1719 -0.9830  1.4291
10074TIP3   OH251712   1.696   0.412  16.102 -0.6527 -0.6024 -0.2734
10074TIP3    H151713   1.751   0.440  16.029 -0.5911  2.1471  0.7194
10074TIP3    H251714   1.617   0.378  16.060  0.0032 -0.5261 -1.6369
10075TIP3   OH251715   1.798   0.503   5.432 -0.4820 -0.2857 -0.2420
10075TIP3    H151716   1.792   0.554   5.512 -0.5570 -0.6469 -0.0172
10075TIP3    H251717   1.773   0.564   5.363  3.0205  1.1753 -0.4549
10076TIP3   OH251718   2.796   4.717  12.158  0.1110 -0.0335 -0.0788
10076TIP3    H151719   2.736   4.746  12.227 -0.4995  0.9181 -0.9586
10076TIP3    H251720   2.744   4.655  12.106 -0.0994  0.6892 -0.7639
10077TIP3   OH251721   2.524   0.595   2.594  0.4032  0.0984 -0.0942
10077TIP3    H151722   2.574   0.662   2.641  0.2035 -0.5382  1.0634
10077TIP3    H251723   2.570   0.513   2.612 -0.5197 -0.3658  0.2421
10078TIP3   OH251724   3.280   4.686   2.039 -0.3922 -0.0369  0.0056
10078TIP3    H151725   3.291   4.658   1.949 -1.0608  0.4513 -0.2373
10078TIP3    H251726   3.237   4.613   2.083 -0.0847 -0.2662 -0.0786
10079TIP3   OH251727   1.872   2.447   3.610  0.1736  0.1047  0.0941
10079TIP3    H151728   1.905   2.486   3.691 -0.1014 -1.0057  0.7645
10079TIP3    H251729   1.823   2.370   3.639 -2.7067  1.4293 -0.8477
10080TIP3   OH251730   1.537   3.504   3.850 -0.3538  0.0512 -0.0983
10080TIP3    H151731   1.590   3.468   3.922 -1.1290  0.4280  0.6797
10080TIP3    H251732   1.502   3.428   3.805  2.1574 -0.2823 -1.6867
10081TIP3   OH251733   3.129   5.824  13.348 -0.0148  0.6417  0.5072
10081TIP3    H151734   3.109   5.734  13.373 -0.6196  0.7239  0.3375
10081TIP3    H251735   3.211   5.844  13.393  1.1319 -0.6246 -0.9063
10082TIP3   OH251736   1.502   1.560  11.717 -0.0928 -0.3648  0.4157
10082TIP3    H151737   1.592   1.568  11.686 -0.2227 -0.6804 -0.0617
10082TIP3    H251738   1.504   1.592  11.808  0.3913  0.1080  0.2386
10083TIP3   OH251739   2.530   3.553  13.500  0.3013  0.2840  0.0817
10083TIP3    H151740   2.509   3.490  13.569  1.0365  1.0879  1.0745
10083TIP3    H251741   2.619   3.582  13.520  0.9732 -0.2535 -1.8384
10084TIP3   OH251742   1.714   2.335   0.516 -0.0878  0.0469 -0.1229
10084TIP3    H151743   1.652   2.297   0.578 -0.4443 -0.9842 -1.0852
10084TIP3    H251744   1.692   2.428   0.513  0.9561  0.4767  2.4607
10085TIP3   OH251745   2.326   4.060  14.842  0.2335  0.6329 -0.4989
10085TIP3    H151746   2.399   4.110  14.806  0.5377  0.7713  0.2959
10085TIP3    H251747   2.270   4.125  14.884  0.5258  0.3434  0.3595
10086TIP3   OH251748   0.429   3.193  12.062 -0.5838  0.6764  0.5111
10086TIP3    H151749   0.336   3.198  12.038 -0.5876  0.6919  0.5283
10086TIP3    H251750   0.471   3.260  12.008 -0.2835 -0.5900 -0.8525
10087TIP3   OH251751   0.220   4.298   2.584  0.0535  0.1499  0.6762
10087TIP3    H151752   0.134   4.273   2.551  0.8048 -0.2893 -1.0634
10087TIP3    H251753   0.243   4.376   2.534  1.7732 -1.2747 -0.9141
10088TIP3   OH251754   3.144   0.352   3.715  0.0163 -0.1449 -0.3756
10088TIP3    H151755   3.229   0.306   3.714  0.8372  1.3180 -1.4320
10088TIP3    H251756   3.101   0.326   3.634  0.2143  0.4357 -0.6741
10089TIP3   OH251757   4.533   3.971  14.338  0.2009 -0.3600  0.3193
10089TIP3    H151758   4.550   4.023  14.416  1.9099  0.2040 -0.3825
10089TIP3    H251759   4.484   4.029  14.280 -0.1759 -0.4382  0.5515
10090TIP3   OH251760   3.263   3.615  12.343  0.5398 -0.3124 -0.3123
10090TIP3    H151761   3.341   3.657  12.308 -0.0721  1.4335  0.2802
10090TIP3    H251762   3.206   3.601  12.267  1.5594 -2.0389 -0.8229
10091TIP3   OH251763   3.346   5.083   3.178 -0.0210  0.0449 -0.1208
10091TIP3    H151764   3.335   4.992   3.203 -2.9976  0.5607  0.7771
10091TIP3    H251765   3.284   5.096   3.107 -0.0984  1.5335  0.1945
10092TIP3   OH251766   1.426   4.669  16.670 -0.0146  0.4476  0.7873
10092TIP3    H151767   1.362   4.598  16.661 -1.8802  1.6510  3.2753
10092TIP3    H251768   1.494   4.648  16.607 -1.2784 -2.6652  0.2762
10093TIP3   OH251769   1.862   0.411   1.256 -0.1532  0.2576 -0.2988
10093TIP3    H151770   1.949   0.380   1.231 -0.2167 -1.5081  1.3825
10093TIP3    H251771   1.878   0.479   1.321 -0.0389  0.4035 -0.4771
10094TIP3   OH251772   4.836   5.133  16.003 -0.3889 -0.6541  0.3117
10094TIP3    H151773   4.855   5.110  16.094  0.2078 -0.3231  0.2752
10094TIP3    H251774   4.767   5.198  16.009 -2.0011 -2.2830  0.4273
10095TIP3   OH251775   0.326   4.232   4.673 -0.2059  0.0825  0.4224
10095TIP3    H151776   0.407   4.254   4.627  1.3600 -0.7687  2.6056
10095TIP3    H251777   0.307   4.308   4.727 -0.9988  0.3353 -0.1801
10096TIP3   OH251778   3.793   5.141   2.319 -0.2351  0.6666  0.6016
10096TIP3    H151779   3.705   5.122   2.352  0.8518 -0.7450  2.9912
10096TIP3    H251780   3.797   5.098   2.234 -1.5502 -0.1041  0.9025
10097TIP3   OH251781   2.554   2.016  12.450  0.1062  0.4890  0.8072
10097TIP3    H151782   2.466   2.048  12.430  0.1464  0.5260  0.6910
10097TIP3    H251783   2.548   1.921  12.435  0.7323  0.7703 -1.6053
10098TIP3   OH251784   2.393   3.602   2.978 -0.0990  0.3690  0.1590
10098TIP3    H151785   2.411   3.693   3.000  0.5934  0.2927 -0.0590
10098TIP3    H251786   2.473   3.571   2.936 -0.7446  0.0057 -0.8578
10099TIP3   OH251787   2.361   4.004  12.267  0.0424 -0.3746  0.1256
10099TIP3    H151788   2.390   4.094  12.283 -0.2193  0.1653 -2.1648
10099TIP3    H251789   2.441   3.956  12.246 -0.1634  0.2296 -2.3312
10100TIP3   OH251790   3.766   0.035  16.445 -0.3390  0.7388  0.1235
10100TIP3    H151791   3.685   0.002  16.406 -0.7851  2.3868 -0.4196
10100TIP3    H251792   3.740   0.069  16.531  0.2544 -0.9164  1.0050
10101TIP3   OH251793   1.730   4.423   0.778 -0.3835  0.3471  0.2943
10101TIP3    H151794   1.800   4.386   0.724 -0.4901 -0.3916  0.6510
10101TIP3    H251795   1.664   4.450   0.715 -1.0128 -1.5621  0.0767
10102TIP3   OH251796   2.012   0.242  13.368 -0.1980  0.3870 -0.3433
10102TIP3    H151797   2.008   0.294  13.448 -0.0573  1.0519 -0.7585
10102TIP3    H251798   2.100   0.257  13.334  0.5796 -1.7392  0.5676
10103TIP3   OH251799   4.773   1.479   4.325  0.6025  0.4127 -0.4718
10103TIP3    H151800   4.698   1.433   4.364  0.6724  1.1024  0.5352
10103TIP3    H251801   4.754   1.572   4.341  0.1858  0.8143 -2.9492
10104TIP3   OH251802   2.180   0.658  11.638  0.7578  0.0746 -0.7908
10104TIP3    H151803   2.123   0.662  11.561 -0.6898 -1.4469  0.1457
10104TIP3    H251804   2.179   0.747  11.673 -2.1518 -0.1367 -0.0932
10105TIP3   OH251805   4.273   4.457  14.304  0.0692  0.1101  0.6198
10105TIP3    H151806   4.204   4.436  14.241  0.2918 -1.2338  0.7802
10105TIP3    H251807   4.355   4.450  14.255  0.2530 -1.0671  1.0524
10106TIP3   OH251808   6.655   1.255   4.298 -0.3644 -0.1605  0.1478
10106TIP3    H151809   6.581   1.269   4.239 -0.6240  2.5025  0.9634
10106TIP3    H251810   6.615   1.234   4.383 -0.1234 -0.3847  0.2066
10107TIP3   OH251811   5.368   4.821  13.640  0.7163 -0.2244 -0.1605
10107TIP3    H151812   5.360   4.811  13.735  1.6701 -1.7010 -0.2020
10107TIP3    H251813   5.300   4.764  13.604 -1.4049  2.3002 -0.4053
10108TIP3   OH251814   2.551   4.720   4.490 -0.5420 -0.4527 -0.2144
10108TIP3    H151815   2.646   4.724   4.506 -0.4583  0.1390 -0.8360
10108TIP3    H251816   2.543   4.694   4.399 -0.8541  3.6037 -1.5722
10109TIP3   OH251817   1.861   0.163   3.369  0.4494 -0.7420  0.1616
10109TIP3    H151818   1.893   0.076   3.347 -0.8278 -1.2063  0.0317
10109TIP3    H251819   1.792   0.148   3.434 -0.8973  0.0235 -1.0364
10110TIP3   OH251820   4.540   3.692   6.308  0.2454 -0.5359 -0.2332
10110TIP3    H151821   4.450   3.725   6.311  0.3848 -0.1013 -0.7115
10110TIP3    H251822   4.574   3.707   6.396  0.3107  0.6189 -0.4367
10111TIP3   OH251823   4.007   2.811   1.078  1.1444  0.0402 -0.1936
10111TIP3    H151824   3.924   2.763   1.071 -0.1445  2.2646 -1.4796
10111TIP3    H251825   4.060   2.776   1.006  0.7175 -0.3219 -0.3421
10112TIP3   OH251826   6.418   1.809  15.974 -0.4486 -0.0567 -0.2509
10112TIP3    H151827   6.407   1.861  15.894 -0.7269  0.5870  0.2010
10112TIP3    H251828   6.488   1.748  15.953 -0.8048 -0.1809 -1.1366
10113TIP3   OH251829   3.348   6.800  17.206  0.2251  0.1267 -0.0388
10113TIP3    H151830   3.370   6.840  17.290  1.1705 -0.4269 -0.0078
10113TIP3    H251831   3.279   6.737  17.227 -0.0899  0.5332  0.1810
10114TIP3   OH251832   1.820   1.335   0.519  0.0381  0.3881 -0.3191
10114TIP3    H151833   1.754   1.354   0.452  0.1138  1.1044 -0.2033
10114TIP3    H251834   1.872   1.264   0.482 -0.3933  0.2627 -0.6916
10115TIP3   OH251835   2.219   1.015  14.733 -0.3217 -0.0390  0.4518
10115TIP3    H151836   2.134   0.983  14.764 -0.4622 -0.5389 -0.4231
10115TIP3    H251837   2.208   1.110  14.728 -1.8195 -0.2530 -2.3666
10116TIP3   OH251838   4.048   4.987  12.088 -0.0400  0.3693  0.1590
10116TIP3    H151839   4.036   5.080  12.107  0.0562  0.4486 -0.1639
10116TIP3    H251840   3.993   4.972  12.011  1.0557  0.4837 -0.6623
10117TIP3   OH251841   5.011   5.071  11.284  0.5472 -0.4226 -0.2096
10117TIP3    H151842   4.946   5.001  11.289  0.4562 -0.4418 -1.3352
10117TIP3    H251843   5.060   5.064  11.366  1.2847 -2.5558 -0.7395
10118TIP3   OH251844   3.326   3.350   3.427  0.5476  0.6067 -0.0684
10118TIP3    H151845   3.288   3.431   3.394  0.4594  1.4816  2.0743
10118TIP3    H251846   3.304   3.348   3.520  0.1331 -2.1334 -0.1307
10119TIP3   OH251847   0.540   3.584  13.322  0.3444  0.1725  0.5628
10119TIP3    H151848   0.562   3.673  13.294  2.1917 -0.1006  1.0295
10119TIP3    H251849   0.466   3.595  13.382 -2.5476  0.9452 -2.8030
10120TIP3   OH251850   3.396   4.441  11.077 -0.6837  0.2779  0.4317
10120TIP3    H151851   3.359   4.373  11.021 -1.0993  0.8030  0.0571
10120TIP3    H251852   3.482   4.407  11.102  0.0075  0.4924 -1.4328
10121TIP3   OH251853   0.187   4.807  12.302 -0.4639 -0.3860 -0.3275
10121TIP3    H151854   0.246   4.826  12.375 -2.1428 -1.3513  1.3644
10121TIP3    H251855   0.119   4.752  12.340 -1.3993 -0.9553 -2.6552
10122TIP3   OH251856   5.296   6.260   4.910  0.1674 -0.4902 -0.1801
10122TIP3    H151857   5.318   6.249   5.003 -1.2020 -1.2891  0.0711
10122TIP3    H251858   5.381   6.267   4.866  0.8786 -1.5044  0.9692
10123TIP3   OH251859   2.752   2.403   3.422 -0.3713 -0.1032 -0.1626
10123TIP3    H151860   2.801   2.419   3.504  1.3526  0.0267 -1.1633
10123TIP3    H251861   2.758   2.486   3.374  3.5625 -1.6421 -2.8215
10124TIP3   OH251862   0.461   5.162  15.348  0.1055  0.1437  1.1236
10124TIP3    H151863   0.402   5.128  15.280 -0.6157  0.0520  1.7958
10124TIP3    H251864   0.457   5.257  15.339  1.5166  0.1257 -0.2347
10125TIP3   OH251865   4.304   6.502   5.593  0.1043  0.3996  0.7220
10125TIP3    H151866   4.267   6.526   5.678 -0.7785  0.9957  0.1800
10125TIP3    H251867   4.254   6.553   5.529  0.9877  0.2290 -0.1394
10126TIP3   OH251868   5.582   4.815  14.066  0.5701 -0.0564 -0.0084
10126TIP3    H151869   5.649   4.747  14.054 -0.4280 -1.1189  0.1652
10126TIP3    H251870   5.587   4.837  14.159 -0.0999 -1.0115  0.2700
10127TIP3   OH251871   2.127   6.243  16.383 -0.5507  0.3238 -0.0087
10127TIP3    H151872   2.213   6.241  16.425 -0.8854 -1.5719  0.6763
10127TIP3    H251873   2.100   6.335  16.388  1.0027  0.7714  0.6477
10128TIP3   OH251874   0.718   2.198   2.618  0.0955  0.1472 -0.1757
10128TIP3    H151875   0.799   2.154   2.593  0.6886  1.4203 -0.5331
10128TIP3    H251876   0.649   2.142   2.580  0.6447 -2.0884  1.8804
10129TIP3   OH251877   6.393   2.268   2.490 -0.0518  0.1040 -0.1616
10129TIP3    H151878   6.446   2.204   2.442 -1.3906 -2.0947  1.0859
10129TIP3    H251879   6.429   2.266   2.579 -2.0483 -1.4026  0.6963
10130TIP3   OH251880   2.176   0.635  15.980  0.4389  0.6065 -0.0860
10130TIP3    H151881   2.249   0.574  15.996 -0.2922  0.0464  1.3339
10130TIP3    H251882   2.202   0.683  15.902  2.4452  0.5678  0.4835
10131TIP3   OH251883   5.023   3.667   4.066 -0.6808 -0.1014  0.0515
10131TIP3    H151884   4.943   3.665   4.014 -1.5061  1.3707  1.1802
10131TIP3    H251885   5.006   3.605   4.138 -1.0199  0.5578  0.5510
10132TIP3   OH251886   0.697   5.136   1.435 -0.0276  0.0861  0.4758
10132TIP3    H151887   0.752   5.183   1.372 -0.7758 -0.9734 -1.0380
10132TIP3    H251888   0.746   5.138   1.516  1.8159 -0.0167 -0.5824
10133TIP3   OH251889   6.663   1.697   2.571 -0.1738 -0.3669  0.6403
10133TIP3    H151890   6.720   1.717   2.496 -0.1176  1.8554  1.1988
10133TIP3    H251891   6.653   1.602   2.568  2.1680 -0.6760 -0.4903
10134TIP3   OH251892   6.200   6.091   1.257  0.1930  0.0808 -0.1106
10134TIP3    H151893   6.230   6.135   1.178  0.8158  0.4073  0.2972
10134TIP3    H251894   6.155   6.013   1.226  3.3762 -1.6676 -0.7423
10135TIP3   OH251895   0.550   2.536  13.558  0.2146  0.0816 -0.2989
10135TIP3    H151896   0.481   2.538  13.491 -0.7012  0.0622  0.6205
10135TIP3    H251897   0.530   2.610  13.615  1.1762  0.2918 -0.2265
10136TIP3   OH251898   1.394   1.471  17.026  0.2137 -0.7771 -0.0262
10136TIP3    H151899   1.485   1.456  17.049  0.6014  0.8157 -0.4174
10136TIP3    H251900   1.373   1.557  17.063 -1.6646 -1.8431  1.5543
10137TIP3   OH251901   2.427   1.042  12.657  0.1636 -0.1627  0.0934
10137TIP3    H151902   2.431   0.946  12.657  0.6061 -0.1905  2.4828
10137TIP3    H251903   2.462   1.068  12.742  1.1185  2.2020 -0.9344
10138TIP3   OH251904   1.480   5.964  14.899  0.1317  0.4430 -0.7143
10138TIP3    H151905   1.444   5.922  14.821  0.5178 -1.4903  0.1070
10138TIP3    H251906   1.564   6.000  14.871  0.2097 -0.1294 -1.2101
10139TIP3   OH251907   6.803   2.133  16.384  0.0981  0.1984  0.6908
10139TIP3    H151908   6.828   2.096  16.469  0.0793 -0.0288  0.5986
10139TIP3    H251909   6.881   2.126  16.330 -0.3451 -1.1391  0.1893
10140TIP3   OH251910   0.245   3.795  11.284  0.3693  0.3683  0.0500
10140TIP3    H151911   0.336   3.802  11.311  0.1610  0.0702  0.8449
10140TIP3    H251912   0.196   3.778  11.365 -0.2271 -0.8681 -0.5357
10141TIP3   OH251913   4.204   1.910  15.271  0.4589 -0.5177  0.2549
10141TIP3    H151914   4.154   1.952  15.341 -0.4825 -1.6124  0.2713
10141TIP3    H251915   4.152   1.925  15.192  0.7593 -0.5704  0.0443
10142TIP3   OH251916   4.990   5.813   1.093 -0.2196  0.1788 -0.0036
10142TIP3    H151917   4.919   5.866   1.058  2.1482  2.5358 -1.6829
10142TIP3    H251918   5.058   5.877   1.115  1.7181 -1.9902  0.6688
10143TIP3   OH251919   3.514   1.349  14.075 -0.2391 -0.2464  0.0101
10143TIP3    H151920   3.550   1.408  14.008  2.2882 -0.6767  0.8926
10143TIP3    H251921   3.555   1.265  14.058 -2.0201 -1.2144  0.2113
10144TIP3   OH251922   5.397   3.586  14.130  0.1116  0.0297  0.6362
10144TIP3    H151923   5.385   3.665  14.182  0.1733 -0.6089  1.6545
10144TIP3    H251924   5.486   3.557  14.149  0.1834 -0.1372  0.0657
10145TIP3   OH251925   0.678   5.224  17.002  0.1929  0.3092  0.0961
10145TIP3    H151926   0.732   5.163  17.052  0.4768  0.0332 -0.5348
10145TIP3    H251927   0.710   5.216  16.912 -0.2056  0.9104 -0.1035
10146TIP3   OH251928   2.766   4.263   3.815 -0.3488 -1.1421 -0.1611
10146TIP3    H151929   2.796   4.307   3.735 -1.4659 -1.9010 -1.0348
10146TIP3    H251930   2.704   4.324   3.854  0.9325 -0.3331  0.7089
10147TIP3   OH251931   0.080   3.337   2.134  0.2787 -0.5837  1.0983
10147TIP3    H151932   0.142   3.354   2.204 -1.9859  2.1189  2.6842
10147TIP3    H251933  -0.001   3.312   2.179 -1.9461  3.4914 -0.1664
10148TIP3   OH251934   5.162   2.045  16.233  0.3105  0.2511 -0.4693
10148TIP3    H151935   5.202   2.022  16.317 -1.2252 -1.0322 -0.0421
10148TIP3    H251936   5.234   2.039  16.170  1.1266 -0.4149  0.4846
10149TIP3   OH251937   4.576   6.450   3.487 -0.1002  0.1540 -0.3862
10149TIP3    H151938   4.557   6.369   3.440 -0.8097  0.3577 -0.4558
10149TIP3    H251939   4.669   6.466   3.470 -0.1107 -0.3016 -0.8970
10150TIP3   OH251940   6.757   0.646  11.851 -0.3070 -0.5249 -0.6720
10150TIP3    H151941   6.770   0.624  11.943 -1.6412 -1.2075 -0.6233
10150TIP3    H251942   6.662   0.646  11.839 -0.2266  1.1571 -1.6752
10151TIP3   OH251943   3.456   6.632   3.879 -0.0614 -0.1181 -0.6270
10151TIP3    H151944   3.471   6.624   3.784  1.4317  0.0673 -0.4284
10151TIP3    H251945   3.532   6.588   3.918 -0.3902  0.2908  0.4835
10152TIP3   OH251946   0.831   2.708   3.345  0.4731 -0.2457 -0.0628
10152TIP3    H151947   0.888   2.645   3.389  1.1810 -0.8142 -1.7069
10152TIP3    H251948   0.851   2.698   3.252 -2.8137 -0.9923 -0.8326
10153TIP3   OH251949   4.495   3.997   6.123 -0.9505 -0.0885  0.3626
10153TIP3    H151950   4.555   3.950   6.181 -1.7816 -1.1985  0.3560
10153TIP3    H251951   4.544   4.008   6.041 -0.0736  0.7465  0.9772
10154TIP3   OH251952   3.880   1.211  13.219 -0.4437 -0.1630  0.2784
10154TIP3    H151953   3.941   1.180  13.285 -1.6306 -3.0091  0.1716
10154TIP3    H251954   3.926   1.202  13.136 -0.3952 -0.5743  0.3518
10155TIP3   OH251955   1.686   5.837  12.887  0.1321 -0.2406 -0.0310
10155TIP3    H151956   1.660   5.924  12.858  0.0083 -0.2310  0.1085
10155TIP3    H251957   1.645   5.778  12.825 -1.0740 -0.2823  0.7779
10156TIP3   OH251958   1.588   5.883   4.061 -0.5123 -0.8807  0.2309
10156TIP3    H151959   1.541   5.964   4.041  0.5511 -0.3687 -0.2898
10156TIP3    H251960   1.629   5.900   4.146 -0.4212 -0.9244  0.1959
10157TIP3   OH251961   6.667   4.069   6.077 -1.1614  0.3430 -0.0078
10157TIP3    H151962   6.607   4.006   6.117 -1.0495  0.5049  0.4175
10157TIP3    H251963   6.691   4.128   6.148 -0.0639 -0.0376 -0.0411
10158TIP3   OH251964   6.092   5.836  11.112  0.0771  0.2788  0.6341
10158TIP3    H151965   6.139   5.774  11.056  2.6659  1.7556  0.9929
10158TIP3    H251966   6.155   5.858  11.181 -0.1040  4.3430 -0.2807
10159TIP3   OH251967   3.046   2.340   0.705 -0.7892 -0.3622 -0.1212
10159TIP3    H151968   3.122   2.283   0.695  1.3632  2.1073  0.9448
10159TIP3    H251969   3.046   2.395   0.626 -1.0469  0.1021  0.1951
10160TIP3   OH251970   5.728   6.075   0.998  0.0509 -0.3238 -0.1246
10160TIP3    H151971   5.660   6.009   0.986  0.0070 -0.6037  1.4584
10160TIP3    H251972   5.805   6.025   1.027 -0.2438  0.3588  1.9936
10161TIP3   OH251973   3.284   0.891  12.012  0.1833  0.1065  0.4786
10161TIP3    H151974   3.372   0.860  11.992  1.0253  1.7111  1.4537
10161TIP3    H251975   3.285   0.905  12.107 -0.6533  1.4764  0.3104
10162TIP3   OH251976   1.261   4.688  15.161  0.3304  0.0433  0.1669
10162TIP3    H151977   1.233   4.780  15.164 -0.0467 -0.0987  1.4755
10162TIP3    H251978   1.234   4.658  15.074 -1.4326  0.6038  0.4692
10163TIP3   OH251979   3.676   1.957   4.691  0.3428  0.3212 -0.3340
10163TIP3    H151980   3.649   1.941   4.600  0.1774  2.2434 -0.6692
10163TIP3    H251981   3.600   1.998   4.732  0.4590 -0.4219  0.6600
10164TIP3   OH251982   1.068   5.867   0.937  0.3580 -0.0484  0.1753
10164TIP3    H151983   1.083   5.773   0.953 -1.8755 -0.7516 -1.2916
10164TIP3    H251984   1.111   5.883   0.853  1.8255  0.5957  1.0274
10165TIP3   OH251985   4.977   5.193   3.170 -0.2057  0.3729  0.3293
10165TIP3    H151986   4.890   5.225   3.195  0.9199  2.0847  2.4514
10165TIP3    H251987   5.017   5.167   3.253  1.0415 -1.1908 -0.7066
10166TIP3   OH251988   2.250   1.183   2.514 -0.0710  0.4884 -0.5617
10166TIP3    H151989   2.279   1.259   2.464  1.0680 -0.2104 -1.0196
10166TIP3    H251990   2.326   1.160   2.568 -1.2982  1.2890  1.6370
10167TIP3   OH251991   3.453   1.707   3.878  0.5305  0.0698 -0.0194
10167TIP3    H151992   3.471   1.706   3.972  0.3918 -0.7841  0.0026
10167TIP3    H251993   3.429   1.617   3.857  0.2854  0.3160 -0.8231
10168TIP3   OH251994   5.290   2.408  16.072  0.0701 -0.6937 -0.1926
10168TIP3    H151995   5.230   2.475  16.041 -2.0943 -1.3512  2.1587
10168TIP3    H251996   5.370   2.420  16.021 -0.5389  3.0201 -0.5173
10169TIP3   OH251997   3.971   3.937  14.927  0.4274 -0.1576 -0.3519
10169TIP3    H151998   3.998   3.849  14.956 -0.8534 -1.4064 -2.6326
10169TIP3    H251999   3.935   3.978  15.006 -0.8866 -2.4959  0.3557
10170TIP3   OH252000   1.094   3.753  15.276  0.8336  0.0475 -0.1553
10170TIP3    H152001   1.001   3.742  15.296  1.2300  1.1408  2.7998
10170TIP3    H252002   1.095   3.795  15.190 -1.3534 -0.5907 -0.5583
10171TIP3   OH252003   1.698   0.477   1.616  0.2430 -0.3720 -0.2451
10171TIP3    H152004   1.665   0.388   1.633  0.1629 -0.8145 -2.4278
10171TIP3    H252005   1.695   0.520   1.701 -1.2261 -1.9728  0.5798
10172TIP3   OH252006   5.506   5.590  12.283 -0.2193  0.1311  0.5332
10172TIP3    H152007   5.586   5.636  12.311 -0.1304 -0.4997  1.3808
10172TIP3    H252008   5.532   5.497  12.282 -0.7502 -0.0132  0.1280
10173TIP3   OH252009   5.700   3.918   2.109 -0.2541 -0.2003 -0.3825
10173TIP3    H152010   5.795   3.903   2.117 -0.4199 -0.9985  0.2137
10173TIP3    H252011   5.664   3.888   2.192 -0.8012  2.4374  0.4172
10174TIP3   OH252012   2.785   3.983   2.254 -0.3873 -0.6796 -0.0106
10174TIP3    H152013   2.726   4.056   2.236 -0.3469 -0.5579  0.3382
10174TIP3    H252014   2.868   4.008   2.213  0.4048  0.6585  2.2641
10175TIP3   OH252015   5.897   5.277   3.752  0.4797  0.0781 -0.3414
10175TIP3    H152016   5.911   5.340   3.822  0.7792 -1.4159  1.0169
10175TIP3    H252017   5.905   5.327   3.671 -1.9135  2.3052  0.6701
10176TIP3   OH252018   4.765   1.680  17.281 -0.5403  0.1371 -0.0602
10176TIP3    H152019   4.819   1.691  17.359  0.3504 -0.1590 -0.6161
10176TIP3    H252020   4.714   1.760  17.276  0.6488  0.9183 -0.1093
10177TIP3   OH252021   5.531   5.003  12.475 -0.4756  1.0133 -0.1608
10177TIP3    H152022   5.580   4.980  12.396 -0.3470 -0.4636  0.3166
10177TIP3    H252023   5.447   5.036  12.442 -0.7012 -0.2480 -0.9251
10178TIP3   OH252024   1.766   3.891  13.946 -0.1904  0.3519  0.1257
10178TIP3    H152025   1.741   3.982  13.963  0.9054  0.2247  2.8862
10178TIP3    H252026   1.816   3.896  13.864 -0.6390  2.1277 -0.0911
10179TIP3   OH252027   6.648   2.370   0.374 -0.2047 -0.4491 -0.2677
10179TIP3    H152028   6.697   2.378   0.456  1.0189  1.7646 -1.1540
10179TIP3    H252029   6.568   2.422   0.389  0.0337 -0.0181 -0.4749
10180TIP3   OH252030   1.641   3.059   5.627 -0.4507  0.0795 -0.0067
10180TIP3    H152031   1.592   3.031   5.704 -0.1882 -1.7189 -0.4510
10180TIP3    H252032   1.606   3.006   5.555  0.2779  0.7124 -0.8524
10181TIP3   OH252033   6.520   3.681   4.719  0.0119 -0.5939 -0.6011
10181TIP3    H152034   6.601   3.731   4.725 -0.4442  0.1791 -0.5850
10181TIP3    H252035   6.528   3.612   4.785  0.4033 -0.1523 -0.1811
10182TIP3   OH252036   0.921   0.093  16.266  0.0044 -0.5328 -0.5534
10182TIP3    H152037   0.910   0.094  16.171  1.2540  0.5115 -0.7108
10182TIP3    H252038   0.939   0.184  16.290 -0.4205 -0.7543  0.7072
10183TIP3   OH252039   0.381   1.295   0.118  0.3621 -0.1438 -0.0758
10183TIP3    H152040   0.456   1.327   0.069  0.5551 -1.4600 -0.6874
10183TIP3    H252041   0.316   1.271   0.052 -1.3437  2.5237  0.4628
10184TIP3   OH252042   6.220   2.464   1.331 -0.6432  0.5696 -0.0458
10184TIP3    H152043   6.289   2.410   1.371  0.1623  0.2195 -1.7988
10184TIP3    H252044   6.164   2.401   1.286  0.1137  1.1249 -1.8300
10185TIP3   OH252045   2.537   6.063   5.333  0.1403 -0.0080 -1.1849
10185TIP3    H152046   2.618   6.085   5.378 -0.1669 -0.9426 -0.1062
10185TIP3    H252047   2.475   6.042   5.403 -1.2615  1.3646 -1.9446
10186TIP3   OH252048   4.786   5.572   1.610  0.0991 -0.2967  0.0059
10186TIP3    H152049   4.793   5.647   1.550 -0.2148 -1.7767 -1.9747
10186TIP3    H252050   4.696   5.543   1.602  0.0096 -0.4726  1.3439
10187TIP3   OH252051   4.463   6.331  11.545  0.3708 -0.0609 -0.4693
10187TIP3    H152052   4.389   6.391  11.530  1.0448  0.6256 -1.1552
10187TIP3    H252053   4.422   6.246  11.558 -0.4827 -0.1988 -3.3539
10188TIP3   OH252054   3.793   0.790   1.561  0.1123 -0.0580  1.0206
10188TIP3    H152055   3.770   0.757   1.475  1.8683 -0.6812  0.7364
10188TIP3    H252056   3.822   0.880   1.546 -0.6561  0.2158  1.1466
10189TIP3   OH252057   0.664   2.371  13.350 -0.3449 -0.4943 -0.5442
10189TIP3    H152058   0.747   2.346  13.391  0.0106  0.4031 -0.6926
10189TIP3    H252059   0.601   2.375  13.423  0.0413  0.0782 -0.2384
10190TIP3   OH252060   5.656   0.130   1.451 -0.2133 -0.8244  0.0524
10190TIP3    H152061   5.597   0.097   1.519  0.2828 -1.0174  0.3938
10190TIP3    H252062   5.600   0.142   1.375 -1.1270  0.9439  0.9391
10191TIP3   OH252063   6.251   3.544  12.257  0.0926 -0.3887 -0.0947
10191TIP3    H152064   6.290   3.618  12.303 -1.2256  1.7086 -2.1333
10191TIP3    H252065   6.320   3.513  12.198 -0.0996  0.9032 -1.0383
10192TIP3   OH252066   6.698   2.305   5.392  0.0050 -0.4211 -0.6821
10192TIP3    H152067   6.784   2.295   5.353 -0.1001  2.0618 -1.7181
10192TIP3    H252068   6.694   2.397   5.419 -0.9652 -1.3236  2.7838
10193TIP3   OH252069   5.926   3.818  12.114 -0.4845  0.3191  0.1026
10193TIP3    H152070   5.949   3.803  12.023 -1.1192  1.0427 -0.1931
10193TIP3    H252071   5.850   3.877  12.110 -0.4561  0.4431  1.0958
10194TIP3   OH252072   5.309   4.903   4.065 -0.4193 -0.3003  0.1793
10194TIP3    H152073   5.260   4.832   4.025 -0.5989 -1.1739  1.8356
10194TIP3    H252074   5.258   4.926   4.143  0.5217  0.4729  0.5881
10195TIP3   OH252075   6.568   0.067   4.252 -0.1927 -0.5376 -0.7631
10195TIP3    H152076   6.586   0.161   4.257 -1.0142 -0.4039 -0.0347
10195TIP3    H252077   6.654   0.026   4.255  0.1415  0.1695 -0.3996
10196TIP3   OH252078   5.944   0.677   1.578 -0.3229 -0.0185  0.0491
10196TIP3    H152079   5.913   0.761   1.613  0.9950  0.0804  1.0795
10196TIP3    H252080   5.923   0.680   1.485  0.8743  2.0619 -0.2257
10197TIP3   OH252081   2.904   4.745  14.897  0.4478 -0.2428  0.3667
10197TIP3    H152082   2.934   4.820  14.948 -2.9106 -0.3555  2.9072
10197TIP3    H252083   2.937   4.668  14.945  0.0717 -0.3491  0.4631
10198TIP3   OH252084   5.239   6.724  12.022  0.1475 -0.3674  0.3718
10198TIP3    H152085   5.204   6.800  12.069  0.8426 -0.6579  1.3807
10198TIP3    H252086   5.190   6.649  12.057  2.1112 -0.8665  2.2682
10199TIP3   OH252087   2.691   6.769   0.483 -0.2788  0.4302  0.8405
10199TIP3    H152088   2.691   6.794   0.390 -1.7972  1.2446  1.0279
10199TIP3    H252089   2.623   6.702   0.490  0.7163 -0.5717  1.1576
10200TIP3   OH252090   5.902   2.824  15.434  0.2517 -0.0698 -0.2867
10200TIP3    H152091   5.819   2.838  15.389  0.7600  0.2085 -1.1731
10200TIP3    H252092   5.951   2.765  15.377  0.6235 -0.3143  0.2742
10201TIP3   OH252093   1.293   5.417  16.995  0.1464 -0.2401  0.0033
10201TIP3    H152094   1.234   5.477  16.950 -0.3901 -0.4822  0.3687
10201TIP3    H252095   1.310   5.348  16.932  0.2653 -0.0267 -0.2016
10202TIP3   OH252096   0.660   6.352   4.978 -0.6802 -0.0703  0.4520
10202TIP3    H152097   0.573   6.312   4.972 -0.5677 -0.2252 -0.1761
10202TIP3    H252098   0.678   6.384   4.890 -1.0411  1.9746  1.0833
10203TIP3   OH252099   5.767   4.369   4.844  0.1044  0.2598  0.0049
10203TIP3    H152100   5.784   4.355   4.751  0.1253  0.8557 -0.0840
10203TIP3    H252101   5.672   4.361   4.853  0.2606 -1.8814  0.3014
10204TIP3   OH252102   0.747   4.369  11.491  0.4150  0.3587  0.3777
10204TIP3    H152103   0.656   4.363  11.521  0.4825 -0.3515  0.4521
10204TIP3    H252104   0.785   4.284  11.512  0.9904  0.5144 -0.0102
10205TIP3   OH252105   3.442   1.205  14.324  0.2733 -0.4401 -0.3946
10205TIP3    H152106   3.463   1.273  14.260 -0.1771  0.8882  0.8212
10205TIP3    H252107   3.347   1.193  14.316  0.2328 -0.3516 -0.0468
10206TIP3   OH252108   6.003   4.145   2.099 -0.2304  0.4220  0.1984
10206TIP3    H152109   5.982   4.149   2.192 -1.0924 -1.1419  0.1065
10206TIP3    H252110   6.095   4.117   2.096 -0.7701 -1.5140  0.6024
10207TIP3   OH252111   4.502   3.965   4.427  0.0888  0.6948  0.0605
10207TIP3    H152112   4.480   3.875   4.403 -1.2185  1.4236 -1.7050
10207TIP3    H252113   4.497   3.967   4.522  0.8435 -1.2566  0.1754
10208TIP3   OH252114   2.394   1.882  13.932  0.0106  0.4128  0.3984
10208TIP3    H152115   2.343   1.866  14.011 -1.5787 -0.4608 -0.7534
10208TIP3    H252116   2.395   1.978  13.923 -1.1744  0.4635  0.6311
10209TIP3   OH252117   6.504   5.062   0.203 -0.1242 -0.2807  0.0168
10209TIP3    H152118   6.557   5.038   0.278 -0.1555 -1.6769 -0.3731
10209TIP3    H252119   6.567   5.084   0.134 -0.0959  1.7945  0.6557
10210TIP3   OH252120   0.008   6.545  14.857  0.6772  0.0721  0.0591
10210TIP3    H152121   0.004   6.479  14.787  0.9984 -0.9643  0.9914
10210TIP3    H252122  -0.048   6.616  14.826  1.1253 -0.1846 -1.4306
10211TIP3   OH252123   1.259   4.721  13.291  0.1936  0.3877  0.3702
10211TIP3    H152124   1.317   4.753  13.221  1.0434  0.5600  1.1271
10211TIP3    H252125   1.220   4.642  13.255  0.9451  0.2361 -0.1548
10212TIP3   OH252126   1.003   4.334  12.784  0.7653  0.0925 -0.4803
10212TIP3    H152127   1.068   4.337  12.714  1.3816 -0.3360  0.0614
10212TIP3    H252128   1.042   4.277  12.850 -0.1840 -0.2158 -0.1679
10213TIP3   OH252129   4.639   4.524  16.379 -0.0066  0.1158  0.4908
10213TIP3    H152130   4.686   4.445  16.353 -2.9346 -1.7630  0.4563
10213TIP3    H252131   4.597   4.500  16.462 -0.2749  1.9396  0.9095
10214TIP3   OH252132   6.563   4.184   0.570  0.6461  0.3727  0.2496
10214TIP3    H152133   6.517   4.205   0.651  0.4825  0.8264  0.0448
10214TIP3    H252134   6.558   4.089   0.562 -1.0794  0.4732 -0.2501
10215TIP3   OH252135   5.151   3.373   0.997 -0.0899  0.3563  0.1717
10215TIP3    H152136   5.150   3.384   0.902  0.4691 -0.1858  0.0939
10215TIP3    H252137   5.242   3.390   1.022  0.0591 -0.7563  0.4402
10216TIP3   OH252138   0.696   2.139   1.527 -0.2034  0.2575 -0.5188
10216TIP3    H152139   0.621   2.192   1.502 -0.7230 -1.2936 -2.4895
10216TIP3    H252140   0.672   2.101   1.612 -0.7281  1.4229 -0.1331
10217TIP3   OH252141   2.730   5.380  12.345 -0.3955  0.0780  0.4413
10217TIP3    H152142   2.698   5.304  12.297 -1.2911 -0.9830  2.5483
10217TIP3    H252143   2.650   5.419  12.382  0.1031  1.7675 -0.1906
10218TIP3   OH252144   5.926   5.462   3.534  0.0590  0.1397  0.2826
10218TIP3    H152145   5.958   5.504   3.454 -0.6476  2.0206  0.9536
10218TIP3    H252146   5.864   5.524   3.571 -1.7207 -1.8840  0.8801
10219TIP3   OH252147   4.427   1.258   1.415 -0.0848 -0.5977  0.3306
10219TIP3    H152148   4.506   1.205   1.423  0.9583  0.8655 -0.0516
10219TIP3    H252149   4.429   1.316   1.491 -0.8250 -0.5657  0.3373
10220TIP3   OH252150   4.059   3.301  12.810 -0.2395 -0.1087 -0.3012
10220TIP3    H152151   3.991   3.360  12.843 -0.8092 -1.5067  1.1934
10220TIP3    H252152   4.072   3.238  12.881  2.2995 -0.1884 -0.7362
10221TIP3   OH252153   0.360   4.661  13.784 -0.5699 -0.3235  0.9189
10221TIP3    H152154   0.373   4.634  13.693  0.3858  1.6523  0.3889
10221TIP3    H252155   0.418   4.605  13.834 -0.6017 -0.9891  0.2387
10222TIP3   OH252156   6.695   2.822   5.836  0.6874 -0.2083  0.5447
10222TIP3    H152157   6.755   2.815   5.762 -2.9527  0.5669 -2.7528
10222TIP3    H252158   6.668   2.732   5.854  0.5131 -0.2727 -0.0368
10223TIP3   OH252159   3.922   5.582   2.600  0.1074 -0.5416 -0.8604
10223TIP3    H152160   3.880   5.654   2.553  1.3165 -0.2892 -1.6025
10223TIP3    H252161   3.907   5.505   2.545 -1.5187 -0.9832  0.1211
10224TIP3   OH252162   5.120   2.603  14.936 -0.1315  0.3933  0.1585
10224TIP3    H152163   5.136   2.583  14.844  2.0363 -0.0525  0.5806
10224TIP3    H252164   5.167   2.535  14.984  0.1351  1.5449  1.5917
10225TIP3   OH252165   4.023   5.612   5.085  0.2756  0.6947  1.3560
10225TIP3    H152166   3.973   5.614   5.166  0.4313 -0.5647  1.5065
10225TIP3    H252167   4.115   5.610   5.112  0.3407  0.7380  1.1443
10226TIP3   OH252168   5.938   6.526   5.031  0.0902  0.0291  0.4315
10226TIP3    H152169   5.966   6.445   5.073 -1.8020 -0.1436  1.4613
10226TIP3    H252170   6.004   6.591   5.055  0.4904 -0.7179  1.3734
10227TIP3   OH252171   2.080   2.070  15.775  0.2964  0.0444  0.5190
10227TIP3    H152172   2.004   2.015  15.794 -0.1804  0.3381 -0.4604
10227TIP3    H252173   2.153   2.009  15.771  0.2971 -0.1288  2.3951
10228TIP3   OH252174   2.692   2.661  14.261 -0.2623  0.6435 -0.1315
10228TIP3    H152175   2.784   2.638  14.249 -0.7610 -0.6310 -1.8637
10228TIP3    H252176   2.677   2.735  14.202 -0.3179  0.9611  0.2760
10229TIP3   OH252177   2.069   1.442  14.067  0.0467 -0.1524  0.0213
10229TIP3    H152178   2.072   1.382  14.142  0.5647  0.3449  0.4113
10229TIP3    H252179   1.985   1.425  14.025 -0.5601  0.0439  1.1279
10230TIP3   OH252180   3.937   3.042   5.686  0.5037 -0.3881 -0.3331
10230TIP3    H152181   3.928   3.134   5.709  0.1874 -1.1464  3.2870
10230TIP3    H252182   4.031   3.029   5.675  0.6078  0.2295 -0.1765
10231TIP3   OH252183   6.238   0.809   3.435  0.2690 -0.0194  0.5040
10231TIP3    H152184   6.235   0.729   3.487 -0.4222  0.1329  0.7063
10231TIP3    H252185   6.229   0.780   3.344 -0.8180 -0.1206  0.6303
10232TIP3   OH252186   3.520   3.909  15.073  0.0318  0.3324 -0.5952
10232TIP3    H152187   3.526   3.829  15.022 -1.0890  0.4320 -0.9103
10232TIP3    H252188   3.495   3.880  15.161 -1.6867  0.3838 -1.0211
10233TIP3   OH252189   0.513   1.756  12.482 -0.0131 -0.3964  0.0106
10233TIP3    H152190   0.420   1.733  12.489  0.1691 -0.7060  1.6444
10233TIP3    H252191   0.532   1.748  12.388 -1.3977 -1.2821 -0.2198
10234TIP3   OH252192   6.511   6.325  14.908 -0.4920  0.1426 -0.3906
10234TIP3    H152193   6.491   6.252  14.849  0.9107 -0.2295 -0.4382
10234TIP3    H252194   6.599   6.307  14.939  0.7456  2.8648 -1.9717
10235TIP3   OH252195   5.522   1.814  17.327  0.4944  1.1341 -0.0333
10235TIP3    H152196   5.593   1.855  17.376  1.3793 -0.4356  0.0645
10235TIP3    H252197   5.566   1.752  17.268 -0.8191 -1.1564  1.2352
10236TIP3   OH252198   2.750   1.057  15.706 -0.0018 -0.0204  0.4950
10236TIP3    H152199   2.767   0.982  15.762  0.5695  1.3099  2.1809
10236TIP3    H252200   2.829   1.111  15.713 -1.0931  1.6188  0.7990
10237TIP3   OH252201   5.531   5.627   0.891 -0.2416 -0.5238 -0.0843
10237TIP3    H152202   5.566   5.676   0.816 -0.2364 -0.0032  0.2525
10237TIP3    H252203   5.601   5.630   0.956 -0.9894  0.7519  0.6952
10238TIP3   OH252204   0.429   6.317  14.904 -0.5496 -0.0994 -0.5970
10238TIP3    H152205   0.505   6.354  14.948 -0.3907  0.6353 -1.4718
10238TIP3    H252206   0.355   6.368  14.938 -0.6912 -0.9025  0.3552
10239TIP3   OH252207   2.536   6.429   1.432 -0.2303 -0.6241  0.4940
10239TIP3    H152208   2.460   6.388   1.473 -0.8156 -1.2863 -1.1664
10239TIP3    H252209   2.500   6.501   1.380  0.5465  0.5450  1.5002
10240TIP3   OH252210   4.313   0.112  15.497  0.1137 -0.4229  0.1327
10240TIP3    H152211   4.318   0.149  15.585  2.6794 -0.5949  0.1488
10240TIP3    H252212   4.268   0.028  15.509  0.8339 -0.6639  1.3852
10241TIP3   OH252213   3.929   2.827   4.965 -0.7089  0.1031 -0.2165
10241TIP3    H152214   3.902   2.918   4.975 -1.6270  0.1360 -2.5223
10241TIP3    H252215   3.850   2.781   4.938  0.1857 -0.9931 -1.0527
10242TIP3   OH252216   4.371   3.080  12.456  0.6173  0.0789 -0.2333
10242TIP3    H152217   4.301   3.107  12.396 -0.1367  1.8750  1.3568
10242TIP3    H252218   4.347   3.120  12.539  2.5326 -0.9300  0.8547
10243TIP3   OH252219   0.154   6.654   3.181  0.2874  0.6300 -0.3647
10243TIP3    H152220   0.089   6.589   3.157  0.1311  0.3487  0.7417
10243TIP3    H252221   0.185   6.690   3.098 -0.2282 -0.2588 -0.9523
10244TIP3   OH252222   6.378   2.555  16.841 -0.0867  0.5120 -0.2565
10244TIP3    H152223   6.287   2.564  16.869 -0.7010 -1.5398 -1.4097
10244TIP3    H252224   6.386   2.465  16.811  2.5065  0.4413  0.3405
10245TIP3   OH252225   2.702   2.469  17.066 -0.2892  0.2222 -0.2271
10245TIP3    H152226   2.725   2.481  17.159  1.4904  0.9256 -0.7085
10245TIP3    H252227   2.783   2.436  17.027 -1.5046 -1.6813 -1.2507
10246TIP3   OH252228   6.329   0.764   4.507 -0.5434  0.2851  0.4158
10246TIP3    H152229   6.399   0.810   4.554  0.1794 -1.1511  0.8017
10246TIP3    H252230   6.258   0.759   4.570 -0.3607  0.2286  0.6197
10247TIP3   OH252231   3.634   5.191   0.021 -0.4123 -0.0919  0.1071
10247TIP3    H152232   3.606   5.149   0.102 -0.1552 -0.4635  0.0087
10247TIP3    H252233   3.726   5.212   0.034 -0.3936 -0.0711 -0.0513
10248TIP3   OH252234   5.845   5.841   6.741 -0.4793  0.1083  0.6889
10248TIP3    H152235   5.755   5.843   6.773 -0.2310 -0.5635  1.4775
10248TIP3    H252236   5.896   5.884   6.810 -0.1279 -0.0174  0.5111
10249TIP3   OH252237   0.521   4.757   0.782  0.1895 -0.2968 -0.1808
10249TIP3    H152238   0.466   4.734   0.707  0.1260 -1.7502  0.2889
10249TIP3    H252239   0.498   4.848   0.802 -2.1541 -0.9000  0.0828
10250TIP3   OH252240   0.299   6.721   3.422 -0.2439  0.0929 -0.5092
10250TIP3    H152241   0.250   6.793   3.461 -2.5849 -1.5535 -0.2302
10250TIP3    H252242   0.252   6.700   3.341  0.8083 -0.6723 -0.9509
10251TIP3   OH252243   2.913   1.271   6.356 -0.4458  0.7432 -0.1413
10251TIP3    H152244   2.994   1.298   6.399 -0.5475  0.0486  0.5017
10251TIP3    H252245   2.848   1.337   6.382 -0.5288  0.2768  0.8571
10252TIP3   OH252246   4.907   0.445  15.141 -0.5284  0.1058  0.2027
10252TIP3    H152247   4.900   0.522  15.198 -0.6859  0.6415 -0.5296
10252TIP3    H252248   4.870   0.474  15.058  0.9982 -0.2199 -0.6178
10253TIP3   OH252249   6.194   4.930   3.973  0.4707 -0.0543 -0.3020
10253TIP3    H152250   6.237   4.970   3.898 -0.3999 -3.2381 -2.7283
10253TIP3    H252251   6.103   4.919   3.946 -0.0153 -0.7434  1.4638
10254TIP3   OH252252   1.481   4.919  17.058  0.4148 -0.0160 -0.2719
10254TIP3    H152253   1.420   4.851  17.087 -0.9713  2.1482  2.3414
10254TIP3    H252254   1.437   5.001  17.079  1.9148  1.7893 -3.4465
10255TIP3   OH252255   3.427   2.775   3.510  0.6900 -0.0309  0.0709
10255TIP3    H152256   3.475   2.855   3.528  0.3232  0.1617  0.2213
10255TIP3    H252257   3.462   2.711   3.572  0.3461  0.2705  0.5821
10256TIP3   OH252258   3.402   5.658  13.508 -0.0608 -0.6141  0.1140
10256TIP3    H152259   3.492   5.656  13.540  0.1324  0.2220 -0.3528
10256TIP3    H252260   3.372   5.747  13.527 -1.3389 -1.3349  1.7227
10257TIP3   OH252261   6.773   2.466   0.607  0.7075 -0.3287 -0.2114
10257TIP3    H152262   6.793   2.558   0.628  0.4718 -0.1607 -0.6926
10257TIP3    H252263   6.683   2.454   0.635  0.9792 -0.6387  0.5466
10258TIP3   OH252264   0.543   2.889  15.131  0.0051 -0.5658  0.4302
10258TIP3    H152265   0.487   2.937  15.192 -0.3255 -0.4580  0.0420
10258TIP3    H252266   0.632   2.916  15.155 -0.2218  1.4827 -0.7812
10259TIP3   OH252267   0.370   4.431  14.285  0.7013  0.0852 -0.3510
10259TIP3    H152268   0.400   4.448  14.375  0.4836  1.0216 -0.4447
10259TIP3    H252269   0.293   4.376  14.296  1.8314 -1.4931 -0.0624
10260TIP3   OH252270   0.856   0.445   5.082 -0.3445 -0.6289 -0.3147
10260TIP3    H152271   0.875   0.443   5.175  3.2311  0.7063 -0.8420
10260TIP3    H252272   0.917   0.382   5.044  0.0140  0.5925 -1.9096
10261TIP3   OH252273   0.509   5.747   2.473 -0.7264  0.5238  0.2679
10261TIP3    H152274   0.513   5.736   2.378 -1.2866  1.6909  0.0822
10261TIP3    H252275   0.561   5.675   2.508 -1.7298 -0.8015 -0.8525
10262TIP3   OH252276   3.521   2.648  12.338 -0.3714 -0.0847 -0.2215
10262TIP3    H152277   3.547   2.648  12.246 -0.9939  0.6619 -0.4063
10262TIP3    H252278   3.569   2.574  12.376 -1.1004 -1.2316 -1.4261
10263TIP3   OH252279   1.689   4.164   2.176 -0.6549  0.0834  1.0520
10263TIP3    H152280   1.733   4.181   2.093  0.0771  0.5087  1.5246
10263TIP3    H252281   1.645   4.246   2.198 -1.7482 -0.3508  0.5601
10264TIP3   OH252282   2.379   0.001   1.658 -0.6500  0.5873 -0.1647
10264TIP3    H152283   2.403  -0.024   1.569  0.6153 -0.7558  0.5250
10264TIP3    H252284   2.435   0.076   1.678 -1.1320  1.0704 -0.5660
10265TIP3   OH252285   4.636   5.746   3.993 -0.0609 -0.5964  0.0541
10265TIP3    H152286   4.717   5.714   3.953 -0.3497  0.2884 -1.3040
10265TIP3    H252287   4.656   5.753   4.086  0.8014 -2.2419  0.0344
10266TIP3   OH252288   6.435   0.057  13.422  0.7751 -0.3847  0.3962
10266TIP3    H152289   6.528   0.081  13.427  0.4053  0.9081  1.8483
10266TIP3    H252290   6.396   0.099  13.499 -0.7662 -2.0584  0.5790
10267TIP3   OH252291   0.372   3.220   4.191  0.6340  0.3470 -0.3255
10267TIP3    H152292   0.451   3.222   4.245 -0.1293 -1.8507  1.0128
10267TIP3    H252293   0.400   3.257   4.107  2.5402  1.4738  0.7156
10268TIP3   OH252294   2.847   1.071  12.073  0.2223 -0.8518  0.3326
10268TIP3    H152295   2.795   1.121  12.010  1.2375 -2.1049 -1.5974
10268TIP3    H252296   2.784   1.043  12.139 -0.3318  3.2610  1.8383
10269TIP3   OH252297   4.133   6.767   2.139  0.3152  0.1401  0.3377
10269TIP3    H152298   4.105   6.748   2.049 -0.9684 -1.4685  1.0219
10269TIP3    H252299   4.180   6.850   2.133  0.8274 -0.2528 -1.9278
10270TIP3   OH252300   0.652   4.290  17.133 -0.2496 -0.1681  0.1609
10270TIP3    H152301   0.573   4.295  17.080 -1.0527 -0.8025  1.2580
10270TIP3    H252302   0.642   4.362  17.197 -1.2762 -1.8559  2.0076
10271TIP3   OH252303   5.950   5.247   2.672  0.1055  0.0612  0.0758
10271TIP3    H152304   5.889   5.237   2.745  0.8589  1.0283  0.8764
10271TIP3    H252305   5.992   5.162   2.663  1.0180  0.2934  1.7409
10272TIP3   OH252306   2.734   4.559  14.740  0.1339  0.2839 -0.3418
10272TIP3    H152307   2.759   4.508  14.816  3.0301  0.0291 -1.3307
10272TIP3    H252308   2.721   4.648  14.773 -0.0542 -0.1117  0.6581
10273TIP3   OH252309   1.299   2.938   4.198  0.3402 -0.7500  0.4502
10273TIP3    H152310   1.316   2.951   4.292  1.8402  0.2230  0.0697
10273TIP3    H252311   1.365   2.875   4.170 -0.4736 -1.4953  0.1330
10274TIP3   OH252312   0.648   5.193  12.888 -0.1606 -0.5544  0.0466
10274TIP3    H152313   0.681   5.220  12.802 -2.3650 -0.4412 -0.8416
10274TIP3    H252314   0.560   5.160  12.870  0.0355 -2.3555  2.0184
10275TIP3   OH252315   0.904   2.135  13.447 -0.4300  0.5106  0.1142
10275TIP3    H152316   0.865   2.135  13.534  2.1864  0.4432  1.3993
10275TIP3    H252317   0.898   2.043  13.418 -3.2756  0.8989 -0.8489
10276TIP3   OH252318   5.999   0.808  12.201 -0.7286  0.6821 -0.4704
10276TIP3    H152319   5.970   0.836  12.288  0.5448  1.1321 -0.1670
10276TIP3    H252320   6.003   0.712  12.207  1.1326  0.7668  0.6178
10277TIP3   OH252321   1.535   0.300   5.875 -0.4588  0.0612  0.1171
10277TIP3    H152322   1.604   0.271   5.934  0.3586  0.3018 -0.6928
10277TIP3    H252323   1.517   0.390   5.900 -0.7818 -0.1273  0.5905
10278TIP3   OH252324   2.971   3.202  13.360  0.3767  0.5813  0.1848
10278TIP3    H152325   2.910   3.262  13.317  1.7403  1.1547 -1.0783
10278TIP3    H252326   2.975   3.126  13.303 -1.5530 -0.9523  1.9228
10279TIP3   OH252327   1.493   5.510   1.031  0.8397  0.3227 -0.2992
10279TIP3    H152328   1.466   5.542   0.946  1.3315  2.7469  0.3837
10279TIP3    H252329   1.416   5.464   1.066  0.0600  0.8441 -1.3033
10280TIP3   OH252330   5.580   1.224   1.904 -0.0411 -0.7478 -0.6466
10280TIP3    H152331   5.531   1.295   1.862  0.3607  0.1164  0.2921
10280TIP3    H252332   5.513   1.171   1.947 -0.5850 -2.2557 -3.1218
10281TIP3   OH252333   3.415   6.049   3.284 -0.2396 -0.3408 -0.2643
10281TIP3    H152334   3.498   6.024   3.242  0.1805 -0.4810  0.6328
10281TIP3    H252335   3.369   5.966   3.298 -0.2908 -0.3130 -0.2683
10282TIP3   OH252336   4.442   2.391   2.705  0.6689  0.2875 -0.1562
10282TIP3    H152337   4.391   2.422   2.631  1.7312 -0.8911 -1.4436
10282TIP3    H252338   4.457   2.469   2.758 -1.5122  0.8478 -0.2798
10283TIP3   OH252339   4.537   1.030   3.368  0.1409  0.4189 -0.8464
10283TIP3    H152340   4.545   1.120   3.401  1.3677  0.9402 -2.4265
10283TIP3    H252341   4.584   0.977   3.432 -0.5982  0.8903  0.1070
10284TIP3   OH252342   5.492   4.074  12.153 -0.5760 -0.2577  0.5437
10284TIP3    H152343   5.454   4.111  12.233 -1.2898 -0.2832  0.2263
10284TIP3    H252344   5.424   4.016  12.119  0.0331 -0.8674  0.3407
10285TIP3   OH252345   3.308   4.096   2.180  0.3124 -0.4160 -0.2131
10285TIP3    H152346   3.376   4.073   2.116  0.0008 -0.1628 -0.6415
10285TIP3    H252347   3.234   4.039   2.157  0.2938 -0.5234  0.1035
10286TIP3   OH252348   2.567   4.985   6.535 -0.1638 -0.5991  0.3539
10286TIP3    H152349   2.499   4.940   6.486  0.7235 -0.1078 -1.4127
10286TIP3    H252350   2.648   4.965   6.488  0.3751  2.0683 -0.0298
10287TIP3   OH252351   4.761   2.408   2.242  0.4298 -0.5813 -0.3537
10287TIP3    H152352   4.669   2.436   2.239  0.2998 -0.8075  1.1311
10287TIP3    H252353   4.764   2.342   2.310  1.4358 -1.6609 -1.4053
10288TIP3   OH252354   1.276   0.750  12.528  0.4922 -0.1703  0.4764
10288TIP3    H152355   1.277   0.775  12.620  0.4600  1.4633  0.0654
10288TIP3    H252356   1.295   0.831  12.481 -1.9099 -0.4004 -1.0659
10289TIP3   OH252357   0.992   5.509   3.318 -0.1753 -0.5270 -0.0302
10289TIP3    H152358   0.936   5.455   3.373  0.7022 -1.9537 -0.4634
10289TIP3    H252359   1.032   5.447   3.257  2.4091  0.2775  0.7176
10290TIP3   OH252360   0.682   3.435   6.627  0.2313 -0.4317  0.1676
10290TIP3    H152361   0.716   3.347   6.644 -1.2181 -1.3995 -1.6156
10290TIP3    H252362   0.590   3.430   6.652  0.1746  0.6498  0.2083
10291TIP3   OH252363   4.771   2.926  16.952  0.3793  0.1855 -0.3863
10291TIP3    H152364   4.856   2.935  16.996  0.2201  0.7400 -0.1812
10291TIP3    H252365   4.733   3.014  16.957  0.9209  0.6354 -2.7722
10292TIP3   OH252366   4.113   0.178  13.082  0.5289 -0.0341 -0.4787
10292TIP3    H152367   4.129   0.271  13.071  0.1242 -0.1348 -2.2777
10292TIP3    H252368   4.053   0.172  13.156  1.1126  1.0636  0.0975
10293TIP3   OH252369   3.497   0.230   2.733  0.1293 -0.4645 -0.3351
10293TIP3    H152370   3.512   0.222   2.639  0.5773  0.1308 -0.3229
10293TIP3    H252371   3.420   0.175   2.750 -1.0393  0.7957 -1.3350
10294TIP3   OH252372   3.557   6.521  11.966 -0.0703  0.0638 -0.0862
10294TIP3    H152373   3.527   6.445  11.917  0.4496 -1.3425  1.6548
10294TIP3    H252374   3.649   6.504  11.984 -0.2146  0.5562  1.2665
10295TIP3   OH252375   0.871   4.450  17.378 -0.2312 -0.4775 -0.2179
10295TIP3    H152376   0.864   4.541  17.350  0.2585 -0.7609 -1.3523
10295TIP3    H252377   0.889   4.454  17.471 -2.0955  0.5377  0.1532
10296TIP3   OH252378   0.818   5.340   2.522  0.3459 -0.1921  0.5205
10296TIP3    H152379   0.792   5.305   2.607  0.3860 -2.0013 -0.1805
10296TIP3    H252380   0.836   5.263   2.468  1.6225  0.9298 -0.7370
10297TIP3   OH252381   2.761   0.621   2.990 -0.1549 -0.1742  0.2211
10297TIP3    H152382   2.746   0.527   2.981 -0.5596 -0.0086 -1.0348
10297TIP3    H252383   2.761   0.654   2.900 -1.3996  1.2368  0.7001
10298TIP3   OH252384   1.482   6.383   2.351 -0.4087  0.0985 -0.3630
10298TIP3    H152385   1.476   6.446   2.422  0.7156  0.0098 -0.1723
10298TIP3    H252386   1.570   6.346   2.358 -0.4283 -0.2306 -1.5292
10299TIP3   OH252387   3.032   0.695   2.144  0.5302  0.0138 -0.6342
10299TIP3    H152388   3.015   0.607   2.177  2.3553 -0.2277 -0.1856
10299TIP3    H252389   2.953   0.720   2.097 -1.0942 -0.7592  1.5577
10300TIP3   OH252390   4.577   0.869   5.022  0.0022 -0.5612  0.5224
10300TIP3    H152391   4.522   0.905   4.953 -1.1305 -1.5916  0.8563
10300TIP3    H252392   4.667   0.890   4.995 -0.4036 -1.0263 -1.3033
10301TIP3   OH252393   3.829   4.006   3.919 -0.1346 -0.0940 -0.0621
10301TIP3    H152394   3.892   4.070   3.885 -0.9102 -0.2533 -1.9371
10301TIP3    H252395   3.882   3.931   3.946  0.5542  0.1005 -0.8434
10302TIP3   OH252396   0.407   6.802  13.753 -0.0922  0.4940 -0.4005
10302TIP3    H152397   0.457   6.778  13.831 -0.2529 -0.4481 -0.5650
10302TIP3    H252398   0.432   6.736  13.688  0.8697  1.8983 -1.5146
10303TIP3   OH252399   5.299   0.341   0.129  0.6214  0.3427  0.0178
10303TIP3    H152400   5.312   0.312   0.039 -1.6760  0.3615 -0.3813
10303TIP3    H252401   5.352   0.420   0.137  0.4146  0.6597 -1.4954
10304TIP3   OH252402   4.258   3.552   6.297  0.4675  0.6262  0.0117
10304TIP3    H152403   4.170   3.516   6.306 -0.2787  1.8929 -1.6756
10304TIP3    H252404   4.299   3.536   6.383 -2.1425  1.9411  1.6434
10305TIP3   OH252405   1.635   1.981   6.458 -0.3444 -0.4064  0.6666
10305TIP3    H152406   1.563   2.002   6.518 -1.2747 -1.7821  0.1039
10305TIP3    H252407   1.713   1.979   6.513 -0.9769 -0.3341  1.5817
10306TIP3   OH252408   6.147   3.662  16.162 -0.0306 -0.2141  0.3005
10306TIP3    H152409   6.055   3.673  16.138  0.1902 -0.4880 -0.7386
10306TIP3    H252410   6.195   3.680  16.081  0.8644  0.4187  0.9563
10307TIP3   OH252411   2.522   1.812   4.830  0.2081 -0.1308 -0.3908
10307TIP3    H152412   2.590   1.850   4.775 -1.2999  1.3725 -1.3224
10307TIP3    H252413   2.452   1.788   4.768 -2.3831  3.3610  0.8379
10308TIP3   OH252414   6.699   2.115  15.344  0.7993  0.4756  0.1649
10308TIP3    H152415   6.702   2.208  15.324 -0.8557  0.5784  0.3239
10308TIP3    H252416   6.710   2.072  15.258  0.2158  0.8428 -0.1000
10309TIP3   OH252417   1.741   6.794   6.056  0.3201 -0.2529 -0.0823
10309TIP3    H152418   1.650   6.776   6.035 -0.0102  2.5663 -1.5052
10309TIP3    H252419   1.754   6.886   6.033  3.9949 -0.9586 -1.6250
10310TIP3   OH252420   5.785   3.921   3.527 -0.1574  0.3573 -0.6396
10310TIP3    H152421   5.726   3.870   3.582 -0.7214  0.2519 -1.3361
10310TIP3    H252422   5.728   3.978   3.476  0.3674  0.5506 -1.0224
10311TIP3   OH252423   1.655   4.628   4.558 -0.1150 -0.0963  0.2329
10311TIP3    H152424   1.734   4.607   4.507  1.3325  1.2649  1.7758
10311TIP3    H252425   1.631   4.716   4.530 -0.7609 -0.2911  0.1704
10312TIP3   OH252426   3.586   5.795   2.703  0.0859  0.3968  0.2203
10312TIP3    H152427   3.623   5.856   2.639  0.2808  0.4477  0.3792
10312TIP3    H252428   3.501   5.833   2.726  0.3296  0.7626  0.5305
10313TIP3   OH252429   6.091   1.640   1.181  1.1450  0.1218  0.0541
10313TIP3    H152430   6.088   1.544   1.179 -1.1888  0.1068  1.0667
10313TIP3    H252431   6.020   1.668   1.124  1.8605  1.2770 -0.3091
10314TIP3   OH252432   6.078   2.159  15.256 -0.5657  0.1598  0.2844
10314TIP3    H152433   6.062   2.095  15.325 -1.5747 -2.3200 -2.0514
10314TIP3    H252434   6.056   2.243  15.295 -1.7610 -1.1937  2.7446
10315TIP3   OH252435   5.847   1.885   2.207 -0.1560 -0.0421 -0.7865
10315TIP3    H152436   5.901   1.963   2.192  0.4022 -0.2297  0.1576
10315TIP3    H252437   5.902   1.828   2.261 -0.9518 -0.6400 -0.5932
10316TIP3   OH252438   2.051   0.549  10.922  0.2983  0.1396 -0.3748
10316TIP3    H152439   2.016   0.463  10.945 -1.9630  0.9920 -0.4004
10316TIP3    H252440   2.095   0.536  10.838  2.1202 -1.4482  0.7499
10317TIP3   OH252441   5.251   5.648  14.572  0.2989  0.4092  0.7390
10317TIP3    H152442   5.208   5.728  14.542  0.4053 -0.3169 -1.5236
10317TIP3    H252443   5.180   5.595  14.609 -0.0629  0.8094  0.6312
10318TIP3   OH252444   0.740   3.864   6.666  0.3237 -0.6072 -0.2886
10318TIP3    H152445   0.710   3.811   6.591  1.7936 -0.6131 -0.9065
10318TIP3    H252446   0.676   3.934   6.672 -0.6621 -1.4498 -0.5960
10319TIP3   OH252447   3.024   2.908   6.621 -0.0333  0.3406 -0.0670
10319TIP3    H152448   3.003   2.985   6.673  0.1082 -0.3414  1.0292
10319TIP3    H252449   3.104   2.873   6.660 -0.9859 -1.2848  0.5521
10320TIP3   OH252450   4.411   6.038   5.610  0.2259  0.2625  0.1611
10320TIP3    H152451   4.468   6.103   5.651 -1.5761  0.7268  2.0782
10320TIP3    H252452   4.385   6.078   5.527  1.1185  0.8795  0.1683
10321TIP3   OH252453   3.685   3.727  14.658 -0.1300  0.2694  0.2282
10321TIP3    H152454   3.754   3.682  14.708 -1.1055 -0.9043  0.5664
10321TIP3    H252455   3.631   3.657  14.623 -0.7877  1.1544 -0.5762
10322TIP3   OH252456   3.352   0.219  14.215 -0.3413  0.5678  0.1889
10322TIP3    H152457   3.330   0.148  14.155  0.3831 -0.5114  1.1515
10322TIP3    H252458   3.268   0.246  14.251 -0.5618 -0.3655  0.4135
10323TIP3   OH252459   2.428   0.010   2.403 -0.4642  0.1377 -0.3905
10323TIP3    H152460   2.498  -0.023   2.347 -1.8140 -1.3871 -1.2952
10323TIP3    H252461   2.401  -0.066   2.455 -1.1961  0.7867  0.2141
10324TIP3   OH252462   4.147   2.006  12.430 -0.0469 -0.2145  0.2911
10324TIP3    H152463   4.108   2.023  12.344  0.3206 -2.6024 -0.4173
10324TIP3    H252464   4.088   1.942  12.471  0.4145  0.0112  1.3396
10325TIP3   OH252465   0.774   1.512   1.897 -0.2048 -0.1504 -0.0005
10325TIP3    H152466   0.721   1.438   1.926 -0.6481  0.8063  1.7978
10325TIP3    H252467   0.746   1.584   1.953  1.7262  0.8271 -0.2211
10326TIP3   OH252468   3.093   5.425  11.898  0.2174 -0.1362  0.5026
10326TIP3    H152469   3.178   5.383  11.904  0.6959  0.8303  0.6768
10326TIP3    H252470   3.111   5.518  11.908 -0.6208  0.2915 -1.4124
10327TIP3   OH252471   0.671   6.613  13.652 -0.3408 -0.0876 -0.2643
10327TIP3    H152472   0.583   6.576  13.640 -1.4849  1.8704  1.3342
10327TIP3    H252473   0.729   6.554  13.604 -2.4959 -1.5711 -1.2098
10328TIP3   OH252474   3.623   1.692  15.253 -0.2488 -0.0454  0.6446
10328TIP3    H152475   3.684   1.740  15.308 -0.7471  1.2438  0.1205
10328TIP3    H252476   3.537   1.705  15.295 -0.3542 -0.7526  0.6649
10329TIP3   OH252477   0.348   2.873  15.737 -0.1921 -0.4746  0.1910
10329TIP3    H152478   0.372   2.910  15.822 -1.1203  0.4659  0.0672
10329TIP3    H252479   0.334   2.780  15.754  2.1753 -0.8413  0.5136
10330TIP3   OH252480   3.668   1.138  13.706  0.2007  0.0028 -0.1164
10330TIP3    H152481   3.646   1.127  13.799  0.0955 -1.2919 -0.2717
10330TIP3    H252482   3.595   1.187  13.669  0.1311  0.3250  0.4376
10331TIP3   OH252483   4.443   2.813   3.293 -0.5242  0.6328  0.6209
10331TIP3    H152484   4.446   2.874   3.368 -0.6509 -0.2154  1.3286
10331TIP3    H252485   4.351   2.792   3.283 -0.6398  1.5897 -0.4918
10332TIP3   OH252486   2.831   3.877  15.847 -0.0476 -0.3198  0.3448
10332TIP3    H152487   2.746   3.834  15.852 -0.2750  0.1242  0.3288
10332TIP3    H252488   2.890   3.820  15.896 -0.0339 -1.3931 -0.8558
10333TIP3   OH252489   0.012   2.831   2.460 -0.3971 -0.1854  0.5661
10333TIP3    H152490   0.028   2.807   2.368  0.7437 -0.9108  0.9330
10333TIP3    H252491  -0.046   2.762   2.493 -0.8010  0.0712  0.4007
10334TIP3   OH252492   3.367   0.092  12.362  0.0448 -0.4760 -0.1075
10334TIP3    H152493   3.398   0.183  12.352  0.3557 -0.8101 -3.0148
10334TIP3    H252494   3.446   0.039  12.351 -0.6694 -1.1729 -2.2161
10335TIP3   OH252495   0.372   6.503   4.605  0.0647 -0.3213  0.2827
10335TIP3    H152496   0.427   6.473   4.533 -0.5803 -0.4430 -0.1669
10335TIP3    H252497   0.344   6.422   4.649 -0.8770 -0.3582 -0.3384
10336TIP3   OH252498   5.826   2.616  14.303 -0.2790 -0.3275  0.8407
10336TIP3    H152499   5.914   2.645  14.277 -0.1324 -2.4905 -1.4802
10336TIP3    H252500   5.842   2.557  14.377  0.1216 -0.0647  0.9694
10337TIP3   OH252501   4.816   0.357  17.152  0.2652  0.8395  0.4236
10337TIP3    H152502   4.731   0.350  17.109  0.3727  1.3076  0.1254
10337TIP3    H252503   4.831   0.270  17.190  0.5387  0.1481 -1.1810
10338TIP3   OH252504   0.559   6.108  11.099 -0.4943  0.5500 -0.8361
10338TIP3    H152505   0.606   6.037  11.054 -1.0170 -0.0522 -0.4556
10338TIP3    H252506   0.547   6.175  11.032  0.8339  0.6925 -0.9567
10339TIP3   OH252507   6.078   5.100   3.372 -0.0719  0.0930  0.1509
10339TIP3    H152508   6.122   5.052   3.442 -0.6024 -0.8885 -0.1691
10339TIP3    H252509   6.110   5.190   3.380  1.1739 -0.3718  0.5851
10340TIP3   OH252510   1.087   5.686  14.569  0.0854  0.0918 -0.3101
10340TIP3    H152511   1.017   5.750  14.565  0.6183  0.6623 -0.7099
10340TIP3    H252512   1.086   5.643  14.484  2.8616  3.0041 -2.0401
10341TIP3   OH252513   2.567   3.304   6.333 -0.7528 -0.5407  0.3514
10341TIP3    H152514   2.507   3.231   6.343 -1.4185 -0.0353  0.1316
10341TIP3    H252515   2.568   3.347   6.419 -1.2475 -0.1464  0.1650
10342TIP3   OH252516   4.159   1.251   5.483  0.0963 -0.0639  0.2278
10342TIP3    H152517   4.094   1.192   5.523  0.7478  0.4697  2.2296
10342TIP3    H252518   4.236   1.197   5.470  0.2360  0.0048  0.7460
10343TIP3   OH252519   2.390   5.756   5.496  0.4341 -0.1345  0.2105
10343TIP3    H152520   2.368   5.832   5.551  0.5525  0.3809 -0.4441
10343TIP3    H252521   2.469   5.720   5.537  0.0361 -0.2724  0.8768
10344TIP3   OH252522   6.412   3.273  12.357  0.2984  0.0541 -0.0794
10344TIP3    H152523   6.417   3.177  12.359  0.8513  0.0872  0.4103
10344TIP3    H252524   6.346   3.292  12.291 -0.3813 -0.6859  0.3719
10345TIP3   OH252525   5.023   1.914   1.927  0.7177 -0.2028 -0.2500
10345TIP3    H152526   4.951   1.872   1.974 -1.3070  1.4465 -1.6500
10345TIP3    H252527   5.100   1.899   1.981 -0.2449 -3.6799  0.4173
10346TIP3   OH252528   6.789   2.591  16.998 -0.0172  0.2264 -0.5265
10346TIP3    H152529   6.746   2.529  17.057  0.9825 -0.2738 -0.3167
10346TIP3    H252530   6.739   2.585  16.917 -0.3751 -0.3169 -0.2705
10347TIP3   OH252531   4.341   1.893  14.935 -0.5583  0.3634 -0.0706
10347TIP3    H152532   4.249   1.870  14.933 -0.3115 -0.9189  1.4190
10347TIP3    H252533   4.372   1.861  15.020  0.9134  2.1354  0.1222
10348TIP3   OH252534   4.479   0.123   4.003 -0.6437 -0.7127  0.1840
10348TIP3    H152535   4.419   0.191   4.034 -0.6389 -0.2955 -0.6680
10348TIP3    H252536   4.430   0.041   4.013 -1.6548 -0.3132 -1.1258
10349TIP3   OH252537   6.084   5.352  13.949  0.0520  0.0157 -0.3665
10349TIP3    H152538   6.067   5.258  13.954 -0.1914  0.0908  0.2811
10349TIP3    H252539   6.152   5.368  14.013 -0.8343  0.4876  0.4829
10350TIP3   OH252540   5.655   3.969  13.835  0.3860  0.0307  0.4090
10350TIP3    H152541   5.750   3.963  13.846  0.4024  0.4069  0.4780
10350TIP3    H252542   5.621   3.963  13.924  0.3162 -0.5578  0.3495
10351TIP3   OH252543   1.015   0.917   4.303 -0.4842 -0.0587  0.4529
10351TIP3    H152544   0.929   0.878   4.319 -1.8825  2.5241 -0.1078
10351TIP3    H252545   1.042   0.951   4.389 -1.1090  1.0625  0.2238
10352TIP3   OH252546   4.594   0.578  15.236  0.2676 -0.5851  0.1097
10352TIP3    H152547   4.512   0.531  15.251  0.5288 -0.9815  0.3122
10352TIP3    H252548   4.651   0.515  15.192  0.6805 -0.5209  0.5435
10353TIP3   OH252549   1.935   1.967   4.700  0.3980  0.4019 -0.1313
10353TIP3    H152550   1.945   2.055   4.664  1.5440  0.1689 -0.4059
10353TIP3    H252551   1.883   1.920   4.635  0.3851  0.6765 -0.3205
10354TIP3   OH252552   0.913   2.726   6.582 -0.4587  0.2405 -0.2744
10354TIP3    H152553   1.007   2.713   6.591 -0.4872 -1.4505 -1.7601
10354TIP3    H252554   0.901   2.761   6.493 -1.3077 -1.3757 -0.8457
10355TIP3   OH252555   0.786   6.057  12.382 -0.3135  0.1070  0.2086
10355TIP3    H152556   0.800   5.983  12.323  3.4128 -0.0252  0.9992
10355TIP3    H252557   0.693   6.052  12.405 -1.1724 -1.7363 -3.0387
10356TIP3   OH252558   2.825   0.620  11.131  0.0945  0.3411 -0.0753
10356TIP3    H152559   2.736   0.584  11.127  0.3573 -0.2273 -1.5584
10356TIP3    H252560   2.866   0.574  11.204 -0.2344 -0.8705 -0.6222
10357TIP3   OH252561   2.651   3.326   2.288  0.7552  0.3486 -0.0314
10357TIP3    H152562   2.709   3.402   2.291  0.6378  0.4226  0.3911
10357TIP3    H252563   2.608   3.325   2.374  1.6858 -0.9107  0.4518
10358TIP3   OH252564   3.497   3.300  14.980 -0.7196 -0.1345 -0.0143
10358TIP3    H152565   3.520   3.326  15.070 -1.1826  0.0335  0.0559
10358TIP3    H252566   3.550   3.357  14.925 -0.0489 -0.5851  0.1514
10359TIP3   OH252567   5.759   3.256  12.721  0.7872  0.3907 -0.1677
10359TIP3    H152568   5.769   3.220  12.633  2.9550  0.1391  0.1151
10359TIP3    H252569   5.840   3.306  12.735 -0.3899  2.0728  0.9516
10360TIP3   OH252570   4.375   6.292   0.802 -0.6384 -0.0253 -0.0584
10360TIP3    H152571   4.457   6.272   0.849  0.0409  0.8233 -0.8573
10360TIP3    H252572   4.326   6.210   0.805  0.9727 -1.0843 -1.0298
10361TIP3   OH252573   2.178   2.750  15.450  0.0756 -0.1022 -0.0745
10361TIP3    H152574   2.108   2.684  15.443  0.7011 -0.7324 -0.4855
10361TIP3    H252575   2.160   2.794  15.534  0.3307 -1.6073  0.8142
10362TIP3   OH252576   4.989   2.279  16.996 -0.7200 -0.0272 -0.2160
10362TIP3    H152577   5.036   2.260  16.914 -0.8306  0.6676 -0.4429
10362TIP3    H252578   4.909   2.322  16.968 -1.3197 -0.8453  0.1966
10363TIP3   OH252579   4.183   6.692  15.602  0.1125  0.1567 -0.0610
10363TIP3    H152580   4.189   6.699  15.697  2.6384 -0.7065 -0.0762
10363TIP3    H252581   4.206   6.601  15.584 -1.9646 -0.1569 -1.4453
10364TIP3   OH252582   6.466   6.512   3.845  0.0943 -0.1630  1.1802
10364TIP3    H152583   6.445   6.479   3.932 -1.9010 -1.9442  0.1045
10364TIP3    H252584   6.397   6.576   3.827 -0.9334 -1.5518  0.0142
10365TIP3   OH252585   4.177   3.613  17.112  0.4123 -0.1227  0.3197
10365TIP3    H152586   4.241   3.568  17.057  0.1469  1.9536 -1.8323
10365TIP3    H252587   4.135   3.542  17.161  1.8368 -1.9173 -0.8895
10366TIP3   OH252588   3.154   0.437  11.607 -0.6483  0.3528 -0.6616
10366TIP3    H152589   3.084   0.475  11.553  0.3537  1.2647 -1.3820
10366TIP3    H252590   3.202   0.513  11.639 -1.2697 -0.1634  1.6655
10367TIP3   OH252591   2.074   2.018   4.011  0.2979  0.5177 -0.1767
10367TIP3    H152592   2.164   2.022   3.977  0.4744  0.6559  0.2998
10367TIP3    H252593   2.084   2.027   4.106 -0.2263  0.5954 -0.1266
10368TIP3   OH252594   6.589   0.812   2.577 -0.3353 -0.0996  0.2889
10368TIP3    H152595   6.613   0.722   2.557  0.6317  0.2646 -0.2945
10368TIP3    H252596   6.649   0.865   2.524  0.1406  0.8897  1.7422
10369TIP3   OH252597   1.210   5.097   5.822 -0.4057  0.5120  0.2859
10369TIP3    H152598   1.223   5.190   5.836 -2.8047  0.6657  2.0695
10369TIP3    H252599   1.205   5.060   5.910  1.1459 -1.4584 -0.3701
10370TIP3   OH252600   5.536   4.287  17.188  0.5218 -0.1535 -0.3017
10370TIP3    H152601   5.448   4.260  17.161  1.2641 -3.1825  0.0405
10370TIP3    H252602   5.560   4.356  17.126 -1.7273  0.1308 -0.9320
10371TIP3   OH252603   4.418   1.180   2.288 -0.0722 -0.4967  0.0060
10371TIP3    H152604   4.391   1.089   2.305 -0.2006 -0.2165  1.3891
10371TIP3    H252605   4.398   1.227   2.369 -3.0933  1.5397 -1.7403
10372TIP3   OH252606   5.265   3.256   0.013  0.1175  0.2227  0.3299
10372TIP3    H152607   5.357   3.270  -0.010  0.0327  0.9728  0.4214
10372TIP3    H252608   5.268   3.218   0.101  0.3607 -0.4484  0.0350
10373TIP3   OH252609   2.671   6.037   0.797 -0.3089  0.2182  0.3045
10373TIP3    H152610   2.627   6.122   0.809  0.2072  0.7619 -1.3850
10373TIP3    H252611   2.764   6.059   0.794 -0.0267 -0.6584  1.6307
10374TIP3   OH252612   5.676   1.905   0.594 -0.2038 -0.0268  0.2970
10374TIP3    H152613   5.713   1.877   0.678  1.3155  1.5214  0.1943
10374TIP3    H252614   5.605   1.842   0.577  0.4631 -1.3115  1.9656
10375TIP3   OH252615   4.161   2.241  12.583  0.1921 -0.0644  0.4248
10375TIP3    H152616   4.159   2.159  12.533  0.8033 -0.9341  1.7537
10375TIP3    H252617   4.097   2.297  12.541 -0.1010 -1.1635 -0.6427
10376TIP3   OH252618   5.745   5.217   2.862 -0.1190 -0.3322  0.2583
10376TIP3    H152619   5.743   5.132   2.906 -0.9903 -0.3832  0.1292
10376TIP3    H252620   5.662   5.222   2.816  0.4966  0.0209 -0.8383
10377TIP3   OH252621   0.700   1.048  15.480  0.1176  0.6494 -0.0006
10377TIP3    H152622   0.611   1.079  15.495 -0.5534 -1.3961  0.5700
10377TIP3    H252623   0.689   0.963  15.438  1.6874 -0.6391  1.9654
10378TIP3   OH252624   2.068   1.067   2.344  0.1029 -0.1939  0.5795
10378TIP3    H152625   2.135   1.082   2.411 -1.5862  1.1347  2.0382
10378TIP3    H252626   1.985   1.077   2.389 -1.1685 -2.5167 -1.0165
10379TIP3   OH252627   0.443   6.333  14.403  0.0651  0.2441  0.1047
10379TIP3    H152628   0.531   6.300  14.421  0.1783  0.0139 -0.8502
10379TIP3    H252629   0.385   6.269  14.446  0.3368 -0.1158 -0.0615
10380TIP3   OH252630   0.166   3.393  13.796  0.1604  0.3849 -0.4757
10380TIP3    H152631   0.228   3.341  13.746 -0.7380 -0.6205 -0.5670
10380TIP3    H252632   0.089   3.399  13.740 -0.1405  0.9092 -0.0145
10381TIP3   OH252633   2.397   5.421   1.335  0.4811 -0.2227 -0.1684
10381TIP3    H152634   2.428   5.510   1.348 -0.1972 -0.0107  0.0473
10381TIP3    H252635   2.476   5.367   1.341  0.9899  0.4118 -0.9439
10382TIP3   OH252636   3.973   5.414   3.211  0.0866 -0.0951  0.0046
10382TIP3    H152637   4.049   5.461   3.246 -0.8654  0.3958  1.5454
10382TIP3    H252638   3.976   5.329   3.253 -0.1514 -0.1124 -0.0138
10383TIP3   OH252639   4.994   0.211   3.507  0.6769  0.0266  0.3451
10383TIP3    H152640   4.980   0.262   3.587  2.1360 -0.5858  1.0162
10383TIP3    H252641   4.945   0.130   3.521  1.0671 -0.1505  0.6940
10384TIP3   OH252642   3.931   2.896  17.155  0.2542 -0.3539 -0.1748
10384TIP3    H152643   3.960   2.888  17.064  0.2147 -0.0469 -0.2143
10384TIP3    H252644   4.011   2.890  17.206  0.7650  2.7794 -0.3836
10385TIP3   OH252645   6.707   5.343   3.148 -0.4110 -0.0212 -0.1398
10385TIP3    H152646   6.622   5.300   3.143 -0.8674  0.8151  0.1121
10385TIP3    H252647   6.706   5.387   3.233  0.2747 -0.0082 -0.1357
10386TIP3   OH252648   1.841   2.181  17.089  0.0339  0.2910 -0.0163
10386TIP3    H152649   1.834   2.273  17.066 -0.8122 -0.2810 -2.3960
10386TIP3    H252650   1.775   2.168  17.157 -0.2751  1.3318 -0.1024
10387TIP3   OH252651   4.002   4.506   1.686  0.2131 -0.0983 -0.1338
10387TIP3    H152652   4.014   4.411   1.680 -1.7211 -0.4074  0.1549
10387TIP3    H252653   3.964   4.531   1.602 -0.0281  0.2864  0.0861
10388TIP3   OH252654   5.393   0.603   5.397  0.2146 -0.3145  0.5951
10388TIP3    H152655   5.453   0.639   5.331  0.8089 -0.6262  0.9581
10388TIP3    H252656   5.387   0.510   5.376  0.5021 -0.4397  1.0439
10389TIP3   OH252657   6.700   6.720  12.986 -0.4248  0.2603  0.1169
10389TIP3    H152658   6.653   6.796  13.020  0.8273  0.5845  1.2017
10389TIP3    H252659   6.748   6.754  12.910 -0.1740  0.4863  0.3695
10390TIP3   OH252660   2.339   0.015  13.717  0.4671 -0.4217  0.1542
10390TIP3    H152661   2.273  -0.043  13.755  1.1195 -1.2684  0.0170
10390TIP3    H252662   2.296   0.100  13.712 -0.1380 -0.6340  1.3752
10391TIP3   OH252663   6.419   5.007  15.499  0.8497 -0.1939 -0.5647
10391TIP3    H152664   6.329   5.027  15.525  1.2873  2.2235 -0.6053
10391TIP3    H252665   6.410   4.941  15.431 -0.7997 -0.9432  0.3160
10392TIP3   OH252666   1.155   2.031  11.174 -0.0836 -0.5731 -0.2015
10392TIP3    H152667   1.070   2.067  11.195 -0.2779 -1.0219 -0.2003
10392TIP3    H252668   1.139   1.970  11.102  0.1372 -1.0999  0.1872
10393TIP3   OH252669   0.935   3.665   1.586  0.2279 -0.6250  0.4035
10393TIP3    H152670   0.918   3.697   1.674  1.6114 -1.6355  1.0735
10393TIP3    H252671   0.861   3.608   1.566 -0.9372  0.8854  0.2135
10394TIP3   OH252672   5.001   1.024  11.588  0.1144  0.6000  0.9984
10394TIP3    H152673   4.921   1.020  11.641  0.3538  1.1070  1.4128
10394TIP3    H252674   4.984   1.091  11.522  0.2665  0.8586  1.2177
10395TIP3   OH252675   3.852   4.648  15.291 -0.2004  0.0781  0.2634
10395TIP3    H152676   3.866   4.709  15.364 -1.0188  1.1679 -0.4514
10395TIP3    H252677   3.870   4.562  15.328 -0.1031  0.6519  1.6188
10396TIP3   OH252678   5.775   5.113   1.514  0.8536  0.0882  0.4000
10396TIP3    H152679   5.795   5.050   1.584 -1.0647 -0.0303  0.8874
10396TIP3    H252680   5.731   5.185   1.559 -2.6391 -1.0631 -0.8769
10397TIP3   OH252681   0.142   0.875  12.550  0.0500  0.0852  0.0113
10397TIP3    H152682   0.186   0.838  12.627 -0.9587  0.9758  1.0646
10397TIP3    H252683   0.196   0.950  12.525 -0.4393  0.7458  0.8607
10398TIP3   OH252684   3.681   0.734   2.200 -0.1148  0.4896  0.2299
10398TIP3    H152685   3.714   0.688   2.122 -2.7376 -1.4820  0.1633
10398TIP3    H252686   3.648   0.817   2.166 -1.8460 -0.6174 -1.0000
10399TIP3   OH252687   6.195   5.939  12.983 -0.3002 -0.2631  0.8751
10399TIP3    H152688   6.150   5.869  12.937  0.7190 -0.9763  0.9221
10399TIP3    H252689   6.213   5.904  13.070 -1.5969  0.8250  1.6286
10400TIP3   OH252690   3.152   0.993   3.851 -0.4931  0.0842 -0.7174
10400TIP3    H152691   3.220   1.060   3.846  0.5057 -0.0485  4.7011
10400TIP3    H252692   3.070   1.042   3.856 -0.1159  0.7148 -0.5459
10401TIP3   OH252693   4.084   2.962  11.258  0.3926 -0.3004  0.9114
10401TIP3    H152694   4.024   2.897  11.294 -1.4579  0.3140 -0.8577
10401TIP3    H252695   4.073   2.956  11.164  2.5790  0.4080  0.5527
10402TIP3   OH252696   0.896   3.156  12.871  0.0969 -0.2944  0.1080
10402TIP3    H152697   0.946   3.078  12.893  0.7470 -0.0903 -0.5799
10402TIP3    H252698   0.895   3.157  12.775  0.4284  0.7423  0.1050
10403TIP3   OH252699   4.607   0.478   5.011 -0.4624 -0.3027 -0.5511
10403TIP3    H152700   4.527   0.446   5.054  0.3667 -1.6777  0.0495
10403TIP3    H252701   4.625   0.562   5.052  0.3684 -1.6222  1.9795
10404TIP3   OH252702   5.672   1.325   3.460 -0.5640  0.0813  0.3760
10404TIP3    H152703   5.664   1.309   3.554  1.4580  2.4310  1.0762
10404TIP3    H252704   5.582   1.330   3.429 -1.2993 -0.3224  2.2635
10405TIP3   OH252705   3.710   2.486  15.505 -0.4264 -0.8959  0.7406
10405TIP3    H152706   3.772   2.421  15.539  2.1388  0.9788 -0.0158
10405TIP3    H252707   3.681   2.534  15.582  2.4443  0.8969  0.8567
10406TIP3   OH252708   5.031   6.552   2.193 -0.2833 -0.1380  0.4644
10406TIP3    H152709   5.003   6.569   2.283 -0.7349 -0.4598  0.3920
10406TIP3    H252710   4.984   6.618   2.142 -0.2413 -0.1302  0.4362
10407TIP3   OH252711   0.848   3.806   0.534 -0.0312  0.0605  0.4212
10407TIP3    H152712   0.818   3.730   0.584 -2.6804  1.0770  0.5292
10407TIP3    H252713   0.816   3.882   0.583  0.2031  1.1877 -1.0748
10408TIP3   OH252714   0.770   1.394  15.623  0.1319 -0.0034  0.0063
10408TIP3    H152715   0.746   1.484  15.599  1.0895  0.2905  0.1222
10408TIP3    H252716   0.686   1.348  15.628 -0.2315  0.0306 -3.3578
10409TIP3   OH252717   0.124   2.555  15.138 -0.0673 -0.5643  0.1717
10409TIP3    H152718   0.069   2.633  15.133  2.1531  1.0225 -0.8246
10409TIP3    H252719   0.180   2.570  15.215  1.8297 -0.0887 -1.2254
10410TIP3   OH252720   4.563   4.864  17.033 -0.2597  0.1362 -0.0834
10410TIP3    H152721   4.578   4.848  17.126 -2.6113  2.2418  0.7639
10410TIP3    H252722   4.504   4.793  17.006  0.2575 -0.3615  0.0818
10411TIP3   OH252723   4.169   5.824   5.578 -0.1569  0.2679 -0.3992
10411TIP3    H152724   4.256   5.783   5.582 -0.5202 -0.4370  0.8187
10411TIP3    H252725   4.171   5.890   5.648 -0.2358  1.0119 -1.0883
10412TIP3   OH252726   2.867   1.357  16.403  0.4916  0.3881  0.0259
10412TIP3    H152727   2.843   1.271  16.371 -0.9106  0.8804 -0.3182
10412TIP3    H252728   2.941   1.384  16.348  0.6609 -0.4134 -0.1425
10413TIP3   OH252729   3.523   2.687   3.100  0.6800 -0.2001  0.4039
10413TIP3    H152730   3.506   2.717   3.011 -0.4897 -0.1743  0.6186
10413TIP3    H252731   3.544   2.594   3.090  1.4806  0.0128  0.0227
10414TIP3   OH252732   4.831   4.200   3.426 -0.2787  0.5445 -0.1906
10414TIP3    H152733   4.743   4.183   3.391 -0.3568  0.8947 -0.1689
10414TIP3    H252734   4.871   4.260   3.363 -0.4913  1.3333  0.4055
10415TIP3   OH252735   6.737   6.338  14.033  0.5270  0.1061  0.0076
10415TIP3    H152736   6.754   6.431  14.048 -2.2167  0.7374 -0.4169
10415TIP3    H252737   6.724   6.302  14.121  0.1773  0.4272  0.0870
10416TIP3   OH252738   3.057   5.033   4.598 -0.0320  0.3547  0.2066
10416TIP3    H152739   3.059   4.938   4.607 -0.4939  0.3890  0.7722
10416TIP3    H252740   3.117   5.064   4.666  1.4393  0.4208 -1.0775
10417TIP3   OH252741   5.315   4.196  16.404 -0.3472 -0.1089  0.1639
10417TIP3    H152742   5.366   4.221  16.481 -0.4304  2.9078 -0.6533
10417TIP3    H252743   5.355   4.115  16.374  0.6303 -0.5700  2.4980
10418TIP3   OH252744   2.580   4.370  16.949  0.2664 -0.0149  0.7773
10418TIP3    H152745   2.644   4.440  16.962 -0.3344  0.7222 -0.1147
10418TIP3    H252746   2.497   4.415  16.938  0.1314 -0.7389 -1.6710
10419TIP3   OH252747   6.535   6.004   3.266 -0.8077 -0.4092  0.3247
10419TIP3    H152748   6.625   5.973   3.255 -0.4618  0.5702  0.3120
10419TIP3    H252749   6.541   6.068   3.337 -1.3954  0.0579 -0.0418
10420TIP3   OH252750   1.421   0.952   3.002  0.1627  0.8737  0.4098
10420TIP3    H152751   1.374   0.930   2.921  0.4295  0.0939  0.4586
10420TIP3    H252752   1.463   1.036   2.983 -0.4295  1.0913  0.0181
10421TIP3   OH252753   4.848   0.712   3.049  0.0161  0.0473 -0.1491
10421TIP3    H152754   4.813   0.773   3.114  2.9213 -0.5358  2.2012
10421TIP3    H252755   4.854   0.763   2.968 -1.7259  1.4781  0.5687
10422TIP3   OH252756   1.820   0.146   2.703  0.2425 -0.5821 -0.5609
10422TIP3    H152757   1.869   0.118   2.626  2.1339  0.2526  0.2689
10422TIP3    H252758   1.885   0.152   2.773 -1.1184  0.2256  0.7239
10423TIP3   OH252759   4.825   1.456   3.008  0.5813 -0.0749 -0.2521
10423TIP3    H152760   4.822   1.377   2.955  0.3861 -0.3495  0.1615
10423TIP3    H252761   4.743   1.501   2.988  0.5266 -0.1576 -0.2151
10424TIP3   OH252762   4.342   0.283   5.884  0.0077 -0.6972 -0.3801
10424TIP3    H152763   4.305   0.338   5.953  2.1571  2.9404 -1.8075
10424TIP3    H252764   4.427   0.255   5.918 -0.2168 -1.5026 -0.4505
10425TIP3   OH252765   1.409   2.412  11.158  0.0955 -0.6326  0.5647
10425TIP3    H152766   1.387   2.342  11.220 -0.6074 -0.6053  0.3492
10425TIP3    H252767   1.362   2.488  11.191 -1.0960 -0.8584 -0.5505
10426TIP3   OH252768   5.493   4.547   2.012  0.0521  0.3966  0.1405
10426TIP3    H152769   5.583   4.575   2.028  0.5494 -1.8308  1.7886
10426TIP3    H252770   5.500   4.486   1.938 -0.2731  0.9751 -0.3718
10427TIP3   OH252771   6.604   3.873   3.198 -0.0280 -0.2248  0.1013
10427TIP3    H152772   6.570   3.827   3.122  2.7309 -1.8117 -0.2991
10427TIP3    H252773   6.691   3.902   3.172 -0.0654  1.5962  1.7811
10428TIP3   OH252774   2.309   6.553   1.782  0.1427  0.5211  0.2857
10428TIP3    H152775   2.387   6.542   1.836  0.6250  0.7193 -0.3494
10428TIP3    H252776   2.310   6.646   1.757  0.0228  0.3988 -0.1902
10429TIP3   OH252777   3.085   1.522   0.092 -0.4167 -0.0021 -0.2112
10429TIP3    H152778   2.999   1.503   0.053 -0.5936 -0.7815  0.5202
10429TIP3    H252779   3.107   1.442   0.141 -0.5025  1.1880  1.8442
10430TIP3   OH252780   0.895   4.179  10.603  0.1560  0.3228 -0.2583
10430TIP3    H152781   0.835   4.229  10.659 -0.5452  1.5061 -1.9984
10430TIP3    H252782   0.980   4.188  10.645 -0.2798  1.5102  0.4168
10431TIP3   OH252783   1.668   3.898   5.604  0.3689  0.5550 -0.5807
10431TIP3    H152784   1.607   3.971   5.605  0.7187  0.8646 -1.1115
10431TIP3    H252785   1.614   3.821   5.588 -0.2864  0.3868  2.0446
10432TIP3   OH252786   1.400   5.340  15.646 -0.3156  0.0356 -0.1929
10432TIP3    H152787   1.410   5.329  15.551  0.5098 -1.5400  0.0478
10432TIP3    H252788   1.339   5.271  15.672  2.4049 -2.1173  0.9114
10433TIP3   OH252789   5.613   0.637   2.817 -0.5228  0.6212  0.1366
10433TIP3    H152790   5.573   0.692   2.749  1.0679  4.2914  1.8780
10433TIP3    H252791   5.707   0.653   2.808 -0.2768  1.7832  3.4739
10434TIP3   OH252792   3.065   5.902   1.777 -0.3997  0.3183  0.5312
10434TIP3    H152793   3.028   5.814   1.767 -2.3182  1.0351  0.9399
10434TIP3    H252794   3.011   5.943   1.845  0.0293  2.0427 -0.1312
10435TIP3   OH252795   0.188   1.556   1.912  0.2480  0.0491 -0.1944
10435TIP3    H152796   0.193   1.616   1.838 -0.2437 -0.1972 -0.4331
10435TIP3    H252797   0.276   1.519   1.919  0.2461 -0.0687 -0.7760
10436TIP3   OH252798   3.917   2.466   3.433 -0.0562  0.4140  0.1280
10436TIP3    H152799   3.891   2.380   3.467  0.6644  1.0847  2.6454
10436TIP3    H252800   3.835   2.511   3.415 -0.5373  0.1379  1.4735
10437TIP3   OH252801   1.432   6.650   4.250  0.6715 -0.0149 -1.3989
10437TIP3    H152802   1.385   6.632   4.169 -0.6976  0.9297 -0.8560
10437TIP3    H252803   1.413   6.576   4.307  1.1134 -0.3728 -1.7145
10438TIP3   OH252804   1.973   2.363   1.028  0.3304  0.3676  0.3530
10438TIP3    H152805   1.939   2.306   0.959  1.3219  1.5747 -1.1956
10438TIP3    H252806   1.899   2.418   1.053 -0.3110 -0.7525  1.0289
10439TIP3   OH252807   0.087   1.096   2.758  0.1138 -0.4726 -0.6052
10439TIP3    H152808   0.010   1.146   2.785 -1.6412 -3.3495  0.1585
10439TIP3    H252809   0.159   1.133   2.808 -1.1707  0.8604  0.3490
10440TIP3   OH252810   2.927   4.112  16.920 -0.4154  1.0010  0.4124
10440TIP3    H152811   2.875   4.031  16.922  0.5057  0.4054  0.8537
10440TIP3    H252812   2.935   4.138  17.012  1.8460 -0.1100  0.6013
10441TIP3   OH252813   1.826   2.238  14.065 -0.2562  0.1677  0.3575
10441TIP3    H152814   1.808   2.210  14.155  0.1689 -2.9335 -0.3911
10441TIP3    H252815   1.849   2.157  14.019  0.7938  1.8192 -2.2685
10442TIP3   OH252816   3.918   1.818  12.314  0.8969  0.4321 -0.0791
10442TIP3    H152817   3.960   1.885  12.260  0.0287  1.9015  1.0054
10442TIP3    H252818   3.829   1.849  12.327  0.7976 -0.3525  1.3815
10443TIP3   OH252819   6.511   0.781  11.580  1.0218 -0.3201  0.0726
10443TIP3    H152820   6.526   0.784  11.675 -0.1573 -1.1739  0.3173
10443TIP3    H252821   6.451   0.708  11.568  1.9195 -0.8441 -1.4651
10444TIP3   OH252822   0.597   4.791  14.025  0.0595  0.5515 -0.1926
10444TIP3    H152823   0.542   4.712  14.020  0.0403  0.6430 -1.7287
10444TIP3    H252824   0.543   4.854  14.074 -0.3844 -0.0071  0.0514
10445TIP3   OH252825   2.429   1.079  13.681 -0.4440 -0.2964  0.3211
10445TIP3    H152826   2.358   1.014  13.686 -0.3578 -0.3136  1.9047
10445TIP3    H252827   2.384   1.163  13.680 -0.5184 -0.3397 -0.0358
10446TIP3   OH252828   1.757   6.500  16.159  0.3014  0.5732 -0.1752
10446TIP3    H152829   1.681   6.443  16.161  0.2352  0.6664  1.0476
10446TIP3    H252830   1.730   6.578  16.208  0.0542  2.1462 -2.6397
10447TIP3   OH252831   6.240   5.324  16.687 -0.4215  0.5436  0.0151
10447TIP3    H152832   6.286   5.282  16.760 -0.5231  1.6286  0.7267
10447TIP3    H252833   6.212   5.251  16.632  0.1241 -0.2754  0.7771
10448TIP3   OH252834   6.242   0.099   2.303 -0.2884  0.0261  0.0081
10448TIP3    H152835   6.191   0.019   2.317 -0.8767  0.6217  1.5496
10448TIP3    H252836   6.299   0.105   2.379 -0.0057  0.8996 -0.2583
10449TIP3   OH252837   1.049   1.933  16.924 -0.4043  0.4307  0.1327
10449TIP3    H152838   1.098   1.851  16.920  0.3489  0.8898 -0.3532
10449TIP3    H252839   1.043   1.962  16.833 -1.9298  0.1970  0.1435
10450TIP3   OH252840   4.909   4.181  13.014 -0.5609 -0.0072 -0.2867
10450TIP3    H152841   4.960   4.257  12.986  0.8216 -0.9699 -0.4956
10450TIP3    H252842   4.942   4.109  12.960 -0.0091 -1.2751  1.6513
10451TIP3   OH252843   4.212   5.306   6.122  0.0855 -0.7775  0.2735
10451TIP3    H152844   4.217   5.219   6.160  0.2803 -0.8256  0.1412
10451TIP3    H252845   4.185   5.363   6.194  0.4860 -0.8599  0.4886
10452TIP3   OH252846   5.074   5.933   2.275  0.1227 -0.1760 -0.3559
10452TIP3    H152847   5.123   5.961   2.198 -0.7705  0.1584 -0.8111
10452TIP3    H252848   4.982   5.936   2.248 -0.1877 -0.2812  0.6473
10453TIP3   OH252849   1.555   6.233   1.378  0.3293  0.2063 -0.2112
10453TIP3    H152850   1.568   6.193   1.292  0.9797  0.2176 -0.1193
10453TIP3    H252851   1.634   6.286   1.392  0.2124  0.2239  0.3831
10454TIP3   OH252852   5.420   4.674  15.902 -0.4037  0.1364  0.0206
10454TIP3    H152853   5.393   4.719  15.822 -1.0549 -1.2734 -0.5804
10454TIP3    H252854   5.338   4.656  15.948 -0.2445 -1.1622 -0.1703
10455TIP3   OH252855   6.085   4.370  15.670 -0.5580 -0.0420  0.1502
10455TIP3    H152856   6.070   4.375  15.765  0.4516 -1.4666  0.4143
10455TIP3    H252857   6.009   4.323  15.637  0.0427 -1.3694  0.5695
10456TIP3   OH252858   2.474   0.440   3.511  0.1617 -0.3119  0.3657
10456TIP3    H152859   2.566   0.462   3.497  0.2549 -0.5061  0.6548
10456TIP3    H252860   2.470   0.406   3.600 -0.6411  2.0883  1.3179
10457TIP3   OH252861   6.472   3.577  14.438  0.0638  1.2673 -0.1865
10457TIP3    H152862   6.463   3.550  14.346 -0.3491  2.3768 -0.4912
10457TIP3    H252863   6.565   3.568  14.457 -0.0741 -0.5378 -0.1940
10458TIP3   OH252864   6.750   2.688  16.014  0.5262  0.0496 -0.2398
10458TIP3    H152865   6.742   2.593  16.026 -1.1967  0.3585  1.5704
10458TIP3    H252866   6.711   2.704  15.927 -1.8305 -0.6676  0.5933
10459TIP3   OH252867   5.916   3.606   3.616 -0.4352  0.1712 -0.2236
10459TIP3    H152868   5.972   3.678   3.645 -0.1170 -0.1751  0.0233
10459TIP3    H252869   5.830   3.627   3.652 -0.1214 -0.0872  0.7236
10460TIP3   OH252870   2.869   0.020  15.535  0.0965  0.1909  0.7553
10460TIP3    H152871   2.942  -0.023  15.580 -0.3131 -1.1837  0.1488
10460TIP3    H252872   2.794  -0.036  15.552 -0.2658  0.1372 -0.8305
10461TIP3   OH252873   3.327   3.291  12.002 -0.5904  0.1285  0.1468
10461TIP3    H152874   3.316   3.385  12.019 -0.1623  0.2861 -0.4114
10461TIP3    H252875   3.405   3.286  11.948  0.4836 -0.7159  1.7119
10462TIP3   OH252876   3.508   1.038  10.296  0.3971  0.0195 -0.6807
10462TIP3    H152877   3.428   1.058  10.344  2.3232  0.9956  2.3513
10462TIP3    H252878   3.566   1.112  10.312  2.5958 -1.4909 -1.1566
10463TIP3   OH252879   3.036   3.621   5.835  0.0454  0.3825 -0.4898
10463TIP3    H152880   2.958   3.664   5.801  0.6545  0.7453 -1.4816
10463TIP3    H252881   3.007   3.533   5.859 -0.7304  0.6212 -0.5355
10464TIP3   OH252882   2.913   1.703   0.506  0.7901  0.1232  0.3647
10464TIP3    H152883   2.912   1.615   0.468  0.6350  0.3588 -0.1920
10464TIP3    H252884   2.836   1.746   0.469  0.7267  0.4134  0.8291
10465TIP3   OH252885   3.579   1.279  17.147  0.1520  0.4747  0.0117
10465TIP3    H152886   3.593   1.262  17.240 -0.2537  1.6852  0.3009
10465TIP3    H252887   3.511   1.217  17.121 -0.5810  0.9459  0.8010
10466TIP3   OH252888   3.397   5.510  14.846 -0.4769  0.1157 -0.5080
10466TIP3    H152889   3.380   5.444  14.779  0.1499  0.1059 -0.6575
10466TIP3    H252890   3.466   5.472  14.900 -2.4885 -0.8802  1.5345
10467TIP3   OH252891   4.977   5.179   1.558  0.1461  0.2246  0.3371
10467TIP3    H152892   5.014   5.120   1.623 -2.0097 -0.5117  0.9994
10467TIP3    H252893   5.009   5.266   1.582  1.4539 -0.3696  0.7974
10468TIP3   OH252894   2.742   3.493   5.783 -1.1773 -0.0951 -0.3797
10468TIP3    H152895   2.734   3.415   5.838 -0.6924 -0.0820 -0.2921
10468TIP3    H252896   2.681   3.556   5.822  0.4295  0.5485  1.2188
10469TIP3   OH252897   0.648   0.553   4.976  0.4296  0.2830  0.1207
10469TIP3    H152898   0.730   0.521   5.014 -0.1807 -0.4532  0.8619
10469TIP3    H252899   0.675   0.610   4.904  1.5729 -0.5762 -0.1549
10470TIP3   OH252900   1.742   2.074  13.830 -0.5352  0.0417 -0.7000
10470TIP3    H152901   1.655   2.093  13.796 -0.4968  1.2615 -0.1343
10470TIP3    H252902   1.772   1.999  13.778 -1.3124  0.5506 -1.9225
10471TIP3   OH252903   5.264   1.667  15.395  0.0447  0.0624 -0.3756
10471TIP3    H152904   5.176   1.690  15.425 -0.5960 -1.3921 -1.0679
10471TIP3    H252905   5.251   1.628  15.308  1.6430  2.1804 -1.6530
10472TIP3   OH252906   2.973   4.607   3.025  0.3942  0.2836  0.1099
10472TIP3    H152907   2.964   4.520   2.986  2.6490  0.0358  0.0055
10472TIP3    H252908   2.887   4.646   3.016 -1.1412 -2.4660  1.4973
10473TIP3   OH252909   1.833   2.291  14.794 -1.0423  0.0518  0.5792
10473TIP3    H152910   1.835   2.385  14.775 -0.2182 -0.1685 -0.5382
10473TIP3    H252911   1.886   2.251  14.725 -1.2956 -1.2334  1.0899
10474TIP3   OH252912   3.851   2.222   5.358 -0.3837 -0.5568  0.7307
10474TIP3    H152913   3.766   2.241   5.317  0.5318  0.7561 -0.6179
10474TIP3    H252914   3.889   2.307   5.376 -0.6652 -1.0304  4.3611
10475TIP3   OH252915   4.515   5.621   0.923  0.1541  0.1597  0.2496
10475TIP3    H152916   4.466   5.704   0.925 -0.5410 -0.2407  0.0749
10475TIP3    H252917   4.455   5.557   0.960  1.3793  0.0676  2.2595
10476TIP3   OH252918   5.921   0.757  17.195 -0.0208 -0.8616  0.5363
10476TIP3    H152919   5.895   0.842  17.230  0.1280 -0.1124 -1.1108
10476TIP3    H252920   6.006   0.773  17.154 -0.8187 -1.3386 -1.4122
10477TIP3   OH252921   0.138   5.012  15.287  0.4603  0.3038  0.1918
10477TIP3    H152922   0.049   4.994  15.315  0.1485  1.1461 -0.2271
10477TIP3    H252923   0.186   4.932  15.306 -0.7279 -0.7539 -1.0396
10478TIP3   OH252924   0.513   1.063   5.074 -0.3399  0.0370  0.3700
10478TIP3    H152925   0.600   1.077   5.112 -0.2005 -0.8132  0.3719
10478TIP3    H252926   0.463   1.139   5.103  0.3413  0.4390  0.5351
10479TIP3   OH252927   6.340   3.920   3.742 -0.5820 -0.2304  0.4651
10479TIP3    H152928   6.274   3.988   3.758  0.3266  0.4148  1.6664
10479TIP3    H252929   6.423   3.968   3.737 -0.1756 -1.0298 -0.9952
10480TIP3   OH252930   4.374   0.580   4.735 -0.2957  1.0498  0.1242
10480TIP3    H152931   4.461   0.543   4.748 -0.1865  1.5129  0.7898
10480TIP3    H252932   4.350   0.555   4.646  1.3759  2.6133 -0.8469
10481TIP3   OH252933   4.589   1.902   5.442  0.1105  0.1570 -0.4692
10481TIP3    H152934   4.558   1.917   5.353  1.7605  0.2023 -1.0722
10481TIP3    H252935   4.683   1.919   5.438  0.4473 -1.1079  0.9827
10482TIP3   OH252936   6.306   1.260  13.496 -0.1607  0.0962 -0.1365
10482TIP3    H152937   6.342   1.172  13.484  0.5145  0.3923 -0.2966
10482TIP3    H252938   6.224   1.246  13.543  0.4895 -0.5436  0.8447
10483TIP3   OH252939   0.635   0.305   3.032 -0.0862 -0.1552  0.2887
10483TIP3    H152940   0.721   0.329   2.998 -1.1160 -0.1457 -2.5982
10483TIP3    H252941   0.577   0.376   3.004 -1.6004 -1.7323 -0.8412
10484TIP3   OH252942   0.414   6.562  12.849  0.1395  0.2704  0.6200
10484TIP3    H152943   0.504   6.583  12.822  0.4964 -1.5918  0.2184
10484TIP3    H252944   0.415   6.569  12.944  0.4164  1.3104  0.5501
10485TIP3   OH252945   0.872   5.239   3.173 -0.0367  0.2498 -0.0032
10485TIP3    H152946   0.967   5.255   3.172  0.0331 -0.1323  0.1361
10485TIP3    H252947   0.850   5.236   3.266  0.2714 -2.1581  0.0652
10486TIP3   OH252948   2.189   1.477   5.976  0.3911  0.0733 -0.2552
10486TIP3    H152949   2.278   1.488   6.011 -0.4745  2.0200  1.5720
10486TIP3    H252950   2.188   1.533   5.899  0.3472  1.3069  0.6063
10487TIP3   OH252951   3.172   0.933  13.038  0.5285 -0.2114  0.2820
10487TIP3    H152952   3.156   0.955  12.946 -0.7449  1.9754  0.9488
10487TIP3    H252953   3.231   1.002  13.069  3.1560 -2.3982  0.5249
10488TIP3   OH252954   0.938   4.625   2.800  0.0577 -0.9258 -0.0640
10488TIP3    H152955   0.980   4.572   2.868  0.1791 -0.1515  0.4772
10488TIP3    H252956   0.844   4.616   2.818  0.0871 -0.7759  0.1745
10489TIP3   OH252957   0.878   6.717  13.788 -0.0774 -0.0813  0.0541
10489TIP3    H152958   0.786   6.696  13.771 -0.5644 -0.6639  2.8999
10489TIP3    H252959   0.920   6.633  13.805  0.2928  0.3559  1.5241
10490TIP3   OH252960   2.237   6.017  17.066 -0.8160  0.1651  0.3048
10490TIP3    H152961   2.209   5.947  17.007 -0.5092  0.8765 -0.7166
10490TIP3    H252962   2.175   6.088  17.049  0.0191  0.8118 -0.0553
10491TIP3   OH252963   1.698   1.229  15.854 -0.5427  0.0661 -0.4030
10491TIP3    H152964   1.649   1.173  15.915 -1.7766  1.1661 -0.3455
10491TIP3    H252965   1.733   1.298  15.909  0.3875 -0.2413 -0.5881
10492TIP3   OH252966   1.525   4.600   4.299  0.3003  0.4775  0.1048
10492TIP3    H152967   1.565   4.561   4.377 -0.4083 -0.3999  0.0430
10492TIP3    H252968   1.578   4.678   4.281  0.6026  0.5755  1.3355
10493TIP3   OH252969   1.369   2.211   3.024 -0.1708  0.2734 -0.0580
10493TIP3    H152970   1.327   2.283   3.072  3.0942  2.7186 -0.5532
10493TIP3    H252971   1.365   2.137   3.085 -0.2580  1.9627  2.1213
10494TIP3   OH252972   5.778   2.038  16.155  0.2402 -0.5884 -0.6817
10494TIP3    H152973   5.805   2.125  16.126  0.6698 -0.6010 -0.3355
10494TIP3    H252974   5.860   1.995  16.180 -0.1607 -0.1582  1.6507
10495TIP3   OH252975   5.452   3.301  13.046  0.0312 -0.0966  0.7408
10495TIP3    H152976   5.447   3.385  13.001 -2.2088 -0.7741 -0.4576
10495TIP3    H252977   5.447   3.236  12.975  0.0167 -1.2339  1.7470
10496TIP3   OH252978   5.159   3.062  15.711  0.4348 -0.7006 -0.0575
10496TIP3    H152979   5.207   2.981  15.691 -0.3369 -1.3024  0.4830
10496TIP3    H252980   5.075   3.052  15.667  0.1263 -0.4281  0.4612
10497TIP3   OH252981   5.355   2.675  17.208 -0.5101 -0.1345 -0.5925
10497TIP3    H152982   5.415   2.630  17.149  0.7206 -0.3158  0.7550
10497TIP3    H252983   5.279   2.618  17.213  0.5252 -1.5251  0.1530
10498TIP3   OH252984   3.869   4.221   6.015 -0.3990 -0.5203  0.1123
10498TIP3    H152985   3.884   4.256   5.928 -1.8236  1.7158  0.6863
10498TIP3    H252986   3.782   4.180   6.011 -0.7691  0.1937  0.6343
10499TIP3   OH252987   1.000   1.865  15.343 -0.7854 -0.1824 -0.0502
10499TIP3    H152988   0.988   1.772  15.325 -1.2004 -0.4810  1.5997
10499TIP3    H252989   1.094   1.875  15.360 -0.6102 -0.1405 -1.0226
10500TIP3   OH252990   4.782   5.116  14.300  0.3881 -0.4178 -0.2926
10500TIP3    H152991   4.702   5.108  14.249 -0.7093  1.0479  1.0858
10500TIP3    H252992   4.850   5.079  14.244 -0.8553  0.3714 -2.4476
10501TIP3   OH252993   3.529   5.247   0.590 -0.1208  0.7698  0.1065
10501TIP3    H152994   3.462   5.206   0.534 -2.3566  0.1336  3.0088
10501TIP3    H252995   3.488   5.328   0.620 -0.2480 -0.2557  2.9932
10502TIP3   OH252996   6.032   0.831   5.021 -0.3744 -0.3711 -0.4059
10502TIP3    H152997   6.011   0.802   4.933  2.9778 -0.1122 -1.4253
10502TIP3    H252998   6.051   0.751   5.069 -0.7478 -0.4222 -0.3414
10503TIP3   OH252999   5.525   3.495   3.112 -0.6907  0.1913 -0.4769
10503TIP3    H153000   5.541   3.400   3.108 -2.9929 -0.1894 -1.8125
10503TIP3    H253001   5.608   3.530   3.146  0.3601 -2.2364 -0.2439
10504TIP3   OH253002   4.399   5.309   3.345  0.2934 -0.3033 -0.2478
10504TIP3    H153003   4.414   5.238   3.283 -0.1572 -0.6316  0.0200
10504TIP3    H253004   4.480   5.361   3.341  1.7574 -2.2499  1.4606
10505TIP3   OH253005   2.647   2.676  16.859 -0.4186  0.6276 -0.0408
10505TIP3    H153006   2.727   2.683  16.808 -1.8286 -0.8893 -2.6232
10505TIP3    H253007   2.671   2.623  16.935  0.7153 -1.1744 -1.5829
10506TIP3   OH253008   5.419   1.132  11.871  0.0949  0.2952  0.0611
10506TIP3    H153009   5.379   1.074  11.806  1.6000 -0.3665 -0.3094
10506TIP3    H253010   5.352   1.199  11.887 -0.4381  0.3259 -1.9768
10507TIP3   OH253011   0.053   0.353   5.216  0.5536 -0.8149 -0.1132
10507TIP3    H153012  -0.039   0.329   5.213 -0.3273  1.9566  1.3982
10507TIP3    H253013   0.056   0.442   5.182  2.9377 -1.3116 -1.4630
10508TIP3   OH253014   0.138   4.646  17.125  0.1096 -0.0314 -0.3579
10508TIP3    H153015   0.141   4.674  17.217 -0.9127  1.8996 -0.8459
10508TIP3    H253016   0.226   4.612  17.107 -0.1064 -1.8922  1.7159
10509TIP3   OH253017   0.293   2.793  11.061 -0.0591  0.0390 -0.3739
10509TIP3    H153018   0.328   2.740  10.990 -1.6359  1.5675 -2.4018
10509TIP3    H253019   0.371   2.835  11.099  0.7544 -0.2177 -1.6975
10510TIP3   OH253020   1.636   1.930  16.596  0.1069  0.1864  0.5309
10510TIP3    H153021   1.699   1.994  16.562  3.2568 -0.7117  3.9994
10510TIP3    H253022   1.642   1.856  16.535  2.4019  0.1864  0.6777
10511TIP3   OH253023   3.066   0.005   0.312 -0.1787  0.1589 -0.1097
10511TIP3    H153024   3.076   0.100   0.309 -0.6693  0.2194  0.0104
10511TIP3    H253025   3.154  -0.030   0.298 -0.0444  0.6263 -0.4447
10512TIP3   OH253026   1.406   0.577  12.898  0.0108 -0.1767 -0.1809
10512TIP3    H153027   1.325   0.550  12.940  0.4901 -1.9201 -0.3149
10512TIP3    H253028   1.383   0.658  12.852 -0.9003  0.9912  2.1291
10513TIP3   OH253029   1.068   3.702  13.606  0.1244  0.3936  0.7261
10513TIP3    H153030   1.138   3.747  13.561 -0.1268 -0.7465 -0.8964
10513TIP3    H253031   0.992   3.759  13.597  0.0247  0.0849 -0.5346
10514TIP3   OH253032   5.405   5.640  10.614  0.8208  0.0879  0.2396
10514TIP3    H153033   5.422   5.556  10.657 -6.2859 -1.3648  1.4906
10514TIP3    H253034   5.406   5.704  10.685  0.3862 -0.1049  0.4216
10515TIP3   OH253035   4.461   6.010  14.019 -0.2940 -0.1754 -0.1336
10515TIP3    H153036   4.544   5.967  14.037 -0.2631 -0.2506 -0.4412
10515TIP3    H253037   4.476   6.102  14.041  0.1335 -0.0329 -0.9694
10516TIP3   OH253038   3.261   0.661  12.361  0.0811  0.0470 -0.3295
10516TIP3    H153039   3.335   0.702  12.317 -0.8395  0.7575 -1.2422
10516TIP3    H253040   3.302   0.599  12.422  1.5005  1.7754  0.5935
10517TIP3   OH253041   2.436   0.648   6.146  0.3612 -0.3383  0.7196
10517TIP3    H153042   2.496   0.599   6.089  0.7160  0.9582 -0.0803
10517TIP3    H253043   2.442   0.605   6.231 -0.4832 -2.5913 -0.2924
10518TIP3   OH253044   3.653   2.038  15.393 -0.5866  0.1392  0.2176
10518TIP3    H153045   3.687   1.953  15.420 -0.8331  0.3260  1.1501
10518TIP3    H253046   3.565   2.041  15.430 -0.0976  1.3453  1.3375
10519TIP3   OH253047   3.674   2.762   4.437 -0.3481 -0.0270 -0.1066
10519TIP3    H153048   3.749   2.773   4.378 -0.2719 -0.4462 -0.0884
10519TIP3    H253049   3.692   2.822   4.509 -0.5477  0.6509 -0.6104
10520TIP3   OH253050   5.562   3.930  11.632  0.6667 -0.3663  0.1116
10520TIP3    H153051   5.586   4.020  11.614 -1.1967 -0.1042 -1.3287
10520TIP3    H253052   5.593   3.881  11.556 -0.3534 -0.5563 -0.1873
10521TIP3   OH253053   2.765   2.709  12.924  0.0145  0.0052  0.0381
10521TIP3    H153054   2.683   2.752  12.951 -1.5590 -0.9533 -2.7574
10521TIP3    H253055   2.767   2.627  12.973 -0.8134 -0.0459  0.0016
10522TIP3   OH253056   6.686   0.142  13.695  0.5998 -0.1397  0.4587
10522TIP3    H153057   6.772   0.183  13.712  1.0536 -1.6296  2.1715
10522TIP3    H253058   6.681   0.072  13.760 -1.7970 -0.3132  0.1566
10523TIP3   OH253059   3.296   5.320   1.563  0.3881  0.2837 -0.0267
10523TIP3    H153060   3.317   5.260   1.491 -1.6473 -1.0138  0.3555
10523TIP3    H253061   3.364   5.305   1.628  1.6815  0.7257 -1.2442
10524TIP3   OH253062   2.629   0.043  16.128  0.4494  0.1863  0.2275
10524TIP3    H153063   2.641   0.018  16.036  3.3005  0.1863  0.5281
10524TIP3    H253064   2.657  -0.034  16.177 -0.2357  0.4974  1.1184
10525TIP3   OH253065   0.095   5.464   1.670  0.1448  0.4641 -0.1392
10525TIP3    H153066   0.027   5.427   1.613  0.4193 -1.9647  0.9740
10525TIP3    H253067   0.178   5.435   1.631  0.4827  1.5509 -0.2716
10526TIP3   OH253068   3.708   2.414  15.802 -0.3884  0.0006 -0.0062
10526TIP3    H153069   3.707   2.324  15.770  0.1469 -0.9912  2.5091
10526TIP3    H253070   3.615   2.439  15.805 -0.5179 -0.3311 -1.0244
10527TIP3   OH253071   6.105   4.922   3.622  0.1513  0.5611 -0.1814
10527TIP3    H153072   6.170   4.852   3.625 -1.1911 -0.7984 -0.9101
10527TIP3    H253073   6.143   4.993   3.673  2.4202  0.0401 -1.0340
10528TIP3   OH253074   3.122   5.724   3.141  0.5887  0.8332  0.3291
10528TIP3    H153075   3.157   5.802   3.098  1.3189  0.5686  0.4319
10528TIP3    H253076   3.166   5.651   3.098 -0.8471  0.4175 -0.4614
10529TIP3   OH253077   3.947   5.667   4.371 -0.1798  0.3297 -0.3195
10529TIP3    H153078   4.014   5.607   4.339  0.7648  0.7924  0.6940
10529TIP3    H253079   3.938   5.733   4.303  0.8649  0.5986 -0.2132
10530TIP3   OH253080   4.384   3.403   0.102 -0.0698 -0.5410  0.0675
10530TIP3    H153081   4.413   3.400   0.011  0.3605  0.5086  0.1557
10530TIP3    H253082   4.342   3.488   0.111  3.7092  1.3914  1.9117
10531TIP3   OH253083   2.415   0.563   4.644  0.1213 -0.4589 -0.1604
10531TIP3    H153084   2.485   0.563   4.579 -1.0956  0.3831 -1.5413
10531TIP3    H253085   2.391   0.656   4.652  1.4729 -0.2654  2.9505
10532TIP3   OH253086   3.374   3.616   0.145  0.5641 -0.0613  0.7510
10532TIP3    H153087   3.413   3.551   0.086 -1.0449 -0.2220 -0.1978
10532TIP3    H253088   3.280   3.614   0.124  0.2911  1.6121  1.6645
10533TIP3   OH253089   1.104   2.354   0.629  0.1037  0.3263  0.4984
10533TIP3    H153090   1.034   2.393   0.577 -0.6844 -1.4329  0.1750
10533TIP3    H253091   1.068   2.271   0.660  0.5712  1.1668  3.7638
10534TIP3   OH253092   3.196   0.694  11.308  0.1719  0.2723 -0.0624
10534TIP3    H153093   3.283   0.661  11.332  0.1313 -0.3207 -0.7057
10534TIP3    H253094   3.171   0.642  11.232 -1.8498 -1.3781  1.6031
10535TIP3   OH253095   3.469   1.552  17.172  0.2579  0.6128 -0.0693
10535TIP3    H153096   3.520   1.478  17.140  0.0355  0.0347  0.8889
10535TIP3    H253097   3.532   1.607  17.219  0.1376  0.2489  0.5253
10536TIP3   OH253098   0.399   0.747   1.527 -0.9247 -0.1956  0.2313
10536TIP3    H153099   0.347   0.736   1.606  1.1817 -0.7248  1.6115
10536TIP3    H253100   0.470   0.683   1.535  0.4021  1.0095 -1.1825
10537TIP3   OH253101   3.718   0.546   2.868  0.3131 -0.4144 -0.1983
10537TIP3    H153102   3.655   0.601   2.822  0.8813 -0.2792 -0.8136
10537TIP3    H253103   3.663   0.478   2.909 -0.3309  0.2829  0.1218
10538TIP3   OH253104   6.265   5.198   2.830  0.0754  0.3502 -0.1081
10538TIP3    H153105   6.201   5.169   2.765  0.2101  1.8257 -0.9643
10538TIP3    H253106   6.222   5.186   2.914  0.2624 -2.5506 -0.3408
10539TIP3   OH253107   2.255   0.329   0.312  0.4951  0.4667 -0.4582
10539TIP3    H153108   2.272   0.271   0.238 -0.1382 -0.0273 -0.2290
10539TIP3    H253109   2.329   0.316   0.371  0.5619  0.2048 -0.5984
10540TIP3   OH253110   3.067   5.091  13.836  0.1897  0.3321  0.5836
10540TIP3    H153111   3.061   5.074  13.742  0.1275  1.9849  0.2483
10540TIP3    H253112   3.157   5.067  13.858  0.2760  0.1390  0.0503
10541TIP3   OH253113   5.384   2.660  15.954 -0.4640  0.3538 -0.5108
10541TIP3    H153114   5.442   2.685  15.882 -1.3540  0.2144 -1.3067
10541TIP3    H253115   5.432   2.683  16.033  1.4302 -1.3627 -1.0689
10542TIP3   OH253116   1.397   5.117   3.946  0.0452 -0.0556 -0.0862
10542TIP3    H153117   1.404   5.073   3.861 -2.3612  0.8290 -0.7965
10542TIP3    H253118   1.455   5.193   3.938 -0.4317  0.2249 -1.0911
10543TIP3   OH253119   2.132   2.614   0.879 -0.5714 -0.1284  0.5692
10543TIP3    H153120   2.192   2.546   0.911 -1.5805 -0.3445  2.0764
10543TIP3    H253121   2.070   2.567   0.823 -0.4083 -0.2077  0.4557
10544TIP3   OH253122   0.780   5.183  13.485  0.0275  0.0937 -0.5551
10544TIP3    H153123   0.833   5.242  13.431 -0.3249  0.6217 -0.3352
10544TIP3    H253124   0.843   5.120  13.521  0.6749  1.2745  0.4616
10545TIP3   OH253125   4.578   5.957  16.954 -0.8285 -0.1446 -0.1531
10545TIP3    H153126   4.513   5.988  16.891 -0.7097  0.0970 -0.1560
10545TIP3    H253127   4.662   5.988  16.920 -0.8598  0.8281  0.6318
10546TIP3   OH253128   2.870   3.681  11.915 -0.3655 -0.2651 -0.1346
10546TIP3    H153129   2.846   3.772  11.932 -0.9642 -0.4107 -0.2028
10546TIP3    H253130   2.850   3.667  11.822  1.5796  0.1117 -0.6600
10547TIP3   OH253131   2.054   2.063  13.591 -0.0004 -0.5363 -0.6665
10547TIP3    H153132   2.019   2.129  13.532 -0.8930 -1.7458 -1.5373
10547TIP3    H253133   2.062   2.108  13.675 -1.5014  0.4225 -0.9966
10548TIP3   OH253134   4.383   5.265   1.669  0.1444 -0.0810 -0.2153
10548TIP3    H153135   4.341   5.209   1.734  1.2348 -0.6839 -0.0009
10548TIP3    H253136   4.396   5.209   1.593  0.4403  0.1201 -0.3169
10549TIP3   OH253137   0.291   4.504   0.150 -0.3774  0.0697  0.2651
10549TIP3    H153138   0.237   4.454   0.211  0.3135 -0.3879  0.5127
10549TIP3    H253139   0.336   4.438   0.097  1.8822  0.2875  1.7432
10550TIP3   OH253140   4.660   4.676  10.563  0.1394 -0.1927 -0.3364
10550TIP3    H153141   4.726   4.746  10.566  0.4208 -0.4655 -0.1402
10550TIP3    H253142   4.577   4.722  10.550  0.0628  0.3367  1.7409
10551TIP3   OH253143   0.509   6.633  11.184  0.4119  0.1975 -0.5710
10551TIP3    H153144   0.566   6.675  11.248 -0.5249  1.2927 -0.4440
10551TIP3    H253145   0.560   6.634  11.103  1.0380  0.0687 -0.1873
10552TIP3   OH253146   2.449   5.071  12.421 -0.3997  0.3021  0.8818
10552TIP3    H153147   2.374   5.114  12.380 -0.2870 -0.0042  0.3488
10552TIP3    H253148   2.442   5.093  12.514 -1.1307  0.2997  0.8286
10553TIP3   OH253149   1.492   5.238  12.922  0.0181  0.3998  0.0485
10553TIP3    H153150   1.416   5.180  12.928 -0.2300  0.8570  2.7518
10553TIP3    H253151   1.566   5.182  12.942  0.2626  0.2125 -1.3456
10554TIP3   OH253152   2.856   6.612   4.089 -0.2625  0.1711 -0.4374
10554TIP3    H153153   2.768   6.651   4.095 -0.8013 -0.3422 -3.4133
10554TIP3    H253154   2.850   6.532   4.140 -0.7192  1.3423  1.4493
10555TIP3   OH253155   6.769   3.788  17.350  0.1006 -0.9481 -0.5333
10555TIP3    H153156   6.785   3.694  17.339 -2.1787 -1.2896 -1.3719
10555TIP3    H253157   6.699   3.808  17.289 -3.5041  0.0700  3.4712
10556TIP3   OH253158   3.365   0.756   4.739  0.0926 -0.0835  0.0496
10556TIP3    H153159   3.440   0.711   4.701 -0.4861 -0.7655 -0.3064
10556TIP3    H253160   3.403   0.820   4.799  1.0195  0.6708 -1.2916
10557TIP3   OH253161   6.166   0.026   1.715  0.1097 -0.8155 -0.1076
10557TIP3    H153162   6.102   0.065   1.774  0.0321 -0.9840 -0.0800
10557TIP3    H253163   6.159   0.076   1.634  1.4418  0.5860  0.5879
10558TIP3   OH253164   2.241   0.909  11.782 -0.1628  0.5510 -0.2885
10558TIP3    H153165   2.268   0.838  11.839 -0.8141  0.9433  0.5303
10558TIP3    H253166   2.316   0.969  11.780 -0.1666  0.5767  0.2346
10559TIP3   OH253167   3.886   1.826   0.006  0.2398 -0.1845  0.8695
10559TIP3    H153168   3.954   1.828  -0.060  1.2067 -2.2887  1.7199
10559TIP3    H253169   3.932   1.836   0.089 -0.8738  1.6954  1.3165
10560TIP3   OH253170   1.337   4.846  15.883  0.0712 -0.2886 -0.3051
10560TIP3    H153171   1.273   4.843  15.812 -1.3551 -0.0094  0.9168
10560TIP3    H253172   1.298   4.904  15.949  0.9741 -1.1461  1.0507
10561TIP3   OH253173   3.824   3.847   4.521 -0.2237  0.2851  0.2990
10561TIP3    H153174   3.833   3.752   4.516 -0.4053  0.1200  2.1285
10561TIP3    H253175   3.780   3.872   4.440 -0.3883 -1.2267 -0.1031
10562TIP3   OH253176   5.143   2.098   5.670 -0.3661 -0.2153 -0.5857
10562TIP3    H153177   5.233   2.068   5.660  0.3639  1.6602 -0.0344
10562TIP3    H253178   5.117   2.066   5.756  1.4231  2.9673  1.3201
10563TIP3   OH253179   2.382   1.378   2.319  0.3190  0.4885  0.3215
10563TIP3    H153180   2.382   1.314   2.248  0.4906  0.0901  0.6762
10563TIP3    H253181   2.295   1.419   2.313  0.1585  0.1367  0.1695
10564TIP3   OH253182   1.491   3.619  13.585 -0.1322 -0.3152 -0.1603
10564TIP3    H153183   1.498   3.559  13.659 -0.9961 -0.4878 -0.2102
10564TIP3    H253184   1.398   3.618  13.563 -0.0415  0.5269 -0.5895
10565TIP3   OH253185   0.795   2.370  11.874 -0.2608  0.1548  0.4662
10565TIP3    H153186   0.729   2.308  11.905  1.9822 -1.4186  2.4420
10565TIP3    H253187   0.855   2.316  11.821  0.0703  1.3219 -0.3917
10566TIP3   OH253188   2.263   4.162  12.970  0.4817  0.3065  0.0037
10566TIP3    H153189   2.237   4.095  13.033  0.0212  1.2942  0.8815
10566TIP3    H253190   2.341   4.126  12.928  1.0334 -0.2036  1.4186
10567TIP3   OH253191   3.082   5.290  14.182 -0.0669 -0.2389  0.3876
10567TIP3    H153192   3.037   5.367  14.218 -2.1572 -0.5718 -1.3261
10567TIP3    H253193   3.171   5.320  14.166 -0.5257  1.4918  0.8443
10568TIP3   OH253194   6.042   5.047   4.289  0.4794 -0.1549 -0.1250
10568TIP3    H153195   6.024   5.112   4.357  0.2400  0.9551 -1.2154
10568TIP3    H253196   6.117   4.997   4.323  1.7706  1.7846  0.0337
10569TIP3   OH253197   4.078   0.521  13.948 -0.0963 -0.1450 -0.1250
10569TIP3    H153198   4.105   0.513  14.039  0.2390  0.1886 -0.1951
10569TIP3    H253199   3.982   0.526  13.952 -0.0057  1.7160  0.3495
10570TIP3   OH253200   0.726   0.176  14.492 -0.3893 -0.5002  0.3880
10570TIP3    H153201   0.750   0.235  14.420 -0.9307 -1.4801 -0.6327
10570TIP3    H253202   0.646   0.133  14.462 -1.5300  0.2105  2.2742
10571TIP3   OH253203   6.430   5.665  11.745  0.2737 -0.1543  0.1565
10571TIP3    H153204   6.483   5.738  11.712 -0.0682  1.5305  2.9784
10571TIP3    H253205   6.342   5.681  11.711  0.2780  0.5670  0.4715
10572TIP3   OH253206   4.832   5.353   6.527 -0.2959 -0.3260  0.2251
10572TIP3    H153207   4.880   5.424   6.571 -0.1479 -0.0447 -0.3771
10572TIP3    H253208   4.786   5.308   6.597 -0.7235  0.6273  0.5668
10573TIP3   OH253209   3.208   5.517   3.413  0.4326 -0.1644  0.0350
10573TIP3    H153210   3.130   5.468   3.438  0.8061 -0.5014  0.5577
10573TIP3    H253211   3.222   5.494   3.321 -0.3581  0.2785 -0.2052
10574TIP3   OH253212   0.858   0.391  13.073 -0.1924 -0.2371  0.2840
10574TIP3    H153213   0.809   0.312  13.049 -1.9003  0.5854  0.9277
10574TIP3    H253214   0.939   0.357  13.112  0.4967 -1.6202 -2.1401
10575TIP3   OH253215   4.928   2.707   3.149 -0.5924  0.6711 -0.5237
10575TIP3    H153216   5.016   2.694   3.114 -1.3207 -0.4310 -2.0247
10575TIP3    H253217   4.901   2.793   3.116 -0.3117  0.7406 -0.5730
10576TIP3   OH253218   5.095   3.992  10.793 -0.5867 -0.2709 -0.6072
10576TIP3    H153219   5.012   3.945  10.782 -0.0783 -0.8015 -2.6070
10576TIP3    H253220   5.161   3.923  10.796 -0.2618  0.0296  2.7256
10577TIP3   OH253221   3.467   0.349  12.937 -0.4861 -0.0527 -0.2793
10577TIP3    H153222   3.413   0.342  13.016 -0.0552 -1.6684 -0.0863
10577TIP3    H253223   3.547   0.392  12.967 -0.7191  0.2209 -0.0460
10578TIP3   OH253224   4.548   2.303  13.185 -0.1803  0.3437 -0.1015
10578TIP3    H153225   4.560   2.252  13.266 -1.1371  0.6233  0.2269
10578TIP3    H253226   4.519   2.239  13.120 -0.1673  0.2538 -0.0183
10579TIP3   OH253227   3.846   0.728  14.749 -0.6471 -0.2557 -0.0114
10579TIP3    H153228   3.759   0.766  14.736 -1.4062 -2.5815 -2.7954
10579TIP3    H253229   3.847   0.702  14.841 -3.0944 -0.5835 -0.0093
10580TIP3   OH253230   2.468   2.643  17.249 -0.5221 -0.0970  0.7923
10580TIP3    H153231   2.450   2.588  17.173 -1.2799  1.5263 -0.2562
10580TIP3    H253232   2.535   2.595  17.298 -0.5497 -1.5297 -0.5013
10581TIP3   OH253233   4.995   2.303  10.763 -0.2430  0.1387 -0.8204
10581TIP3    H153234   5.060   2.355  10.809  0.1946 -0.9081 -0.2241
10581TIP3    H253235   4.911   2.345  10.784 -0.1486 -0.7671  1.6280
10582TIP3   OH253236   3.606   4.666  12.952  0.2582  0.3247  0.5888
10582TIP3    H153237   3.608   4.656  12.857 -2.0687 -2.8877  0.7326
10582TIP3    H253238   3.578   4.757  12.966  1.1726  1.0268 -1.7341
10583TIP3   OH253239   3.826   5.662  15.863 -0.5069 -0.9278 -0.3200
10583TIP3    H153240   3.748   5.610  15.848  0.1494 -1.8068 -0.7686
10583TIP3    H253241   3.896   5.598  15.877  0.5208 -0.2229 -1.9086
10584TIP3   OH253242   2.792   1.570  13.323  0.3011 -0.5635 -0.2459
10584TIP3    H153243   2.750   1.564  13.237 -0.5660 -0.9076  0.1935
10584TIP3    H253244   2.886   1.568  13.304  0.1164 -1.4817 -1.1292
10585TIP3   OH253245   2.495   4.413   4.539  0.6656 -0.1644  0.0511
10585TIP3    H153246   2.478   4.442   4.629 -1.2586  0.1446 -0.3717
10585TIP3    H253247   2.570   4.354   4.547 -0.3218 -1.2437  2.0588
10586TIP3   OH253248   1.685   2.664   4.361  0.0025 -0.0367 -0.2341
10586TIP3    H153249   1.717   2.751   4.340 -1.7485  0.8795  0.6835
10586TIP3    H253250   1.670   2.623   4.276  1.4137  0.2915 -0.6753
10587TIP3   OH253251   0.273   2.677   3.455  0.1349 -0.2622  0.3182
10587TIP3    H153252   0.179   2.662   3.445  0.3574 -0.7811 -1.3522
10587TIP3    H253253   0.314   2.598   3.420  1.2038  0.9888 -1.4895
10588TIP3   OH253254   1.219   4.052   3.723 -0.0998 -0.6021 -0.7238
10588TIP3    H153255   1.180   3.967   3.702 -0.2664 -0.5728 -0.5266
10588TIP3    H253256   1.209   4.102   3.642  0.5297 -0.9645 -1.0382
10589TIP3   OH253257   5.216   5.924  13.932 -0.4606 -0.2094  0.2442
10589TIP3    H153258   5.237   6.014  13.958  1.8516 -0.7527  0.4884
10589TIP3    H253259   5.255   5.914  13.845 -0.5564 -1.0231  0.2860
10590TIP3   OH253260   2.560   2.466   6.111  0.0304  0.6675  0.6184
10590TIP3    H153261   2.466   2.478   6.126  0.2382  2.4739  0.6616
10590TIP3    H253262   2.587   2.403   6.177 -1.5129 -1.5112 -0.7052
10591TIP3   OH253263   1.680   3.328   5.099 -0.2139  0.6419  0.0284
10591TIP3    H153264   1.604   3.274   5.080  0.6561  0.0343 -2.1380
10591TIP3    H253265   1.755   3.268   5.088  0.6876  1.8759 -0.8191
10592TIP3   OH253266   3.055   2.704  13.756 -0.4128 -0.2695 -0.3042
10592TIP3    H153267   3.140   2.740  13.779  0.8697 -2.3029 -1.5366
10592TIP3    H253268   3.010   2.776  13.710  0.7242  0.7570  0.1459
10593TIP3   OH253269   2.997   0.365   2.139  0.2766 -0.5568  0.2290
10593TIP3    H153270   2.910   0.380   2.176 -1.5880 -1.4123 -3.2693
10593TIP3    H253271   2.996   0.273   2.114  1.6545 -0.2530 -1.0784
10594TIP3   OH253272   5.990   1.875  14.081 -0.5505  0.6224  0.0085
10594TIP3    H153273   5.932   1.803  14.056 -0.1748  0.8048 -1.4481
10594TIP3    H253274   5.938   1.954  14.065  0.0033  0.7766 -1.0718
10595TIP3   OH253275   1.881   0.465  16.776 -0.8772 -0.3109 -0.2539
10595TIP3    H153276   1.895   0.541  16.719 -0.2805  1.0029  1.5510
10595TIP3    H253277   1.966   0.421  16.779  0.0057  1.3331  1.8820
10596TIP3   OH253278   2.601   6.463   4.870  0.7994  0.0060 -0.2169
10596TIP3    H153279   2.583   6.520   4.796  1.8022  1.0937  0.3530
10596TIP3    H253280   2.530   6.481   4.932  1.2049  0.7767  0.0323
10597TIP3   OH253281   5.348   4.089   2.911 -0.3581 -0.1897 -0.7227
10597TIP3    H153282   5.277   4.064   2.971 -0.2894 -1.0491 -0.9842
10597TIP3    H253283   5.349   4.019   2.845 -1.3172  1.4098 -2.5075
10598TIP3   OH253284   0.596   3.721  11.772 -0.0762 -0.5120  0.2227
10598TIP3    H153285   0.674   3.727  11.826 -0.5418  0.0095  0.8575
10598TIP3    H253286   0.572   3.628  11.774 -0.8041 -0.3199  1.9705
10599TIP3   OH253287   5.297   5.762  15.121 -0.4342 -0.1720 -0.1214
10599TIP3    H153288   5.333   5.848  15.100 -0.6258  0.3292  1.4685
10599TIP3    H253289   5.221   5.781  15.176 -0.7531 -1.3557 -0.1240
10600TIP3   OH253290   3.333   6.236   4.717  0.3961 -0.0763 -0.5620
10600TIP3    H153291   3.250   6.272   4.685 -0.7375 -0.2236  1.9933
10600TIP3    H253292   3.334   6.146   4.684 -1.3113 -0.6117  0.6963
10601TIP3   OH253293   1.880   4.898   1.449  0.9836 -0.6489 -0.1494
10601TIP3    H153294   1.825   4.956   1.503  2.5734 -0.2070  1.1022
10601TIP3    H253295   1.942   4.958   1.407  1.0983 -1.2205 -0.7936
10602TIP3   OH253296   0.067   1.468   4.840 -0.1060 -0.2283  0.0653
10602TIP3    H153297   0.153   1.485   4.878 -0.7272  0.1520  1.3409
10602TIP3    H253298   0.028   1.554   4.829 -1.2762 -0.4741  1.8227
10603TIP3   OH253299   5.439   4.241  12.758  0.4739 -0.3028  0.6636
10603TIP3    H153300   5.419   4.156  12.721 -1.2591 -0.4317  1.7864
10603TIP3    H253301   5.488   4.287  12.689  2.9141 -2.7281  0.6362
10604TIP3   OH253302   4.527   1.867  14.733  0.0007 -0.4252  0.1700
10604TIP3    H153303   4.494   1.806  14.667  0.9582 -1.6317  0.7640
10604TIP3    H253304   4.452   1.883  14.790 -0.6164 -0.0053 -0.7431
10605TIP3   OH253305   2.351   4.635   6.292  0.3127 -0.3075 -0.4294
10605TIP3    H153306   2.336   4.541   6.292  3.2714 -1.0664  3.3479
10605TIP3    H253307   2.446   4.644   6.278  0.0965  2.1142 -0.7626
10606TIP3   OH253308   0.819   1.474   2.681 -0.5576  0.1329 -0.1869
10606TIP3    H153309   0.859   1.433   2.757 -2.4819  1.9151  1.9385
10606TIP3    H253310   0.733   1.433   2.673 -0.1378 -0.5156 -1.9086
10607TIP3   OH253311   6.516   3.426  15.504  0.0894 -0.0618  0.0613
10607TIP3    H153312   6.603   3.392  15.526  2.0499  3.2216 -1.8145
10607TIP3    H253313   6.466   3.348  15.480  2.2512 -2.1666  1.7682
10608TIP3   OH253314   0.573   5.454   2.468  0.6727  0.0501  0.1253
10608TIP3    H153315   0.653   5.496   2.437  0.7103 -0.5682 -0.6425
10608TIP3    H253316   0.594   5.360   2.471  0.5457  0.0419  1.6675
10609TIP3   OH253317   2.474   6.513  15.097  0.3263 -0.7557  0.0006
10609TIP3    H153318   2.513   6.585  15.048 -0.4887 -0.1779  0.1779
10609TIP3    H253319   2.409   6.476  15.037  1.0544 -1.6449 -0.2585
10610TIP3   OH253320   3.029   5.076  12.790 -0.0191  0.4081 -0.2862
10610TIP3    H153321   3.036   4.984  12.812 -0.7742  0.5205  0.4484
10610TIP3    H253322   3.110   5.115  12.823 -0.2519  0.2229  0.5112
10611TIP3   OH253323   6.752   2.102   0.480 -0.4546 -0.1507 -0.0580
10611TIP3    H153324   6.819   2.132   0.418 -2.6437  2.4076 -1.3495
10611TIP3    H253325   6.796   2.105   0.565  1.9825 -1.6725 -1.1359
10612TIP3   OH253326   2.292   4.349   1.574  0.0146  0.1412 -0.2044
10612TIP3    H153327   2.230   4.276   1.574 -0.1530  0.2776 -0.7470
10612TIP3    H253328   2.242   4.424   1.540  0.8177 -0.0657 -1.9982
10613TIP3   OH253329   5.004   1.465  17.171  0.1651  0.0650 -0.2493
10613TIP3    H153330   4.993   1.535  17.235  2.4919 -0.6716  1.0724
10613TIP3    H253331   4.952   1.392  17.206  1.7101 -0.4538  1.0677
10614TIP3   OH253332   3.192   3.025  12.250 -0.1942  0.0614 -0.2297
10614TIP3    H153333   3.287   3.026  12.239 -0.3187  0.2569 -1.4962
10614TIP3    H253334   3.161   2.962  12.184 -0.7859 -1.9372  1.8387
10615TIP3   OH253335   5.112   5.015   3.682 -0.1627 -0.6552  0.3811
10615TIP3    H153336   5.164   4.935   3.672  0.5666 -0.0104 -1.2991
10615TIP3    H253337   5.041   4.989   3.741 -0.2617 -2.6973 -0.5483
10616TIP3   OH253338   6.070   4.605  13.083  0.2971  0.3427 -0.4283
10616TIP3    H153339   6.046   4.517  13.052  0.6272  0.0141  0.2168
10616TIP3    H253340   6.028   4.612  13.169  0.7337  0.5995 -0.2354
10617TIP3   OH253341   6.692   3.214   1.269  0.1713  0.0572 -0.6216
10617TIP3    H153342   6.775   3.259   1.286  0.3503  0.4865 -2.4228
10617TIP3    H253343   6.627   3.265   1.318  0.6459  1.1783 -1.1114
10618TIP3   OH253344   2.966   4.887  11.654 -0.6013  1.0249 -0.4716
10618TIP3    H153345   2.889   4.858  11.703 -1.1663 -0.2887 -2.0364
10618TIP3    H253346   2.949   4.979  11.634 -1.5586  0.8709 -0.4154
10619TIP3   OH253347   2.240   0.079  10.427  0.0330  0.4874 -0.1688
10619TIP3    H153348   2.224  -0.003  10.475 -0.7815  0.2642 -0.8095
10619TIP3    H253349   2.226   0.056  10.335 -0.4094  1.4064 -0.3344
10620TIP3   OH253350   5.661   4.317   5.903 -1.1132  0.5488 -0.2891
10620TIP3    H153351   5.645   4.252   5.972  1.4383  1.7493  1.6050
10620TIP3    H253352   5.702   4.268   5.832  2.4118  0.1523  1.7969
10621TIP3   OH253353   5.768   0.096  11.976 -0.3880 -0.0448  0.5604
10621TIP3    H153354   5.829   0.095  11.902 -0.6607 -0.4245  0.3361
10621TIP3    H253355   5.694   0.148  11.945 -0.0553  0.6596  0.9349
10622TIP3   OH253356   6.144   6.346  15.734 -0.4930  0.1521  0.2910
10622TIP3    H153357   6.220   6.291  15.753 -0.3194  0.5597  0.7857
10622TIP3    H253358   6.125   6.390  15.816  1.5295  3.5233 -0.8784
10623TIP3   OH253359   0.337   3.025  12.266  0.0594  0.0253  0.5891
10623TIP3    H153360   0.364   3.108  12.227  0.1247 -0.0245  0.5296
10623TIP3    H253361   0.353   2.960  12.198  1.6508 -0.2992  1.2485
10624TIP3   OH253362   4.515   4.085   0.777  0.4730  0.9018 -0.5053
10624TIP3    H153363   4.553   4.120   0.858 -3.3217 -0.7781  2.3302
10624TIP3    H253364   4.465   4.157   0.740 -1.7691  0.5126  1.5332
10625TIP3   OH253365   5.419   1.663  13.474  0.5069 -0.3797 -0.3290
10625TIP3    H153366   5.381   1.732  13.528  3.0726  2.0606 -1.3981
10625TIP3    H253367   5.355   1.592  13.478 -2.0354  1.7870  1.3083
10626TIP3   OH253368   3.736   6.282   3.303 -0.5128 -0.1045  0.6582
10626TIP3    H153369   3.789   6.297   3.380 -2.8532 -1.3535  2.6532
10626TIP3    H253370   3.725   6.187   3.299 -0.2660 -0.1112 -1.3998
10627TIP3   OH253371   5.997   2.126  11.404  0.5014  0.5765 -0.2662
10627TIP3    H153372   6.012   2.096  11.314  0.9811 -1.3348  0.3901
10627TIP3    H253373   5.915   2.082  11.430 -0.4347  2.2688 -0.2097
10628TIP3   OH253374   4.698   4.248   2.243  0.1272 -0.4974 -0.3211
10628TIP3    H153375   4.661   4.330   2.276  1.7991 -0.5368  1.8626
10628TIP3    H253376   4.635   4.181   2.271 -1.2225 -0.0445 -2.0781
10629TIP3   OH253377   4.022   6.485   4.350 -0.1750  0.7653  0.2965
10629TIP3    H153378   3.954   6.487   4.417 -0.5370  0.5537 -0.0571
10629TIP3    H253379   4.074   6.407   4.369 -2.6370 -1.6309 -1.9204
10630TIP3   OH253380   5.257   5.546   4.203 -0.3322  0.1549 -0.2355
10630TIP3    H153381   5.310   5.570   4.127 -0.2479 -0.0880 -0.2544
10630TIP3    H253382   5.173   5.589   4.187  0.0561  1.0384  0.0981
10631TIP3   OH253383   3.518   0.285  16.107 -0.0872  0.2070  0.4705
10631TIP3    H153384   3.503   0.227  16.033 -0.4465  0.2994  0.4697
10631TIP3    H253385   3.612   0.306  16.102 -0.2194  0.6495 -0.2784
10632TIP3   OH253386   6.466   3.508  12.089 -0.3879  0.0526 -0.4125
10632TIP3    H153387   6.506   3.595  12.085 -0.3166  0.0026 -0.7835
10632TIP3    H253388   6.459   3.480  11.998  1.1909 -1.0602 -0.2394
10633TIP3   OH253389   1.164   6.417   4.516 -0.6390  0.0079  0.0982
10633TIP3    H153390   1.089   6.360   4.532 -0.3387 -0.2596  0.5580
10633TIP3    H253391   1.237   6.358   4.499  0.2156  0.1524  2.8731
10634TIP3   OH253392   5.491   5.303  14.727  0.5042  0.0312 -0.5763
10634TIP3    H153393   5.483   5.374  14.791  0.7311 -0.8481  0.4459
10634TIP3    H253394   5.416   5.246  14.744  0.6966 -0.3341 -0.9324
10635TIP3   OH253395   4.965   4.269  14.651 -0.0575 -0.1791  0.8095
10635TIP3    H153396   5.026   4.196  14.661  0.7019  0.0461 -1.6703
10635TIP3    H253397   5.012   4.345  14.684  1.0136 -0.0266 -0.9878
10636TIP3   OH253398   6.008   2.133   3.346  0.6902 -0.4087  0.3521
10636TIP3    H153399   6.041   2.052   3.385 -0.2974 -0.6292  0.7802
10636TIP3    H253400   5.927   2.107   3.303  1.4102 -0.0270 -1.2929
10637TIP3   OH253401   1.160   0.889   2.346  0.3185  0.7068  0.7026
10637TIP3    H153402   1.196   0.814   2.298 -1.0525  0.7369 -0.4104
10637TIP3    H253403   1.220   0.899   2.421  3.2337  1.3946 -1.5323
10638TIP3   OH253404   5.050   6.508  13.234  0.0811  0.2144 -0.1744
10638TIP3    H153405   5.080   6.595  13.209  0.8689 -0.2024 -0.7524
10638TIP3    H253406   5.110   6.449  13.189 -1.9759 -0.7006 -1.8992
10639TIP3   OH253407   1.505   1.385   1.617  0.0758 -0.2933 -0.5049
10639TIP3    H153408   1.546   1.449   1.558  0.2459  0.8423  0.8094
10639TIP3    H253409   1.420   1.367   1.576 -1.1089  2.7298  0.3064
10640TIP3   OH253410   4.163   2.475   4.597 -0.1528  0.0508 -0.6437
10640TIP3    H153411   4.198   2.489   4.685 -0.9094 -3.6154  0.3802
10640TIP3    H253412   4.085   2.531   4.594 -0.5497 -0.3069  1.3600
10641TIP3   OH253413   3.417   3.422  13.534  0.2899 -0.0134 -0.4139
10641TIP3    H153414   3.430   3.505  13.488 -0.4391  0.3563  0.0426
10641TIP3    H253415   3.417   3.445  13.627 -0.5920 -0.4267 -0.3043
10642TIP3   OH253416   4.707   0.664  11.502 -0.2988  0.4087 -0.0810
10642TIP3    H153417   4.681   0.756  11.500  0.0704  0.5149 -0.1597
10642TIP3    H253418   4.673   0.631  11.585  1.7838  1.2946  1.2084
10643TIP3   OH253419   6.073   4.335  16.515 -0.9386  0.1012  0.4553
10643TIP3    H153420   6.001   4.370  16.567 -1.9338  0.8140 -1.3055
10643TIP3    H253421   6.046   4.350  16.424  1.2961  0.0869 -0.2593
10644TIP3   OH253422   1.710   0.533   1.020  0.3435 -0.4200 -0.3938
10644TIP3    H153423   1.683   0.619   1.052 -0.3026  0.5258 -3.2010
10644TIP3    H253424   1.760   0.495   1.093 -1.0339  1.4619  1.6699
10645TIP3   OH253425   2.177   4.874  12.363 -0.2759 -0.3678 -0.0518
10645TIP3    H153426   2.227   4.913  12.291 -2.2821  0.1851 -1.2333
10645TIP3    H253427   2.139   4.795  12.325 -0.5440 -0.6286  0.7379
10646TIP3   OH253428   3.519   3.690  12.832 -1.0756  0.7557  0.3378
10646TIP3    H153429   3.569   3.732  12.762 -0.6303 -1.1036 -0.5422
10646TIP3    H253430   3.573   3.701  12.910 -0.0129  0.1369 -0.2797
10647TIP3   OH253431   2.027   0.107   2.917 -0.5153  0.1594  0.0644
10647TIP3    H153432   2.122   0.104   2.906 -0.6805 -1.5058 -1.3629
10647TIP3    H253433   2.005   0.022   2.956 -1.5372 -0.0934 -0.9938
10648TIP3   OH253434   5.940   3.960  15.060  0.0174  0.6067 -0.5353
10648TIP3    H153435   6.015   3.910  15.094  0.7491  0.2049 -2.5759
10648TIP3    H253436   5.887   3.979  15.137  1.8834  0.3399  0.9003
10649TIP3   OH253437   1.472   5.232  15.895  0.3045 -0.1491  0.6557
10649TIP3    H153438   1.381   5.237  15.923 -0.0068  2.0976 -0.5086
10649TIP3    H253439   1.483   5.305  15.834  1.9204 -2.4499 -2.0819
10650TIP3   OH253440   0.775   1.431   5.260 -0.4410 -0.3767 -0.1419
10650TIP3    H153441   0.728   1.371   5.318 -0.8825  0.3009  0.2159
10650TIP3    H253442   0.766   1.392   5.173  1.5036 -2.2100  0.3904
10651TIP3   OH253443   5.692   2.030   5.875  0.0447 -0.2377 -0.3182
10651TIP3    H153444   5.711   1.963   5.809 -2.1744 -0.1853 -1.1140
10651TIP3    H253445   5.615   1.997   5.920  0.5879  0.4980  1.1910
10652TIP3   OH253446   0.690   5.408   4.381 -0.1202  0.6855 -0.1501
10652TIP3    H153447   0.638   5.473   4.427 -0.9678 -0.3906  0.4700
10652TIP3    H253448   0.676   5.427   4.288 -3.5698 -0.9228 -0.1271
10653TIP3   OH253449   0.613   0.002   0.085  0.7260 -0.3988  0.0762
10653TIP3    H153450   0.585  -0.082   0.122  1.0644  0.5500  2.6898
10653TIP3    H253451   0.539   0.031   0.032  0.4997 -2.1828 -0.6567
10654TIP3   OH253452   5.381   2.739   3.737 -0.2574  0.0864 -0.2999
10654TIP3    H153453   5.403   2.832   3.726 -1.0248  0.1885 -1.0855
10654TIP3    H253454   5.461   2.692   3.713 -0.0041  0.5270 -0.3246
10655TIP3   OH253455   5.810   6.243   1.750 -0.3614 -0.4748 -0.4370
10655TIP3    H153456   5.812   6.330   1.791  0.2674 -1.8140  2.7044
10655TIP3    H253457   5.902   6.217   1.745 -0.6235 -1.9139  1.1151
10656TIP3   OH253458   2.146   0.548  13.024 -0.3876  0.0747 -0.0863
10656TIP3    H153459   2.164   0.455  13.042 -1.0317 -0.2957 -1.2441
10656TIP3    H253460   2.191   0.565  12.941  1.6864  1.4549  1.2621
10657TIP3   OH253461   5.863   6.071   4.257 -0.4752 -0.8722  0.5091
10657TIP3    H153462   5.817   6.153   4.244  1.0690 -0.2305 -1.2412
10657TIP3    H253463   5.931   6.091   4.321 -0.2988 -0.8692  0.3211
10658TIP3   OH253464   6.280   2.465   3.309  0.2584 -0.3478 -0.3982
10658TIP3    H153465   6.246   2.411   3.380 -0.9105  0.5207 -0.2705
10658TIP3    H253466   6.371   2.481   3.332 -0.0622 -0.1981  0.8415
10659TIP3   OH253467   5.153   5.069   0.984 -0.5176 -0.1331  0.2767
10659TIP3    H153468   5.130   5.113   1.065 -1.2625  2.2788 -1.1472
10659TIP3    H253469   5.246   5.089   0.971 -0.8849  1.3048 -0.4374
10660TIP3   OH253470   5.826   0.987   5.963 -0.1988 -0.1887 -0.1011
10660TIP3    H153471   5.898   0.927   5.946  0.4905  0.8172 -0.8825
10660TIP3    H253472   5.865   1.074   5.954 -1.3423  0.3791  0.2200
10661TIP3   OH253473   6.057   0.159   0.209  0.2982 -0.7758 -0.0842
10661TIP3    H153474   6.011   0.095   0.154  0.9917 -0.9425 -0.4832
10661TIP3    H253475   6.092   0.223   0.147  0.6110 -0.6582  0.2113
10662TIP3   OH253476   2.306   2.205   1.378  0.1919  0.0915 -0.0605
10662TIP3    H153477   2.236   2.200   1.443  0.4599  1.8123  0.4009
10662TIP3    H253478   2.268   2.253   1.305  0.5154 -0.0849 -0.3474
10663TIP3   OH253479   5.250   1.263  15.934  0.0146  0.3274  0.2835
10663TIP3    H153480   5.200   1.313  15.870  0.3645  2.0980  1.3131
10663TIP3    H253481   5.184   1.217  15.985 -0.2389 -1.7251 -1.7422
10664TIP3   OH253482   1.354   6.316  15.447 -0.2123 -0.3235 -0.1939
10664TIP3    H153483   1.408   6.245  15.481  0.3116  0.3824  0.5099
10664TIP3    H253484   1.340   6.295  15.355  1.7879 -0.2272 -0.5642
10665TIP3   OH253485   6.545   1.831   2.773  0.1915 -0.0410 -0.1477
10665TIP3    H153486   6.601   1.805   2.699  0.6366  0.3929  0.0270
10665TIP3    H253487   6.605   1.877   2.832 -0.8051  2.8479 -1.1843
10666TIP3   OH253488   2.982   5.333   4.951 -0.4788 -0.2282  0.2544
10666TIP3    H153489   2.984   5.424   4.922 -1.5065 -0.3905 -0.3977
10666TIP3    H253490   3.039   5.286   4.890 -0.1655 -0.0570  0.4203
10667TIP3   OH253491   5.456   2.684  12.477 -0.3751  0.4016 -0.0846
10667TIP3    H153492   5.361   2.685  12.489 -0.3929 -1.2046  0.1570
10667TIP3    H253493   5.478   2.592  12.463  0.8264  1.0306 -3.1605
10668TIP3   OH253494   4.235   0.629  12.406  0.3204  0.3344  0.0267
10668TIP3    H153495   4.219   0.699  12.470  1.0245 -0.0489  0.6363
10668TIP3    H253496   4.304   0.576  12.446  0.6391 -0.0180 -0.9745
10669TIP3   OH253497   6.095   3.758  16.599  0.2952  0.5960  0.8952
10669TIP3    H153498   6.008   3.759  16.561  0.8630 -0.0111 -0.4753
10669TIP3    H253499   6.106   3.845  16.637 -0.9480  0.6276  1.2219
10670TIP3   OH253500   5.333   4.117   6.265 -0.3898  0.2435 -0.6697
10670TIP3    H153501   5.361   4.171   6.339 -1.2421 -0.5691  0.2792
10670TIP3    H253502   5.241   4.142   6.250 -1.0215 -1.3566  0.2329
10671TIP3   OH253503   3.057   5.004  14.990 -0.1472  0.1337 -0.0633
10671TIP3    H153504   3.062   5.048  14.905 -0.9061  0.9939  0.3253
10671TIP3    H253505   2.977   5.038  15.030  0.9439  0.8657  1.6118
10672TIP3   OH253506   5.431   3.240  14.816  0.3633 -0.7667 -0.0317
10672TIP3    H153507   5.365   3.290  14.769  2.2820  0.3496 -1.7441
10672TIP3    H253508   5.494   3.305  14.847  0.0538 -1.6523  2.7167
10673TIP3   OH253509   2.898   6.257  14.805  0.3052  0.2104 -0.5038
10673TIP3    H153510   2.838   6.305  14.862  1.0197  0.5960 -0.0610
10673TIP3    H253511   2.982   6.260  14.851  0.2510 -1.9627 -0.1810
10674TIP3   OH253512   2.233   4.014  12.016  0.1046  0.0034 -0.2226
10674TIP3    H153513   2.162   3.952  12.032  0.8420 -1.0828 -1.0020
10674TIP3    H253514   2.287   4.009  12.095  1.2365 -1.8935 -1.0408
10675TIP3   OH253515   1.724   5.411  11.386 -0.5510 -0.1837  0.0809
10675TIP3    H153516   1.677   5.328  11.381 -0.7419 -0.1726  1.3626
10675TIP3    H253517   1.724   5.433  11.479  0.8564  0.4682 -0.0412
10676TIP3   OH253518   1.237   3.583  14.846  0.2959  0.1829  0.4291
10676TIP3    H153519   1.281   3.631  14.776 -3.2521  0.6647 -1.6868
10676TIP3    H253520   1.252   3.491  14.825  1.3985  0.3109  0.5804
10677TIP3   OH253521   1.738   3.976  16.344  0.0505  0.5431  0.3605
10677TIP3    H153522   1.657   4.002  16.388  0.9511  1.7825  1.3748
10677TIP3    H253523   1.721   3.991  16.251 -0.6548  1.5059  0.6295
10678TIP3   OH253524   2.880   1.412   3.105  0.2100  0.0826  0.8510
10678TIP3    H153525   2.801   1.460   3.132  0.0426  0.6391 -0.5510
10678TIP3    H253526   2.854   1.364   3.027  0.7854 -1.1845  1.4071
10679TIP3   OH253527   4.500   1.931   4.252 -0.0207 -0.5313 -0.3462
10679TIP3    H153528   4.489   2.021   4.282 -0.1450 -0.9866  1.0663
10679TIP3    H253529   4.413   1.891   4.265 -0.4487 -0.4376 -2.5517
10680TIP3   OH253530   1.683   0.075   5.234 -0.3287 -0.5556  0.5204
10680TIP3    H153531   1.660   0.164   5.260 -2.1623 -0.0154 -2.4701
10680TIP3    H253532   1.622   0.019   5.282 -1.7597  0.1492 -0.4316
10681TIP3   OH253533   3.997   4.911  13.428  0.6535 -0.0853  0.4522
10681TIP3    H153534   4.018   4.819  13.443 -0.1804 -0.8549 -2.3912
10681TIP3    H253535   3.910   4.922  13.465  1.1630 -0.1363  1.7013
10682TIP3   OH253536   1.061   5.140  16.420  0.3376 -0.1027  0.3121
10682TIP3    H153537   1.112   5.152  16.500  0.8319 -0.2697  0.0253
10682TIP3    H253538   0.992   5.206  16.425  0.4017 -0.0742  0.8479
10683TIP3   OH253539   4.111   4.227   4.531 -0.1018 -0.0928  0.2406
10683TIP3    H153540   4.078   4.136   4.532 -2.0662  0.5243  2.3226
10683TIP3    H253541   4.033   4.280   4.513  0.8148  1.2454  0.0864
10684TIP3   OH253542   2.358   5.224  13.996 -0.3262  0.1515 -0.2886
10684TIP3    H153543   2.321   5.159  13.937 -2.9732  0.3090  1.0470
10684TIP3    H253544   2.301   5.221  14.073  1.1045  2.1578  0.9351
10685TIP3   OH253545   1.173   3.064  12.934  0.3143 -0.8990 -0.4700
10685TIP3    H153546   1.157   2.990  12.993  1.5479 -3.5454 -3.1604
10685TIP3    H253547   1.239   3.116  12.979 -0.2311 -1.6756  1.3240
10686TIP3   OH253548   6.628   3.713   0.945  0.5176 -0.5850  1.1028
10686TIP3    H153549   6.686   3.699   0.870  0.9336 -1.8087  1.6217
10686TIP3    H253550   6.577   3.790   0.922  0.7254 -0.8655 -0.3890
10687TIP3   OH253551   5.556   6.065   3.014  0.3888 -0.6450  0.2740
10687TIP3    H153552   5.492   6.091   3.080  0.4369  0.9899 -0.2767
10687TIP3    H253553   5.632   6.036   3.065  0.8279  1.6087  1.0296
10688TIP3   OH253554   2.703   6.388  14.937  0.1064  0.9310 -0.1346
10688TIP3    H153555   2.614   6.369  14.966  0.1458  1.4682  0.3487
10688TIP3    H253556   2.719   6.478  14.964  0.3491  1.2746 -1.3313
10689TIP3   OH253557   5.849   5.727  12.287  0.3457  0.7793  0.0770
10689TIP3    H153558   5.859   5.645  12.334  0.8577  0.8482  0.0943
10689TIP3    H253559   5.915   5.724  12.218 -0.3742  0.6984 -0.6130
10690TIP3   OH253560   6.571   3.046  14.879  0.2802  0.3578  0.8668
10690TIP3    H153561   6.615   3.110  14.822  0.8398  0.4473  1.3835
10690TIP3    H253562   6.478   3.065  14.870  0.2259 -0.5419 -1.1160
10691TIP3   OH253563   1.755   3.372  13.428  0.2201  0.8125  0.0835
10691TIP3    H153564   1.680   3.338  13.477  0.7346 -0.4466  0.0341
10691TIP3    H253565   1.819   3.397  13.495  1.2072 -1.5572  0.1412
10692TIP3   OH253566   5.971   6.358   3.900  0.1981  0.4417  0.7912
10692TIP3    H153567   6.003   6.436   3.944  2.0566 -0.1162  0.5261
10692TIP3    H253568   5.986   6.374   3.807  0.5652 -0.1933  0.7304
10693TIP3   OH253569   1.751   4.923   1.072 -0.0412 -0.3204 -0.0966
10693TIP3    H153570   1.700   4.898   1.149  0.0482  1.5024  0.6069
10693TIP3    H253571   1.692   4.907   0.998 -0.5052 -1.1266  0.4375
10694TIP3   OH253572   4.081   2.107  13.603 -0.6552 -0.0695 -0.1201
10694TIP3    H153573   4.043   2.075  13.521 -1.3654  0.1072  0.1273
10694TIP3    H253574   4.175   2.092  13.594 -0.9851 -3.2269  0.3636
10695TIP3   OH253575   0.568   1.281   5.444 -0.7199  0.1331 -0.0945
10695TIP3    H153576   0.550   1.241   5.358 -0.4095 -0.7146  0.2197
10695TIP3    H253577   0.487   1.273   5.492 -0.7811  0.2645 -0.1742
10696TIP3   OH253578   5.867   5.985  12.433 -0.6062 -0.2184 -0.0666
10696TIP3    H153579   5.867   5.905  12.380  2.2265  0.7597 -1.7733
10696TIP3    H253580   5.890   5.956  12.521 -0.4451 -1.3453 -0.4619
10697TIP3   OH253581   4.942   3.098   1.160  0.6636 -0.1727  0.3573
10697TIP3    H153582   4.991   3.028   1.202  1.4073  0.1514  0.0571
10697TIP3    H253583   4.998   3.126   1.088  0.1502  0.3879  0.1692
10698TIP3   OH253584   1.059   3.091   5.862  0.0159 -0.5281  0.6846
10698TIP3    H153585   1.018   3.128   5.785 -1.3512  1.0380  2.0948
10698TIP3    H253586   1.022   3.003   5.870  1.4090 -1.3725 -1.2829
10699TIP3   OH253587   1.050   3.912  12.202 -0.2005  0.7813 -0.3852
10699TIP3    H153588   0.970   3.863  12.217  0.4609 -0.0860  0.3805
10699TIP3    H253589   1.027   4.003  12.222 -1.1208  0.6192 -0.6892
10700TIP3   OH253590   0.517   4.248   2.160 -0.1890  0.6094 -0.9876
10700TIP3    H153591   0.536   4.339   2.181 -2.2254  1.2830 -1.8520
10700TIP3    H253592   0.593   4.199   2.193  0.6639  2.5269  0.0183
10701TIP3   OH253593   2.960   0.645   0.885  0.0616 -0.0947  0.4665
10701TIP3    H153594   2.910   0.636   0.804 -0.4400  0.3726  0.7190
10701TIP3    H253595   3.012   0.564   0.890 -0.8342 -0.7023  0.3123
10702TIP3   OH253596   5.338   3.868   4.750 -0.1305  0.2853  0.2635
10702TIP3    H153597   5.255   3.823   4.737  0.9911 -1.7249 -0.4990
10702TIP3    H253598   5.404   3.802   4.728  1.6784  1.6433  1.3323
10703TIP3   OH253599   5.442   1.270   1.004  0.0273  0.1966  0.2455
10703TIP3    H153600   5.479   1.211   0.939  0.8744  1.8594 -0.8328
10703TIP3    H253601   5.419   1.213   1.078  2.2221 -1.2775 -0.1278
10704TIP3   OH253602   3.371   5.233   5.028  0.1994  0.4073 -0.0411
10704TIP3    H153603   3.447   5.242   5.085  0.1470 -0.4927  0.1826
10704TIP3    H253604   3.305   5.189   5.082  0.0631 -0.2306 -0.7116
10705TIP3   OH253605   6.337   3.599   0.204 -1.1682 -0.1203 -0.3532
10705TIP3    H153606   6.307   3.654   0.132 -2.4940 -0.2994  0.0350
10705TIP3    H253607   6.312   3.647   0.283 -0.2935 -0.2238 -0.0052
10706TIP3   OH253608   1.134   1.061  12.433  0.0238 -0.4045  0.5378
10706TIP3    H153609   1.137   1.148  12.474 -2.9602 -0.3147  0.7393
10706TIP3    H253610   1.226   1.033  12.431  0.6685  0.4346  5.4406
10707TIP3   OH253611   4.804   5.398  16.224  0.0411  0.7276 -0.6235
10707TIP3    H153612   4.751   5.343  16.282  1.4726 -1.7863 -1.5547
10707TIP3    H253613   4.740   5.433  16.161 -1.0425  0.9316  0.5382
10708TIP3   OH253614   1.392   3.544  13.232 -0.4576 -0.2046 -0.3621
10708TIP3    H153615   1.376   3.489  13.309  0.3497 -0.7026 -0.5472
10708TIP3    H253616   1.307   3.550  13.189 -0.4877 -1.6029 -0.5329
10709TIP3   OH253617   0.542   0.982  13.450 -0.4245 -0.2594  0.0390
10709TIP3    H153618   0.596   1.061  13.457 -1.0346  0.2760 -0.9792
10709TIP3    H253619   0.527   0.955  13.540  0.2058  0.5147  0.3876
10710TIP3   OH253620   6.547   5.565   5.714 -0.0439  0.1539 -0.2552
10710TIP3    H153621   6.495   5.610   5.781 -1.0469  2.0495 -2.1571
10710TIP3    H253622   6.482   5.520   5.660  0.6507 -0.5534 -0.5074
10711TIP3   OH253623   6.161   4.914  10.882 -0.2603 -0.7005 -0.1550
10711TIP3    H153624   6.199   4.835  10.845 -1.2595 -1.4835  0.4301
10711TIP3    H253625   6.106   4.949  10.812  1.0478  0.1218 -0.8036
10712TIP3   OH253626   6.047   5.947   4.036 -0.3374  0.0284 -0.1145
10712TIP3    H153627   6.096   6.024   4.006  0.1144 -0.3016 -0.2208
10712TIP3    H253628   5.990   5.981   4.105  0.4846  0.3039  0.4431
10713TIP3   OH253629   0.930   0.274  12.448  0.1013 -0.4281  0.4765
10713TIP3    H153630   0.938   0.368  12.430  0.3056 -0.3816  0.7932
10713TIP3    H253631   0.982   0.261  12.527 -3.0500 -0.0834  2.8098
10714TIP3   OH253632   0.004   5.844   5.427 -0.3606 -0.4549  0.0405
10714TIP3    H153633   0.013   5.755   5.461 -1.1643 -0.9399 -0.9524
10714TIP3    H253634  -0.089   5.865   5.439  0.0187  0.6825  1.2360
10715TIP3   OH253635   4.541   2.579   1.381 -0.1393  0.2276 -0.1082
10715TIP3    H153636   4.595   2.554   1.456  0.4071 -0.4288 -0.7015
10715TIP3    H253637   4.533   2.499   1.329 -0.0856  0.7829 -1.0076
10716TIP3   OH253638   3.697   4.890   0.706 -0.0045  0.6629  0.3291
10716TIP3    H153639   3.629   4.894   0.639  0.0757  0.5828  0.2448
10716TIP3    H253640   3.714   4.797   0.718  1.1191  0.7324 -0.6737
10717TIP3   OH253641   2.434   3.249   2.121 -0.1701 -0.1950 -0.0547
10717TIP3    H153642   2.367   3.315   2.100 -0.9306 -0.6624  0.8176
10717TIP3    H253643   2.474   3.281   2.201 -2.1099 -1.8529  1.7011
10718TIP3   OH253644   6.375   5.857   6.474 -0.2788  0.0685  0.5382
10718TIP3    H153645   6.392   5.945   6.439 -2.7416  1.2222  1.9222
10718TIP3    H253646   6.461   5.815   6.478  0.6144  1.0347 -3.4843
10719TIP3   OH253647   5.910   2.479  13.430 -0.3607 -0.6483  0.3186
10719TIP3    H153648   5.875   2.545  13.490 -1.0920  0.9063 -1.7053
10719TIP3    H253649   5.836   2.421  13.414 -0.9480  0.3865 -0.9367
10720TIP3   OH253650   4.053   3.765  16.196  0.6934  0.0267 -0.4682
10720TIP3    H153651   4.017   3.833  16.140 -1.4295 -0.2747  0.4351
10720TIP3    H253652   4.016   3.683  16.162  1.6515 -0.4657 -0.3562
10721TIP3   OH253653   3.964   5.790  13.672 -0.1665  0.4900 -0.8098
10721TIP3    H153654   4.005   5.713  13.634  3.5907  1.3073  1.1078
10721TIP3    H253655   3.938   5.762  13.760 -0.3670  0.9854 -0.7067
10722TIP3   OH253656   5.847   5.177  14.291 -0.1986 -0.7131  0.3753
10722TIP3    H153657   5.826   5.269  14.282  1.2782 -0.5336 -2.1517
10722TIP3    H253658   5.880   5.168  14.380  0.1352  1.2895  0.4841
10723TIP3   OH253659   4.323   0.924   2.706  0.0143  0.1579 -0.2872
10723TIP3    H153660   4.416   0.948   2.700 -0.1466  0.8728  0.0128
10723TIP3    H253661   4.277   1.000   2.672 -0.4117 -0.9534 -2.3548
10724TIP3   OH253662   3.268   3.714  14.197 -0.0117 -0.5362 -0.8878
10724TIP3    H153663   3.342   3.653  14.195  0.7645  0.2629  0.9313
10724TIP3    H253664   3.296   3.787  14.141  1.4532  0.6040  1.1770
10725TIP3   OH253665   6.388   3.918  16.704 -0.0206 -0.4489 -0.4151
10725TIP3    H153666   6.352   3.973  16.634  1.1230  0.0695 -0.6244
10725TIP3    H253667   6.376   3.829  16.673 -2.3196 -0.4042  0.1270
10726TIP3   OH253668   0.102   4.245  14.324 -0.4541 -0.8265 -0.4717
10726TIP3    H153669   0.145   4.214  14.403  0.2719 -0.3485 -0.6636
10726TIP3    H253670   0.021   4.287  14.355 -1.0119 -2.1053 -0.1460
10727TIP3   OH253671   5.087   5.420   4.426 -0.1467 -0.6813  0.2329
10727TIP3    H153672   5.003   5.417   4.381 -0.0986 -0.4483  0.1269
10727TIP3    H253673   5.132   5.341   4.398 -0.1335 -0.5575 -0.0993
10728TIP3   OH253674   0.583   5.556   4.178 -0.0454 -0.2346  0.2676
10728TIP3    H153675   0.663   5.599   4.148  0.5674  0.0792  2.2644
10728TIP3    H253676   0.514   5.620   4.159  0.2739 -0.1207 -0.5969
10729TIP3   OH253677   4.362   6.312  12.295  0.4538  0.3120  0.1853
10729TIP3    H153678   4.448   6.326  12.256 -0.7836  0.9800 -2.5305
10729TIP3    H253679   4.320   6.398  12.293 -1.1764 -0.4492 -1.0252
10730TIP3   OH253680   4.699   1.215  13.074 -0.1788 -0.0608 -0.7984
10730TIP3    H153681   4.762   1.143  13.083 -0.2269 -0.2554 -1.8518
10730TIP3    H253682   4.751   1.294  13.088  0.6593 -0.1374 -2.9918
10731TIP3   OH253683   0.006   0.891   1.139 -0.3800  0.1563  0.2873
10731TIP3    H153684   0.069   0.842   1.193 -0.1008  0.2936  0.0882
10731TIP3    H253685  -0.028   0.958   1.197 -0.0801  0.3031  0.2978
10732TIP3   OH253686   2.904   1.744  15.308 -0.7045 -0.6063 -0.4374
10732TIP3    H153687   2.960   1.716  15.381 -0.4709  1.7263  0.3488
10732TIP3    H253688   2.824   1.692  15.319  0.1422 -1.8329  0.1867
10733TIP3   OH253689   2.763   4.803   5.440  0.1606  0.1011 -0.2575
10733TIP3    H153690   2.714   4.876   5.477  1.0459  0.7726 -0.3847
10733TIP3    H253691   2.711   4.775   5.364  0.3542  1.2993 -0.8480
10734TIP3   OH253692   1.960   6.069   3.754  0.4256 -0.2301  0.0698
10734TIP3    H153693   1.986   5.977   3.753  1.9610  0.1738  0.1267
10734TIP3    H253694   2.009   6.109   3.682  0.3563  0.6782  0.5077
10735TIP3   OH253695   3.543   1.503   6.029 -0.2738 -0.0825  0.3016
10735TIP3    H153696   3.553   1.499   6.124  1.0516 -0.5968  0.1534
10735TIP3    H253697   3.463   1.554   6.016  0.4226  1.4468  1.6601
10736TIP3   OH253698   3.177   3.113   6.012  0.7872  0.5983  0.6315
10736TIP3    H153699   3.173   3.025   6.048  2.4607  0.6255  0.9451
10736TIP3    H253700   3.105   3.160   6.055  0.5697 -0.3076  1.2857
10737TIP3   OH253701   3.921   2.595  12.268 -0.3797  0.0251 -0.8918
10737TIP3    H153702   3.895   2.686  12.255  1.2965  0.4892 -1.2260
10737TIP3    H253703   3.859   2.544  12.215 -2.0406  0.8378  0.1675
10738TIP3   OH253704   3.590   5.697   3.689  0.1247 -0.6497  0.5557
10738TIP3    H153705   3.604   5.705   3.594  0.9589  0.4907  0.7499
10738TIP3    H253706   3.498   5.675   3.698  0.5922 -3.5606 -0.6316
10739TIP3   OH253707   2.669   1.683   1.643 -0.4952  0.1190  0.3608
10739TIP3    H153708   2.724   1.759   1.622  2.1454 -1.6578  0.3755
10739TIP3    H253709   2.624   1.663   1.561 -0.4628  1.0872  0.0880
10740TIP3   OH253710   0.602   5.497  16.282 -0.1569 -0.4843  0.2661
10740TIP3    H153711   0.534   5.555  16.248 -1.2886 -1.0645  1.4356
10740TIP3    H253712   0.669   5.496  16.214 -1.9013 -0.9100 -1.5556
10741TIP3   OH253713   1.817   6.395   2.051  0.1339  0.0044  1.0939
10741TIP3    H153714   1.895   6.437   2.088 -0.4003  0.5777  1.6030
10741TIP3    H253715   1.782   6.460   1.990  0.9030 -0.8657 -0.3040
10742TIP3   OH253716   4.190   2.491  15.892  1.1297 -0.5442  0.7148
10742TIP3    H153717   4.136   2.438  15.834  2.1477 -0.7421 -0.0953
10742TIP3    H253718   4.255   2.531  15.833  0.2780  1.7742  1.2422
10743TIP3   OH253719   2.336   1.605   4.473  0.4687 -0.0356  0.6254
10743TIP3    H153720   2.272   1.656   4.424  1.9178  0.9269 -0.3511
10743TIP3    H253721   2.317   1.624   4.565 -0.7753  0.0390  0.3692
10744TIP3   OH253722   1.209   1.882   2.770 -0.0774  0.2469 -0.0795
10744TIP3    H153723   1.304   1.875   2.778 -0.0002  0.0814 -0.9684
10744TIP3    H253724   1.191   1.976   2.770 -0.2853  0.3301  3.5289
10745TIP3   OH253725   2.977   6.037  13.472 -0.1797  0.2150 -0.0918
10745TIP3    H153726   3.040   5.994  13.415  0.3611 -0.7036  1.1443
10745TIP3    H253727   2.903   6.058  13.415  0.0884 -1.2010 -1.0141
10746TIP3   OH253728   1.459   5.842   6.264  0.1255 -0.5371  0.7714
10746TIP3    H153729   1.502   5.880   6.188  0.1693  0.6897  1.3830
10746TIP3    H253730   1.523   5.852   6.335 -1.0081  1.1031  1.6404
10747TIP3   OH253731   0.024   2.054   4.040  0.2593  0.6749 -0.3323
10747TIP3    H153732  -0.056   2.099   4.013  0.7188  1.5705 -0.2461
10747TIP3    H253733   0.083   2.063   3.965 -0.4199 -1.8627 -1.2723
10748TIP3   OH253734   2.084   3.104   3.761  0.3145 -0.0131  0.0683
10748TIP3    H153735   2.117   3.137   3.677  3.6855 -1.1831  0.7409
10748TIP3    H253736   2.021   3.036   3.737  2.0058 -1.1090 -1.6742
10749TIP3   OH253737   1.258   6.036  15.550  0.2706  0.6979  0.0271
10749TIP3    H153738   1.202   6.111  15.530 -0.0378  0.7984  1.1934
10749TIP3    H253739   1.267   6.037  15.645 -0.1298 -1.0274  0.1253
10750TIP3   OH253740   0.338   0.944  16.584 -0.4179  0.5620  0.0359
10750TIP3    H153741   0.323   0.912  16.495  2.4260 -0.1562 -0.2822
10750TIP3    H253742   0.352   1.039  16.573 -2.1843  0.8675  0.0749
10751TIP3   OH253743   1.127   4.560  11.825  0.2986  0.1966 -0.3359
10751TIP3    H153744   1.177   4.537  11.746  1.2940  0.6136  0.1483
10751TIP3    H253745   1.139   4.654  11.833 -1.4061  0.4773 -0.7376
10752TIP3   OH253746   1.756   1.959  12.631 -0.4468 -0.0161 -0.4282
10752TIP3    H153747   1.714   1.984  12.549 -0.1176 -0.0881 -0.6213
10752TIP3    H253748   1.751   1.864  12.633  0.3935 -0.0828 -0.8327
10753TIP3   OH253749   3.780   5.449   0.039 -0.4315  0.2070 -0.2075
10753TIP3    H153750   3.800   5.528  -0.012  0.0951 -0.2439 -0.7220
10753TIP3    H253751   3.816   5.377  -0.014 -2.2118 -0.5215 -0.4824
10754TIP3   OH253752   0.216   2.689   1.029  0.0499  0.0252 -0.2670
10754TIP3    H153753   0.215   2.600   0.994  0.5992 -0.7132  1.4544
10754TIP3    H253754   0.180   2.680   1.117  1.4923  1.2277  0.4896
10755TIP3   OH253755   3.993   0.055   5.305 -0.7403 -0.0460  0.1895
10755TIP3    H153756   4.005  -0.002   5.228 -2.5395 -0.2572  0.0324
10755TIP3    H253757   3.901   0.045   5.328 -0.8020  1.8591  0.9381
10756TIP3   OH253758   2.337   6.594   2.097 -0.1643  0.4162  0.8814
10756TIP3    H153759   2.403   6.659   2.121  2.4729 -0.5455 -2.8400
10756TIP3    H253760   2.299   6.628   2.015 -1.6850 -0.8197  1.0278
10757TIP3   OH253761   0.649   4.107   2.694  0.0307 -0.2825 -0.2137
10757TIP3    H153762   0.577   4.100   2.631 -0.7549  0.9020  0.5001
10757TIP3    H253763   0.715   4.045   2.663 -1.4510 -1.6907 -0.7000
10758TIP3   OH253764   2.908   0.211   3.834 -0.1041 -0.6310 -0.4607
10758TIP3    H153765   2.954   0.180   3.912  2.0471  0.7982 -1.0773
10758TIP3    H253766   2.972   0.202   3.764 -1.8632 -1.5129 -2.0420
10759TIP3   OH253767   1.277   4.748   0.254 -0.4116  0.1752 -0.6724
10759TIP3    H153768   1.314   4.774   0.170 -1.5446  1.3817 -0.8337
10759TIP3    H253769   1.191   4.789   0.256 -2.1228 -3.1532 -0.6415
10760TIP3   OH253770   5.102   0.332   2.302  0.3543  0.7653 -0.0741
10760TIP3    H153771   5.037   0.379   2.251  0.2944  0.6107 -0.1409
10760TIP3    H253772   5.128   0.259   2.246  1.4753  1.5015 -0.5640
10761TIP3   OH253773   5.994   4.540  15.257 -0.4441 -0.4671 -0.0635
10761TIP3    H153774   5.991   4.522  15.163  1.9649  0.8227 -0.4512
10761TIP3    H253775   6.070   4.597  15.269 -1.0638 -0.0496  2.5967
10762TIP3   OH253776   0.169   5.067   3.970 -0.2244  0.0599 -0.0008
10762TIP3    H153777   0.163   5.148   4.021 -3.9723 -0.5683  0.8767
10762TIP3    H253778   0.159   4.997   4.035 -0.0917 -0.9666 -1.0557
10763TIP3   OH253779   0.799   5.579  14.609 -0.4573 -0.2865  0.2354
10763TIP3    H153780   0.758   5.594  14.694  0.3635  1.3180  0.3957
10763TIP3    H253781   0.890   5.608  14.621  0.2107 -1.8736 -0.6601
10764TIP3   OH253782   3.946   0.412  15.884  0.2806  0.3672 -0.0399
10764TIP3    H153783   3.922   0.381  15.797  0.4439 -1.1653  0.4305
10764TIP3    H253784   4.041   0.416  15.884  0.2873  0.2103  0.1247
10765TIP3   OH253785   1.677   4.208   5.323  0.1822 -0.1046 -0.3159
10765TIP3    H153786   1.675   4.279   5.387 -0.1955 -0.0351 -0.4024
10765TIP3    H253787   1.642   4.133   5.370 -2.0539  0.4256 -1.0062
10766TIP3   OH253788   4.324   0.918  14.869 -0.1492  0.7727  0.2437
10766TIP3    H153789   4.407   0.872  14.881 -0.8084 -0.0790  1.8955
10766TIP3    H253790   4.274   0.862  14.810 -0.3356  0.1914  0.9440
10767TIP3   OH253791   6.670   5.829   5.754  0.8431 -0.2633 -0.6790
10767TIP3    H153792   6.658   5.745   5.711 -0.0770 -0.4240 -0.1469
10767TIP3    H253793   6.602   5.885   5.716  0.3566 -0.2607  0.1541
10768TIP3   OH253794   3.459   4.619   3.687 -0.1565 -0.7924 -0.5730
10768TIP3    H153795   3.508   4.683   3.739 -0.7663  0.3939 -1.4258
10768TIP3    H253796   3.378   4.606   3.737  0.1157 -1.1858 -0.2216
10769TIP3   OH253797   4.383   2.819  14.866 -0.0506 -0.0636 -0.9854
10769TIP3    H153798   4.463   2.867  14.887 -0.0482 -0.9512  1.2519
10769TIP3    H253799   4.377   2.824  14.770  1.6990  1.5377 -1.0708
10770TIP3   OH253800   6.199   3.085   5.571  0.6081 -0.0744  0.0069
10770TIP3    H153801   6.236   3.173   5.570  1.3966 -0.2852  2.4649
10770TIP3    H253802   6.271   3.027   5.547  0.3675 -0.1284 -0.5999
10771TIP3   OH253803   4.303   3.037   5.032 -0.4450 -0.3118 -0.6805
10771TIP3    H153804   4.299   2.989   4.949 -1.2306 -1.6244  0.0840
10771TIP3    H253805   4.377   2.998   5.079  0.4643  0.9281 -1.0329
10772TIP3   OH253806   1.176   5.553   2.715  0.5494 -0.4546 -0.1455
10772TIP3    H153807   1.110   5.605   2.669 -0.4802 -2.6174 -1.2687
10772TIP3    H253808   1.240   5.617   2.745 -0.9318  1.5047 -0.9244
10773TIP3   OH253809   3.358   6.214   5.300 -0.0048 -0.5817 -0.6334
10773TIP3    H153810   3.332   6.131   5.340 -0.3867 -1.2521 -2.1805
10773TIP3    H253811   3.453   6.216   5.306  0.0357 -1.3298 -0.9220
10774TIP3   OH253812   5.541   4.516  17.019  0.1550 -0.0971 -0.7387
10774TIP3    H153813   5.574   4.577  17.084 -1.5691  1.1755 -0.9838
10774TIP3    H253814   5.494   4.571  16.956 -2.9685 -1.7211 -0.0697
10775TIP3   OH253815   5.090   5.668  16.242  0.2998  0.1886  0.1784
10775TIP3    H153816   5.057   5.594  16.191  0.8427  0.4372 -0.5508
10775TIP3    H253817   5.065   5.647  16.332 -0.1384 -0.5568 -0.1007
10776TIP3   OH253818   3.600   3.822  13.793  0.4319  0.6326 -0.3711
10776TIP3    H153819   3.608   3.917  13.795 -1.4121  0.8227  0.3719
10776TIP3    H253820   3.528   3.806  13.731 -0.2292 -0.1787  0.5837
10777TIP3   OH253821   3.777   0.232  12.293  0.4148  0.1824 -0.0730
10777TIP3    H153822   3.725   0.222  12.213  1.2485  0.2702 -0.6490
10777TIP3    H253823   3.745   0.313  12.332 -0.7415 -0.4239  0.2629
10778TIP3   OH253824   4.144   2.184   3.509  0.1208 -0.2759  0.1861
10778TIP3    H153825   4.166   2.277   3.507  1.2884 -0.5272  0.5988
10778TIP3    H253826   4.049   2.182   3.515  0.1740  0.9572  3.6472
10779TIP3   OH253827   0.885   0.070   2.226  0.3924 -0.0218  0.0145
10779TIP3    H153828   0.883   0.142   2.289  0.0754 -0.7761  0.8907
10779TIP3    H253829   0.843  -0.003   2.271  0.9232 -0.8366 -0.7643
10780TIP3   OH253830   1.349   1.073   4.956 -0.7057  0.0314  0.3814
10780TIP3    H153831   1.293   0.998   4.977 -2.4486  1.4837  1.1781
10780TIP3    H253832   1.396   1.090   5.038 -1.6210  0.8522  0.7535
10781TIP3   OH253833   5.599   2.327  16.851  0.3215 -0.8158 -0.0488
10781TIP3    H153834   5.515   2.305  16.890 -0.6926 -0.8941 -2.1336
10781TIP3    H253835   5.633   2.244  16.818  1.1293 -0.7466  0.5768
10782TIP3   OH253836   3.336   2.423   1.763 -0.1537  0.1398  0.1453
10782TIP3    H153837   3.289   2.391   1.840  1.9278  0.8392  1.7999
10782TIP3    H253838   3.426   2.393   1.775  0.6199  1.7634 -1.1134
10783TIP3   OH253839   4.219   6.394  11.823  0.0235  0.4463 -0.4321
10783TIP3    H153840   4.191   6.308  11.791 -0.6537  0.4403  0.1645
10783TIP3    H253841   4.203   6.391  11.917  0.0399  1.2114 -0.4019
10784TIP3   OH253842   1.526   0.905   3.464 -0.3782 -0.2866  0.2904
10784TIP3    H153843   1.446   0.959   3.470 -0.9195 -1.0900  0.5520
10784TIP3    H253844   1.547   0.886   3.556 -0.5595 -1.0303  0.1832
10785TIP3   OH253845   4.581   5.269  16.018 -0.2076  0.3928 -0.7786
10785TIP3    H153846   4.526   5.295  16.093  1.4817  1.0363  0.2919
10785TIP3    H253847   4.557   5.329  15.948 -2.8972 -1.1558 -1.3369
10786TIP3   OH253848   6.172   2.671  15.652 -0.3972 -0.4936 -0.2626
10786TIP3    H153849   6.161   2.579  15.675  0.8335 -1.4051 -2.8787
10786TIP3    H253850   6.234   2.670  15.579  0.0729  2.4764 -0.0277
10787TIP3   OH253851   0.624   1.253   2.603  0.2918  0.6419 -0.9496
10787TIP3    H153852   0.707   1.207   2.616  0.2277  0.6007 -0.6784
10787TIP3    H253853   0.557   1.186   2.621  0.1740  1.2330  1.0490
10788TIP3   OH253854   3.099   0.497  12.603  0.1980 -0.0418  0.1046
10788TIP3    H153855   3.113   0.574  12.658  1.1670 -0.0898 -0.0690
10788TIP3    H253856   3.168   0.501  12.537  0.0384 -0.8671 -0.1210
10789TIP3   OH253857   3.470   4.206  15.637 -0.2339  0.3155 -1.0299
10789TIP3    H153858   3.500   4.139  15.576  0.0752  2.0489 -2.8941
10789TIP3    H253859   3.550   4.244  15.673 -0.4109 -0.5010  0.2711
10790TIP3   OH253860   6.045   4.955   2.091 -0.0901 -0.3408  0.0024
10790TIP3    H153861   6.101   4.905   2.032 -1.5000 -0.0246 -1.6656
10790TIP3    H253862   6.074   5.045   2.080  0.5071 -0.4195  0.8159
10791TIP3   OH253863   2.218   4.303   6.453  0.1307  0.0096  0.4607
10791TIP3    H153864   2.194   4.210   6.448 -3.2069  0.8437 -2.3195
10791TIP3    H253865   2.263   4.321   6.370  0.0407  1.0539  0.6263
10792TIP3   OH253866   0.621   4.212   4.033 -0.7331 -0.0344  0.3480
10792TIP3    H153867   0.694   4.178   3.981 -1.0347  1.0513 -0.8495
10792TIP3    H253868   0.562   4.137   4.043  0.2773 -0.7866  0.8790
10793TIP3   OH253869   0.776   3.266   5.787  0.1745 -0.1482 -0.0246
10793TIP3    H153870   0.688   3.253   5.753  0.6924 -1.0704 -1.1016
10793TIP3    H253871   0.769   3.252   5.881 -0.9140  0.3488 -0.0177
10794TIP3   OH253872   5.582   0.464  12.635  0.6764  0.0687 -0.3187
10794TIP3    H153873   5.512   0.511  12.590  0.8076  0.5327 -0.0399
10794TIP3    H253874   5.651   0.455  12.569  1.3529  1.7912  0.1016
10795TIP3   OH253875   0.208   6.239  11.614  0.0232 -0.6026 -0.4826
10795TIP3    H153876   0.117   6.267  11.607  0.3622  0.6421 -0.0599
10795TIP3    H253877   0.243   6.288  11.688  1.5072  0.2392 -1.6801
10796TIP3   OH253878   4.677   6.587  13.134  0.5407  0.5320  0.0127
10796TIP3    H153879   4.637   6.518  13.080  0.6005  1.3366 -1.0884
10796TIP3    H253880   4.626   6.585  13.215 -1.0028  0.7237 -0.8948
10797TIP3   OH253881   4.260   4.769  13.646  0.6333  0.4500 -0.3813
10797TIP3    H153882   4.228   4.701  13.704  0.5820 -0.4627 -1.4491
10797TIP3    H253883   4.193   4.837  13.649  0.8135  0.6021  0.8996
10798TIP3   OH253884   6.498   2.307   1.003 -0.0253 -0.0663 -0.2293
10798TIP3    H153885   6.536   2.240   0.946 -1.0703  0.2907 -1.3915
10798TIP3    H253886   6.417   2.267   1.035  0.4690 -0.1980  0.9079
10799TIP3   OH253887   3.885   4.037   1.228 -0.0449  0.0721  0.1130
10799TIP3    H153888   3.861   4.061   1.318  3.9243  0.7924  1.1656
10799TIP3    H253889   3.808   4.060   1.176 -1.4295  2.4566  2.9048
10800TIP3   OH253890   6.255   2.673   0.631 -0.1104 -0.1001 -0.4176
10800TIP3    H153891   6.306   2.674   0.712 -0.2522  2.1024 -0.2895
10800TIP3    H253892   6.318   2.646   0.564  0.3610 -0.6209  0.2239
10801TIP3   OH253893   0.431   2.502  15.280 -0.4604 -0.5097 -0.3459
10801TIP3    H153894   0.429   2.411  15.251  1.6534 -0.8457  0.3987
10801TIP3    H253895   0.507   2.540  15.237  0.4442  0.0505  1.6095
10802TIP3   OH253896   2.284   6.471   0.345 -0.6869  0.2642  0.6230
10802TIP3    H153897   2.294   6.377   0.362 -0.2981  0.1414 -0.2423
10802TIP3    H253898   2.192   6.482   0.323 -0.5120 -0.1061 -0.3499
10803TIP3   OH253899   5.299   4.847  11.506 -0.4943 -0.2672 -1.2437
10803TIP3    H153900   5.353   4.914  11.465 -0.7887  0.8474  0.1495
10803TIP3    H253901   5.351   4.815  11.580 -0.2293 -1.8271 -2.0441
10804TIP3   OH253902   1.541   2.005   0.087 -0.0453  0.5664  0.0370
10804TIP3    H153903   1.509   1.945   0.154 -0.5432  0.6261 -0.1450
10804TIP3    H253904   1.482   2.081   0.091  1.3195  1.6198  1.1216
10805TIP3   OH253905   0.986   1.950   1.870  0.7228 -0.1173 -0.2249
10805TIP3    H153906   1.008   1.872   1.920 -0.7955 -0.0232  0.6459
10805TIP3    H253907   0.987   2.021   1.935  2.4767  0.6978 -1.0669
10806TIP3   OH253908   4.794   1.634  16.666  0.2433  0.5123  0.0627
10806TIP3    H153909   4.867   1.574  16.683  0.1985  0.6929  0.9176
10806TIP3    H253910   4.798   1.650  16.572  1.1735  0.3489  0.0672
10807TIP3   OH253911   0.075   1.684  14.561 -0.2552  0.0351  0.2610
10807TIP3    H153912   0.007   1.741  14.525 -0.3801  0.0835  0.5706
10807TIP3    H253913   0.096   1.722  14.646  0.2047  0.0546  0.1405
10808TIP3   OH253914   4.087   1.374  11.827 -0.2415  0.2971  0.5867
10808TIP3    H153915   4.178   1.404  11.819 -0.1697 -0.2410 -0.8998
10808TIP3    H253916   4.047   1.397  11.743 -1.7037  1.1971  1.4891
10809TIP3   OH253917   1.749   6.484   0.380  0.7336 -0.5738 -0.4017
10809TIP3    H153918   1.698   6.445   0.451  0.4323  2.6875  1.3374
10809TIP3    H253919   1.684   6.514   0.317  0.6105  1.2657  0.5627
10810TIP3   OH253920   6.402   2.746   0.232  0.1302  0.9085  0.2206
10810TIP3    H153921   6.459   2.822   0.215  0.7383 -0.0528 -2.5830
10810TIP3    H253922   6.443   2.703   0.307  1.6400  1.6518 -0.1238
10811TIP3   OH253923   2.259   4.089   1.359 -0.3538  0.2447 -0.0395
10811TIP3    H153924   2.346   4.050   1.361 -0.3963  0.1415 -0.2316
10811TIP3    H253925   2.220   4.058   1.277 -0.5335  0.3714 -0.0028
10812TIP3   OH253926   4.772   4.123   0.198  0.2089  0.1684  0.0769
10812TIP3    H153927   4.783   4.054   0.263 -0.7148 -0.5164 -0.4714
10812TIP3    H253928   4.790   4.079   0.114  0.6086  0.8426 -0.1969
10813TIP3   OH253929   4.457   4.177  11.942 -0.9273  0.0785  0.0387
10813TIP3    H153930   4.480   4.234  12.016 -1.3969  0.4980 -0.1278
10813TIP3    H253931   4.431   4.094  11.983  1.2339 -0.5796  0.2138
10814TIP3   OH253932   1.140   2.307  11.822  0.4051  0.2704  0.3299
10814TIP3    H153933   1.121   2.234  11.880  0.2308  0.2139  0.2034
10814TIP3    H253934   1.105   2.280  11.737  0.9309  0.2231  0.1279
10815TIP3   OH253935   6.536   3.375  12.864  0.1915  0.3727 -0.3384
10815TIP3    H153936   6.623   3.334  12.868 -0.4866 -1.2931 -1.3538
10815TIP3    H253937   6.505   3.358  12.775 -1.9765 -0.8955  0.5643
10816TIP3   OH253938   2.787   2.227   4.781 -0.0345 -0.1657 -0.2542
10816TIP3    H153939   2.804   2.305   4.728  0.0962  0.3019  0.4597
10816TIP3    H253940   2.733   2.259   4.853  0.8524 -0.5178  0.5936
10817TIP3   OH253941   5.218   3.825   1.959  0.0699 -0.1941  0.1065
10817TIP3    H153942   5.187   3.793   2.043 -1.9265  0.0226 -0.4998
10817TIP3    H253943   5.144   3.814   1.900 -0.1803  3.7061 -0.5839
10818TIP3   OH253944   2.042   0.181  14.228 -0.3458  0.1885 -0.2244
10818TIP3    H153945   2.061   0.274  14.217 -1.1002  0.3963  0.1922
10818TIP3    H253946   2.032   0.168  14.322 -2.0914  0.0823 -0.3852
10819TIP3   OH253947   2.792   1.573   0.181 -0.3200  0.2291 -0.5222
10819TIP3    H153948   2.845   1.529   0.248 -1.3930  0.6529  0.6516
10819TIP3    H253949   2.830   1.660   0.173 -1.6327  1.0619  1.4026
10820TIP3   OH253950   2.023   6.357  11.915  0.4698  0.0637 -0.0695
10820TIP3    H153951   1.974   6.375  11.835 -1.4726 -1.6560  0.6487
10820TIP3    H253952   1.991   6.421  11.978  1.7399  1.1846 -0.5158
10821TIP3   OH253953   2.417   6.592  14.816  0.4061 -0.3301  0.3416
10821TIP3    H153954   2.471   6.545  14.753 -1.9511 -2.6900 -0.0879
10821TIP3    H253955   2.363   6.650  14.763  1.2151  0.7055  0.6137
10822TIP3   OH253956   1.771   5.649   5.075 -0.6248 -0.3983 -0.1037
10822TIP3    H153957   1.862   5.622   5.078 -0.2207  0.7322 -1.0808
10822TIP3    H253958   1.743   5.650   5.166  0.1895 -1.2046  0.1708
10823TIP3   OH253959   3.920   0.401   1.712 -0.0938  0.6484  0.9203
10823TIP3    H153960   3.910   0.329   1.773  1.1876  1.3643  2.0234
10823TIP3    H253961   4.003   0.443   1.736  0.6608  0.7475 -1.5233
10824TIP3   OH253962   5.624   1.605  10.879 -0.2293  0.1314 -0.1778
10824TIP3    H153963   5.552   1.658  10.845 -0.4691  0.1479  0.3369
10824TIP3    H253964   5.583   1.521  10.900  0.0534 -0.1002 -0.5640
10825TIP3   OH253965   2.995   6.741  14.445  0.3927  0.0325 -0.5028
10825TIP3    H153966   2.976   6.833  14.427 -3.1729 -0.2948  0.8737
10825TIP3    H253967   2.951   6.693  14.375 -1.3181 -0.6851  0.9861
10826TIP3   OH253968   2.203   3.607   1.490 -0.2619  0.2900  0.1908
10826TIP3    H153969   2.289   3.611   1.450 -0.7305 -1.5147 -1.1449
10826TIP3    H253970   2.170   3.696   1.488  2.0844  1.2963  2.0121
10827TIP3   OH253971   6.785   4.366   4.105  0.2017  0.0304 -0.4960
10827TIP3    H153972   6.805   4.460   4.100 -1.4666  0.4033 -0.9807
10827TIP3    H253973   6.785   4.347   4.199  2.8485 -0.0749 -0.4514
10828TIP3   OH253974   4.560   6.152   3.809  0.1464 -0.3240 -0.1552
10828TIP3    H153975   4.503   6.093   3.760 -0.9167 -1.3122  2.0906
10828TIP3    H253976   4.502   6.223   3.838  0.4725 -0.3598  0.6041
10829TIP3   OH253977   2.887   6.708   2.180  0.2092  0.6375 -0.3112
10829TIP3    H153978   2.900   6.616   2.156  2.3410  0.6768  0.5064
10829TIP3    H253979   2.936   6.757   2.114  0.5089  1.0894  0.2424
10830TIP3   OH253980   3.795   6.194  15.072 -0.0168 -0.5753  0.0551
10830TIP3    H153981   3.845   6.275  15.084 -0.1601 -0.0242 -2.6143
10830TIP3    H253982   3.743   6.186  15.153  2.1683  0.3615  1.6535
10831TIP3   OH253983   1.400   3.426   2.658  0.3055 -0.6654 -0.0061
10831TIP3    H153984   1.397   3.441   2.753  3.3144  1.6661 -0.1122
10831TIP3    H253985   1.334   3.485   2.622 -1.8685 -2.5890  0.5902
10832TIP3   OH253986   0.349   3.326   2.784 -0.2557 -0.0069 -0.0116
10832TIP3    H153987   0.374   3.335   2.876  0.6105 -0.7995 -0.1597
10832TIP3    H253988   0.312   3.412   2.762  2.8388  1.5174  0.1050
10833TIP3   OH253989   1.189   6.339   0.504  0.9200  0.2189  0.2111
10833TIP3    H153990   1.173   6.431   0.483  0.0770  0.3082  1.1817
10833TIP3    H253991   1.226   6.302   0.424 -0.6582  0.9127 -0.8709
10834TIP3   OH253992   4.432   0.887   4.401  0.6495 -0.4312  0.5470
10834TIP3    H153993   4.477   0.970   4.414 -0.1287  0.2699 -0.9557
10834TIP3    H253994   4.351   0.894   4.451 -0.1350  0.3628 -0.7829
10835TIP3   OH253995   3.504   3.232   5.051  0.2454 -0.4806  0.0111
10835TIP3    H153996   3.473   3.304   4.996  0.1510 -0.5357 -0.0084
10835TIP3    H253997   3.463   3.154   5.013  0.9359 -0.6384 -0.4224
10836TIP3   OH253998   0.118   3.914   3.914  0.4358 -0.4172  0.1546
10836TIP3    H153999   0.131   3.952   4.001  0.8587  2.1023 -0.9325
10836TIP3    H254000   0.060   3.975   3.869  1.1673 -1.0085 -1.7158
10837TIP3   OH254001   0.730   6.017   6.683 -0.2850  0.0744 -0.3080
10837TIP3    H154002   0.747   6.083   6.615 -0.5830  0.1815 -0.2808
10837TIP3    H254003   0.802   5.955   6.675  1.1983  1.5254  1.0628
10838TIP3   OH254004   3.766   6.588  12.230 -0.1141  0.0010 -0.3696
10838TIP3    H154005   3.756   6.497  12.258  1.6834  0.2318  1.3144
10838TIP3    H254006   3.861   6.602  12.230 -0.2990  1.4937 -1.9633
10839TIP3   OH254007   2.292   2.891   1.413  0.0161  0.0985  0.0190
10839TIP3    H154008   2.370   2.896   1.468  0.6861  0.5164 -0.9443
10839TIP3    H254009   2.219   2.906   1.473  0.6014 -1.0582  1.0830
10840TIP3   OH254010   2.876   6.089  12.785 -0.5666  0.2877 -0.0346
10840TIP3    H154011   2.941   6.030  12.821 -0.8230 -0.6303 -1.0153
10840TIP3    H254012   2.912   6.177  12.799  0.6165 -0.1784 -0.0790
10841TIP3   OH254013   0.060   6.039  15.215  0.2128  0.0351 -0.1319
10841TIP3    H154014   0.154   6.022  15.218  0.3928  0.4645 -2.3020
10841TIP3    H254015   0.046   6.090  15.136 -1.8876 -0.1999  0.0163
10842TIP3   OH254016   1.109   1.767  15.630 -0.7088  0.2184 -0.4381
10842TIP3    H154017   1.079   1.678  15.610  1.7036 -0.8735  0.3996
10842TIP3    H254018   1.030   1.813  15.657 -2.1156 -1.5185 -1.3415
10843TIP3   OH254019   0.185   6.798   1.775 -0.2231 -0.1423 -0.0982
10843TIP3    H154020   0.147   6.863   1.716 -2.1990 -0.8957  0.2895
10843TIP3    H254021   0.112   6.741   1.799  0.8470 -0.7904  1.8455
10844TIP3   OH254022   3.328   1.349  11.340  0.4193  0.0700 -0.1318
10844TIP3    H154023   3.333   1.439  11.307 -1.1337  0.6425  1.0648
10844TIP3    H254024   3.280   1.301  11.272 -0.8278  0.7249  0.2494
10845TIP3   OH254025   5.213   2.492  12.885 -0.0325  0.1187  0.4282
10845TIP3    H154026   5.140   2.454  12.836 -0.4450  2.9875 -1.4041
10845TIP3    H254027   5.186   2.487  12.977 -0.9154 -2.0023  0.1102
10846TIP3   OH254028   6.332   2.916   0.956  0.2331  0.3309 -0.0509
10846TIP3    H154029   6.260   2.856   0.976 -1.5010  2.1956 -0.2778
10846TIP3    H254030   6.346   2.963   1.038  1.5737 -0.3383  0.1288
10847TIP3   OH254031   4.808   5.484   5.784 -0.0570 -0.7954 -0.6775
10847TIP3    H154032   4.745   5.421   5.750 -0.9492 -0.2755 -0.0140
10847TIP3    H254033   4.773   5.512   5.868 -0.3782  1.5357 -1.5050
10848TIP3   OH254034   5.658   4.573   3.808  0.0212  0.3214 -0.3350
10848TIP3    H154035   5.662   4.662   3.772 -1.4685  0.5043 -0.1305
10848TIP3    H254036   5.719   4.575   3.882  0.6949  0.8945 -0.8894
10849TIP3   OH254037   5.741   1.381   0.742 -0.1142  0.7408  0.3242
10849TIP3    H154038   5.673   1.449   0.741 -0.4218  0.4397  0.3371
10849TIP3    H254039   5.822   1.428   0.726 -0.5972  0.8061 -2.3619
10850TIP3   OH254040   4.848   5.466  16.771  0.4792 -0.5153 -0.3834
10850TIP3    H154041   4.907   5.483  16.844  0.6016 -0.5808 -0.4645
10850TIP3    H254042   4.798   5.547  16.761  0.9935 -0.2253 -0.7099
10851TIP3   OH254043   4.056   4.434   6.158 -0.1917 -0.2798 -0.5849
10851TIP3    H154044   4.043   4.340   6.154 -2.8531  0.0400 -2.0797
10851TIP3    H254045   4.030   4.458   6.247 -0.6347 -0.8368 -0.5590
10852TIP3   OH254046   4.731   6.151  14.494 -0.3381  0.2335 -0.5353
10852TIP3    H154047   4.699   6.235  14.526  1.0070 -0.7309  3.9618
10852TIP3    H254048   4.808   6.174  14.440 -1.0575  1.8961 -0.9292
10853TIP3   OH254049   1.667   3.267  15.979  0.4310 -0.3273  0.4193
10853TIP3    H154050   1.577   3.296  15.994  0.1484 -1.7163  1.6488
10853TIP3    H254051   1.709   3.274  16.065  1.0785 -1.0592  0.1752
10854TIP3   OH254052   4.580   4.850   1.273 -0.6035  0.1812  0.1379
10854TIP3    H154053   4.619   4.834   1.359 -0.6408 -1.9087 -0.1874
10854TIP3    H254054   4.510   4.913   1.290  0.2661  0.8528  1.3976
10855TIP3   OH254055   3.629   1.761  13.488 -0.0828 -0.2904 -0.3063
10855TIP3    H154056   3.539   1.728  13.494  0.2012 -1.2417 -1.0915
10855TIP3    H254057   3.626   1.846  13.533 -1.0160 -0.9994  1.0672
10856TIP3   OH254058   6.535   4.228   3.751  0.0442 -0.2033  0.1738
10856TIP3    H154059   6.520   4.293   3.820  2.1952  0.7442 -0.2023
10856TIP3    H254060   6.503   4.270   3.671  2.3859  0.8958 -0.2483
10857TIP3   OH254061   5.589   5.857  16.846  0.2943 -0.2110  0.0831
10857TIP3    H154062   5.603   5.773  16.802 -0.7664  0.3040 -1.3249
10857TIP3    H254063   5.677   5.894  16.858  0.6809 -0.9411 -0.4579
10858TIP3   OH254064   5.064   0.194   0.458  0.2983  0.4256 -0.5845
10858TIP3    H154065   5.009   0.243   0.397 -2.0773 -0.4829  0.6880
10858TIP3    H254066   5.008   0.181   0.535  2.2823 -0.6977  0.7469
10859TIP3   OH254067   4.861   1.278   2.388 -0.1076 -0.7510  0.1501
10859TIP3    H154068   4.778   1.295   2.342  0.0246 -1.4254 -0.3606
10859TIP3    H254069   4.918   1.240   2.320  1.0879  0.9514  0.1451
10860TIP3   OH254070   4.286   5.491   0.396 -0.0934  0.0208 -0.1628
10860TIP3    H154071   4.317   5.574   0.361  3.4323 -1.3939 -0.8838
10860TIP3    H254072   4.249   5.445   0.320  0.4948 -0.1030 -0.3784
10861TIP3   OH254073   3.755   6.440  16.238  0.3009  0.5416  0.6300
10861TIP3    H154074   3.707   6.459  16.319 -0.2538 -0.4335  0.5551
10861TIP3    H254075   3.841   6.411  16.267  0.3997  1.0285  0.8300
10862TIP3   OH254076   3.173   0.028   6.135  0.6707  0.1747  0.2188
10862TIP3    H154077   3.253   0.077   6.153  1.5353 -0.9338 -0.5073
10862TIP3    H254078   3.122   0.085   6.077  1.1517  0.6692  0.2763
10863TIP3   OH254079   1.241   3.200  12.685 -0.2567  0.0966  0.2995
10863TIP3    H154080   1.173   3.197  12.753 -0.5386  0.3800  0.0327
10863TIP3    H254081   1.323   3.201  12.734 -0.4704  0.9856  0.6680
10864TIP3   OH254082   0.073   5.620   5.864  0.2008  0.3474 -0.2468
10864TIP3    H154083   0.013   5.688   5.834  0.2816  0.9042  0.8206
10864TIP3    H254084   0.020   5.565   5.921  0.9134  1.4462  1.5519
10865TIP3   OH254085   5.404   2.485   5.749 -0.3774  0.4876  0.5606
10865TIP3    H154086   5.462   2.410   5.735 -0.5251  0.3890  0.4684
10865TIP3    H254087   5.326   2.464   5.697 -1.1804 -0.1649  1.9711
10866TIP3   OH254088   0.493   6.672   3.638 -0.0314  0.2424  0.1393
10866TIP3    H154089   0.560   6.735   3.613  0.1565  0.5562  1.4006
10866TIP3    H254090   0.423   6.685   3.574 -0.1787  2.0455  0.6246
10867TIP3   OH254091   2.222   0.876  13.749 -0.1596 -0.3001  0.6177
10867TIP3    H154092   2.288   0.812  13.725  0.8252  1.6221 -2.3424
10867TIP3    H254093   2.140   0.826  13.751  0.5948 -1.7469 -1.3518
10868TIP3   OH254094   3.893   0.717   4.374 -0.0987 -0.2549 -0.4255
10868TIP3    H154095   3.839   0.773   4.318  0.9054  1.4763  0.2523
10868TIP3    H254096   3.892   0.632   4.331 -0.1099  0.7617 -2.5788
10869TIP3   OH254097   0.363   3.761   4.000  0.5680 -0.4776 -0.3540
10869TIP3    H154098   0.392   3.722   4.082 -0.1093  0.5217  0.3794
10869TIP3    H254099   0.427   3.730   3.935  1.3335 -0.9733  0.6083
10870TIP3   OH254100   0.249   5.183  15.024  0.9144  0.3449  0.1830
10870TIP3    H154101   0.171   5.217  14.979 -0.1130 -1.0015  0.8768
10870TIP3    H254102   0.228   5.188  15.117  2.8571  2.7044  0.6017
10871TIP3   OH254103   6.226   3.503   0.665 -0.2634  0.2511 -0.0178
10871TIP3    H154104   6.315   3.535   0.675 -0.6855  1.2597  0.6535
10871TIP3    H254105   6.230   3.411   0.691  0.4565  0.4450  0.5712
10872TIP3   OH254106   3.927   0.562  16.478 -0.0796  0.5648 -0.3743
10872TIP3    H154107   3.843   0.576  16.522 -0.2979 -1.1779 -0.1495
10872TIP3    H254108   3.987   0.625  16.519 -0.8067  0.4869  0.8560
10873TIP3   OH254109   1.511   0.714   1.992 -0.1252  0.3975  0.1232
10873TIP3    H154110   1.476   0.641   1.942 -0.1566 -0.6805  1.6634
10873TIP3    H254111   1.437   0.773   2.005 -0.4920 -0.0772  0.2119
10874TIP3   OH254112   1.241   5.104  11.097 -0.7831 -0.1787  0.1180
10874TIP3    H154113   1.155   5.064  11.083 -0.6533 -1.3195  2.1647
10874TIP3    H254114   1.234   5.147  11.182  0.8829 -0.9928  0.7053
10875TIP3   OH254115   2.533   1.557   2.078 -0.1322  0.2648  0.4957
10875TIP3    H154116   2.448   1.579   2.118 -0.1404 -0.9941  1.2156
10875TIP3    H254117   2.517   1.564   1.984 -1.4780 -1.3142  0.5479
10876TIP3   OH254118   4.593   3.508   6.624 -0.3754 -0.7977 -0.0223
10876TIP3    H154119   4.556   3.472   6.543  3.1312 -1.1398 -1.6841
10876TIP3    H254120   4.591   3.603   6.612  2.2566 -0.8365 -1.8048
10877TIP3   OH254121   4.608   4.642   1.843  0.1544 -0.0910  0.0353
10877TIP3    H154122   4.692   4.631   1.799  0.1632  2.4116 -0.7163
10877TIP3    H254123   4.545   4.651   1.771 -0.2978  0.9676  0.5553
10878TIP3   OH254124   1.592   4.893   3.854  0.3388  0.0307 -0.3271
10878TIP3    H154125   1.629   4.833   3.789  0.9117 -1.3563  1.1976
10878TIP3    H254126   1.498   4.887   3.842  0.4163 -0.6998 -0.6149
10879TIP3   OH254127   6.347   5.781  16.039 -0.1134  0.1723 -0.2805
10879TIP3    H154128   6.374   5.846  16.105  1.9525  0.3725 -1.2522
10879TIP3    H254129   6.389   5.811  15.958 -0.7350 -1.3236 -1.1842
10880TIP3   OH254130   0.595   4.597   4.883 -0.3741  0.0502 -0.0962
10880TIP3    H154131   0.595   4.503   4.903 -0.8601  0.1733  0.5159
10880TIP3    H254132   0.520   4.632   4.930  0.0745  0.8280  0.0691
10881TIP3   OH254133   2.638   5.961  13.789 -0.4517  0.5107  0.1323
10881TIP3    H154134   2.622   5.874  13.754  0.2182  0.8539 -1.1002
10881TIP3    H254135   2.729   5.980  13.767 -0.4899  1.3964  0.6552
10882TIP3   OH254136   2.884   1.622   4.354  0.3145 -0.2657 -0.0686
10882TIP3    H154137   2.875   1.633   4.259  1.1066 -1.7711 -0.3441
10882TIP3    H254138   2.959   1.563   4.364 -0.0303 -0.4694  1.4819
10883TIP3   OH254139   6.315   6.129  10.831 -0.0659  0.3727  0.3386
10883TIP3    H154140   6.267   6.208  10.858  0.4950  1.4873 -1.6871
10883TIP3    H254141   6.382   6.162  10.771 -0.4364 -1.7331 -1.3428
10884TIP3   OH254142   3.917   0.585  17.393  0.0539  0.0423  0.0568
10884TIP3    H154143   3.999   0.547  17.360 -0.2173 -0.1117 -0.4400
10884TIP3    H254144   3.887   0.642  17.321 -1.5511 -1.7634 -0.7693
10885TIP3   OH254145   3.628   6.044   0.849  0.0371 -0.0036  0.1811
10885TIP3    H154146   3.694   5.978   0.829  0.5261  0.2048  1.0541
10885TIP3    H254147   3.651   6.075   0.937 -0.6437  0.7705  0.0976
10886TIP3   OH254148   5.840   6.652   5.280  0.0360 -0.2274  0.2016
10886TIP3    H154149   5.890   6.732   5.297 -1.2778  0.7522 -0.2767
10886TIP3    H254150   5.865   6.626   5.192  1.2951 -0.9991  0.7741
10887TIP3   OH254151   6.028   5.890  14.380  0.1524 -0.1712  0.0834
10887TIP3    H154152   5.979   5.827  14.433  0.2497 -1.0753 -0.8857
10887TIP3    H254153   6.112   5.899  14.425  0.4845 -1.4377 -0.2642
10888TIP3   OH254154   1.178   3.332   4.219  0.6952  0.0909  0.4121
10888TIP3    H154155   1.185   3.330   4.123  1.4862 -0.9778  0.4789
10888TIP3    H254156   1.255   3.382   4.247  1.5674 -1.3049  0.5704
10889TIP3   OH254157   3.972   5.894  14.200 -0.1898 -0.3042 -0.3660
10889TIP3    H154158   3.925   5.970  14.234  0.1279 -0.6441  0.8947
10889TIP3    H254159   4.012   5.855  14.277  1.8401 -0.2646 -1.3392
10890TIP3   OH254160   6.382   0.320  12.986  0.0793 -0.0100 -0.4190
10890TIP3    H154161   6.343   0.397  13.026  3.1390  1.4975 -0.0251
10890TIP3    H254162   6.398   0.345  12.895  3.0993  0.8255  0.2177
10891TIP3   OH254163   6.116   4.405  15.944 -0.2956  0.0602  0.2965
10891TIP3    H154164   6.087   4.345  16.012  1.0620 -1.2298 -0.2002
10891TIP3    H254165   6.163   4.474  15.991  0.4192 -0.6882  0.7002
10892TIP3   OH254166   5.226   6.299   0.557  0.0963  0.2163  0.0581
10892TIP3    H154167   5.204   6.278   0.466 -0.7800  0.0809  0.2916
10892TIP3    H254168   5.201   6.391   0.566 -0.7402 -0.0360  0.4245
10893TIP3   OH254169   0.751   1.886  15.352 -0.0367  0.1012  0.4462
10893TIP3    H154170   0.845   1.902  15.346 -0.0127  0.0243  0.6121
10893TIP3    H254171   0.735   1.812  15.294 -0.3742  1.6058 -1.4650
10894TIP3   OH254172   5.863   5.634  16.310  0.4394 -0.2113  0.1305
10894TIP3    H154173   5.805   5.710  16.310  0.1973 -0.3928  0.2726
10894TIP3    H254174   5.871   5.609  16.402  0.1274 -0.6441  0.0492
10895TIP3   OH254175   0.583   1.354  11.967 -0.0779  0.1788  0.6663
10895TIP3    H154176   0.501   1.360  11.917  1.4996  1.8223 -1.9419
10895TIP3    H254177   0.567   1.410  12.043 -0.4811  3.1290 -1.3760
10896TIP3   OH254178   5.235   3.144   5.182 -0.1885  0.0753 -0.5477
10896TIP3    H154179   5.290   3.142   5.103  0.3244  0.9967 -0.2322
10896TIP3    H254180   5.240   3.055   5.217  0.5412 -0.0390 -0.9136
10897TIP3   OH254181   2.542   6.058   1.097  0.4763 -0.0975 -0.0287
10897TIP3    H154182   2.558   6.110   1.176 -0.8915 -0.3018  0.4213
10897TIP3    H254183   2.627   6.051   1.054  0.6740  2.9880 -0.4067
10898TIP3   OH254184   2.635   4.952  11.038  0.4744  0.0142  0.6390
10898TIP3    H154185   2.631   5.005  10.958 -0.7475 -0.6455  0.2335
10898TIP3    H254186   2.550   4.909  11.042  0.2675  0.5229  2.6571
10899TIP3   OH254187   5.332   3.359  13.292 -0.2743 -0.2306 -0.0169
10899TIP3    H154188   5.283   3.285  13.330  2.0861 -1.3428  1.0360
10899TIP3    H254189   5.349   3.332  13.201 -1.9760  0.4085 -0.5708
10900TIP3   OH254190   4.178   2.422  11.475 -0.1529  0.0720 -0.3808
10900TIP3    H154191   4.234   2.388  11.405 -1.0150 -0.6217 -0.7557
10900TIP3    H254192   4.172   2.349  11.538  2.2254  1.3271  1.4663
10901TIP3   OH254193   2.466   3.348   5.192  0.2861 -0.4844 -0.0155
10901TIP3    H154194   2.513   3.340   5.109  0.2348 -1.0464  0.0067
10901TIP3    H254195   2.374   3.332   5.169 -0.1764  2.1319 -0.3369
10902TIP3   OH254196   1.467   5.384  16.171  0.3849  0.2467 -0.4256
10902TIP3    H154197   1.439   5.441  16.100  0.7473  2.8488  1.3750
10902TIP3    H254198   1.386   5.340  16.200  0.1784 -0.5632 -2.1198
10903TIP3   OH254199   0.808   6.561   4.316 -0.0068  0.1387 -0.1493
10903TIP3    H154200   0.839   6.480   4.276  1.5639  0.4814  0.3074
10903TIP3    H254201   0.887   6.604   4.349 -0.9672  1.1208  0.9939
10904TIP3   OH254202   5.654   3.080   3.446  0.4912  0.1519 -0.0297
10904TIP3    H154203   5.690   3.119   3.526  1.3070 -1.5525  0.4903
10904TIP3    H254204   5.567   3.049   3.472  0.6724 -0.2144  0.1507
10905TIP3   OH254205   4.135   5.012  14.245  0.5126  0.4537 -0.5663
10905TIP3    H154206   4.052   4.964  14.246 -0.1531  1.5922  0.2763
10905TIP3    H254207   4.189   4.966  14.309  0.3328  0.0718 -0.6812
10906TIP3   OH254208   1.149   6.384   3.889 -0.4840  0.3233  0.1827
10906TIP3    H154209   1.163   6.335   3.970 -1.8927 -0.1034  0.1998
10906TIP3    H254210   1.149   6.317   3.821  1.3150  0.7415 -0.2955
10907TIP3   OH254211   5.343   1.037  16.168  0.8700  0.1707 -0.2938
10907TIP3    H154212   5.381   0.975  16.106  1.2867  1.1299 -1.0290
10907TIP3    H254213   5.417   1.091  16.196  0.8475 -0.7644  1.6989
10908TIP3   OH254214   5.672   3.618   6.145  0.0462  0.1454  0.8896
10908TIP3    H154215   5.651   3.615   6.239 -1.2528  0.6028  0.6234
10908TIP3    H254216   5.735   3.546   6.133  1.7213  1.2650  2.4523
10909TIP3   OH254217   0.432   5.754  16.209 -0.7103  0.0043  0.1992
10909TIP3    H154218   0.346   5.720  16.235  0.1914 -3.9311 -1.2710
10909TIP3    H254219   0.452   5.709  16.127  2.3560  1.5578 -0.0415
10910TIP3   OH254220   1.777   2.187   2.155  0.6020 -0.5349 -0.4116
10910TIP3    H154221   1.697   2.144   2.125  0.8831 -2.2863  1.1250
10910TIP3    H254222   1.761   2.280   2.144 -1.4931 -0.8638 -0.5052
10911TIP3   OH254223   2.726   4.455  15.557  0.2182 -0.5545 -0.1540
10911TIP3    H154224   2.680   4.409  15.487  0.2912 -1.1663  0.1961
10911TIP3    H254225   2.718   4.398  15.633  0.2225  0.0552  0.3202
10912TIP3   OH254226   5.808   0.098   2.832 -0.3690  0.2586  0.3640
10912TIP3    H154227   5.722   0.096   2.791  0.0012 -0.8246 -0.4393
10912TIP3    H254228   5.869   0.116   2.760  0.0550  1.3179  0.9724
10913TIP3   OH254229   1.146   4.347   3.502  0.2741  0.1870 -0.3213
10913TIP3    H154230   1.187   4.284   3.443  0.5363 -1.5139  1.5590
10913TIP3    H254231   1.054   4.324   3.502  0.4242 -0.4810  0.6442
10914TIP3   OH254232   4.289   4.505   4.483 -0.2146  0.1453 -0.0880
10914TIP3    H154233   4.328   4.567   4.545 -2.3019  0.3485  1.1031
10914TIP3    H254234   4.224   4.556   4.435 -1.1255 -0.8134  0.0754
10915TIP3   OH254235   5.502   0.835  14.818 -0.0684  0.1862  0.2336
10915TIP3    H154236   5.429   0.889  14.790 -0.4882 -0.5621 -0.1635
10915TIP3    H254237   5.564   0.839  14.745 -0.0920  0.1534  0.2110
10916TIP3   OH254238   1.426   3.320   0.548  0.2119  0.3993  0.3402
10916TIP3    H154239   1.349   3.370   0.577 -0.7984 -0.0279 -1.4197
10916TIP3    H254240   1.409   3.231   0.576  0.8901  0.5948  1.4153
10917TIP3   OH254241   4.022   0.809   2.939  0.3793 -0.0490  0.3119
10917TIP3    H154242   4.032   0.818   3.034 -0.1851  2.4568  0.1902
10917TIP3    H254243   4.103   0.846   2.903 -0.4967  1.4109 -0.2152
10918TIP3   OH254244   2.651   1.488   2.975  0.3436  0.5438 -1.0477
10918TIP3    H154245   2.599   1.554   3.020  1.2450  0.8707 -0.4567
10918TIP3    H254246   2.685   1.532   2.897  0.9293  0.7874 -0.6632
10919TIP3   OH254247   4.882   1.933   0.222 -0.2597 -0.0216 -0.1815
10919TIP3    H154248   4.934   1.975   0.154 -1.3797  0.3249 -0.8565
10919TIP3    H254249   4.912   1.842   0.222  0.3850  0.1880 -0.5128
10920TIP3   OH254250   1.888   4.873  12.446 -0.1504  0.2420  0.4203
10920TIP3    H154251   1.962   4.933  12.456  0.0501 -0.2680  2.4933
10920TIP3    H254252   1.812   4.930  12.432  0.5232  0.7908 -1.1953
10921TIP3   OH254253   6.731   0.975  12.199  0.1086  0.7170  0.2112
10921TIP3    H154254   6.814   0.931  12.216 -0.5251 -0.1968  1.0773
10921TIP3    H254255   6.715   1.026  12.279  0.6837  2.3453 -0.6567
10922TIP3   OH254256   6.497   5.784   4.472  0.3205 -0.1401 -0.0304
10922TIP3    H154257   6.554   5.726   4.422  0.7939 -0.3578  0.7416
10922TIP3    H254258   6.425   5.728   4.502 -0.4894  0.1973 -1.2551
10923TIP3   OH254259   5.600   1.668   3.317 -0.3736  0.2381  0.1436
10923TIP3    H154260   5.534   1.608   3.352 -0.8889  0.7477  0.0685
10923TIP3    H254261   5.676   1.612   3.297 -0.1749 -0.1189  1.7731
10924TIP3   OH254262   5.858   4.351  15.360 -0.3169  0.0296  0.4481
10924TIP3    H154263   5.787   4.337  15.299 -0.6880  1.2520  0.5730
10924TIP3    H254264   5.889   4.439  15.341  1.1501 -0.4674  0.4188
10925TIP3   OH254265   2.581   2.988  13.311  0.3845  0.1802  0.5219
10925TIP3    H154266   2.575   2.963  13.404  1.7565 -2.1720  0.0624
10925TIP3    H254267   2.597   3.082  13.312  0.7315  0.1442  2.6799
10926TIP3   OH254268   0.071   5.041  12.423 -0.1860  0.0221 -0.0894
10926TIP3    H154269   0.057   5.031  12.329  0.4393 -1.0187 -0.0837
10926TIP3    H254270   0.110   4.958  12.451 -0.1311  0.4096  1.0439
10927TIP3   OH254271   6.764   0.544  12.325  0.1261 -0.4963 -0.2673
10927TIP3    H154272   6.716   0.576  12.401 -0.2479  0.9768 -1.0877
10927TIP3    H254273   6.782   0.452  12.345 -0.4286 -0.2840  1.3502
10928TIP3   OH254274   3.081   1.802   5.098 -0.1249  0.5975  0.1799
10928TIP3    H154275   3.027   1.730   5.066  0.1176  0.4538  0.0880
10928TIP3    H254276   3.116   1.843   5.019 -1.0475  1.4329  0.1932
10929TIP3   OH254277   5.423   2.686  15.237 -0.5041  0.6250  0.1876
10929TIP3    H154278   5.390   2.596  15.234 -3.7448  1.6399  1.4273
10929TIP3    H254279   5.482   2.688  15.312 -1.1045 -0.2957  0.7058
10930TIP3   OH254280   4.368   4.070  15.935 -0.3540  0.1446  0.0108
10930TIP3    H154281   4.374   4.001  16.001 -0.0287  0.6431  0.5138
10930TIP3    H254282   4.369   4.024  15.851  2.5913 -0.3833  0.2130
10931TIP3   OH254283   5.186   6.108  11.767  0.1396  0.0166 -0.4049
10931TIP3    H154284   5.111   6.085  11.822 -0.5067 -1.1208 -1.6831
10931TIP3    H254285   5.250   6.039  11.784 -0.0112 -0.2664 -0.9404
10932TIP3   OH254286   1.668   0.096   0.965  0.3955 -0.0019  0.0589
10932TIP3    H154287   1.623   0.159   1.021  1.7584 -0.8402  2.2372
10932TIP3    H254288   1.599   0.055   0.914 -0.7156  1.9695 -0.1131
10933TIP3   OH254289   6.533   0.739   1.409 -0.0950 -0.5999 -0.1109
10933TIP3    H154290   6.511   0.826   1.444  1.1193  0.0937 -1.0289
10933TIP3    H254291   6.448   0.695   1.401 -0.6588  0.2067  1.0845
10934TIP3   OH254292   3.619   5.132   3.211  0.1739  0.1211 -0.4442
10934TIP3    H154293   3.647   5.079   3.286  1.3688  1.6272  0.2577
10934TIP3    H254294   3.524   5.124   3.210  0.2582 -1.2542  0.2070
10935TIP3   OH254295   5.399   2.207   1.634 -0.1553  0.2326  0.0155
10935TIP3    H154296   5.438   2.128   1.672 -0.7447 -0.6660 -1.1642
10935TIP3    H254297   5.368   2.257   1.709  0.3350 -0.6004  0.7966
10936TIP3   OH254298   5.149   1.586   0.808  0.0972  0.3507 -0.1209
10936TIP3    H154299   5.067   1.635   0.824 -0.6112 -0.7578 -0.2426
10936TIP3    H254300   5.198   1.641   0.747 -0.0520  1.5635  0.7920
10937TIP3   OH254301   4.023   3.678  11.551 -0.0521 -0.3865  0.2826
10937TIP3    H154302   3.962   3.605  11.552 -0.3091 -0.1853 -0.1755
10937TIP3    H254303   4.084   3.658  11.480 -1.0478  0.5658 -0.8952
10938TIP3   OH254304   6.034   1.412   1.610 -0.2459  0.2489  0.1293
10938TIP3    H154305   5.991   1.497   1.596  0.5536  0.8381  1.1488
10938TIP3    H254306   6.120   1.422   1.570 -0.3895 -0.3415 -0.3591
10939TIP3   OH254307   2.607   6.648   5.487  0.1255  0.5082  0.2587
10939TIP3    H154308   2.645   6.726   5.529  0.4934  0.8441 -0.6669
10939TIP3    H254309   2.512   6.660   5.495  0.1631 -0.0936  2.1519
10940TIP3   OH254310   2.184   2.987  16.535  0.0245  0.4092 -0.1691
10940TIP3    H154311   2.221   3.018  16.453  0.4004 -0.3614 -0.2996
10940TIP3    H254312   2.163   3.066  16.584  0.7540  0.8568 -0.5798
10941TIP3   OH254313   2.462   6.282  11.618  0.3186  0.3713 -0.6836
10941TIP3    H154314   2.436   6.190  11.619 -1.7581  0.8570 -2.6228
10941TIP3    H254315   2.401   6.325  11.678 -0.3608  0.8106 -1.6574
10942TIP3   OH254316   1.669   5.156   4.531 -0.1577  0.1499 -0.4137
10942TIP3    H154317   1.735   5.210   4.487  0.6645 -1.0694 -0.7170
10942TIP3    H254318   1.626   5.216   4.592  0.7713  1.1291 -0.6898
10943TIP3   OH254319   2.015   5.440  11.570  0.3653 -0.5430 -0.1043
10943TIP3    H154320   2.006   5.345  11.582  0.0411 -0.2869  2.1380
10943TIP3    H254321   2.040   5.451  11.478  0.6158 -2.8088 -0.3537
10944TIP3   OH254322   4.840   6.772   3.461 -0.5733  0.2948 -0.1355
10944TIP3    H154323   4.836   6.770   3.557 -0.5357  0.5226 -0.1296
10944TIP3    H254324   4.832   6.680   3.435 -0.2328  0.1940  0.1028
10945TIP3   OH254325   5.398   6.792  13.004  0.1243 -0.0888  0.2618
10945TIP3    H154326   5.460   6.862  13.028 -0.1735 -0.3838  2.0391
10945TIP3    H254327   5.348   6.828  12.930  2.1422  0.2896 -0.9997
10946TIP3   OH254328   0.365   2.999  16.001  0.1786 -0.1477 -0.0584
10946TIP3    H154329   0.309   3.072  15.974 -0.0686  0.6433  2.3473
10946TIP3    H254330   0.304   2.930  16.028  0.3673 -0.1053  0.4960
10947TIP3   OH254331   6.622   1.888   0.907 -0.8166 -0.2113 -0.2081
10947TIP3    H154332   6.565   1.863   0.835 -0.6146  0.6990 -0.6970
10947TIP3    H254333   6.709   1.860   0.880 -0.3722  1.9779 -1.3204
10948TIP3   OH254334   0.190   5.617   2.679  0.6760  0.3607 -0.7399
10948TIP3    H154335   0.200   5.522   2.672 -0.9433  0.2193 -1.8178
10948TIP3    H254336   0.216   5.638   2.768 -1.3154 -1.4649  0.3626
10949TIP3   OH254337   4.301   3.068  13.421 -0.4884  0.1614  0.2683
10949TIP3    H154338   4.254   3.108  13.347 -0.9834 -2.4664 -0.9806
10949TIP3    H254339   4.291   3.130  13.493  0.4623  3.1255 -1.9572
10950TIP3   OH254340   4.793   3.669  15.003 -0.1626 -0.5682  0.0155
10950TIP3    H154341   4.805   3.764  14.994 -1.5643 -0.4011 -0.3788
10950TIP3    H254342   4.817   3.634  14.918  0.0870 -0.5361  0.0720
10951TIP3   OH254343   5.761   3.785  14.541  0.3965 -0.8379 -0.0625
10951TIP3    H154344   5.791   3.814  14.627  0.8515 -1.4474 -0.0039
10951TIP3    H254345   5.820   3.827  14.479  1.2570 -1.8590  0.0396
10952TIP3   OH254346   6.167   1.276  14.726  0.3236 -0.0967  0.0255
10952TIP3    H154347   6.221   1.324  14.663  2.5802 -1.7490  0.5572
10952TIP3    H254348   6.128   1.205  14.675 -0.1039  0.1905 -0.0498
10953TIP3   OH254349   2.717   6.768  14.001 -0.3236 -0.0347 -0.1443
10953TIP3    H154350   2.685   6.728  13.920 -1.6470 -2.3426  1.4020
10953TIP3    H254351   2.638   6.801  14.044  0.2835  0.5689  0.5383
10954TIP3   OH254352   0.703   5.031   2.296  0.0887  0.1541  0.0132
10954TIP3    H154353   0.624   5.037   2.350 -0.6946  2.0407 -1.2197
10954TIP3    H254354   0.774   5.059   2.353 -0.4339  0.3224  0.5946
10955TIP3   OH254355   2.198   0.389  12.279  0.0911  0.7893  0.0614
10955TIP3    H154356   2.242   0.321  12.330  0.7616  2.1714  1.3794
10955TIP3    H254357   2.194   0.353  12.190  0.0756 -1.1207  0.7943
10956TIP3   OH254358   0.742   2.841   2.688  0.1842  0.0430  0.3595
10956TIP3    H154359   0.648   2.840   2.700  0.0715 -2.7491 -0.0839
10956TIP3    H254360   0.772   2.917   2.737 -2.4050  1.9524 -0.7792
10957TIP3   OH254361   4.156   3.635   5.416 -0.0306 -0.5769 -0.5833
10957TIP3    H154362   4.241   3.656   5.378  0.1852 -2.0032 -0.9393
10957TIP3    H254363   4.098   3.705   5.385  1.3373  1.4441  1.1087
10958TIP3   OH254364   4.981   4.707   1.354  0.2388  0.4431  0.5670
10958TIP3    H154365   4.902   4.684   1.403 -0.0239 -0.6294 -0.2999
10958TIP3    H254366   4.997   4.799   1.374  0.1339  0.0503  2.6084
10959TIP3   OH254367   4.276   3.825   6.127 -0.3819  0.2033  0.2788
10959TIP3    H154368   4.347   3.884   6.153  0.0393 -0.8816  1.7820
10959TIP3    H254369   4.310   3.780   6.050 -0.3405  1.2438 -0.3336
10960TIP3   OH254370   3.141   6.289  13.674 -0.1715  0.1861 -0.1623
10960TIP3    H154371   3.085   6.336  13.736 -1.4093  0.6975 -1.5812
10960TIP3    H254372   3.093   6.295  13.591  0.8689 -1.4445 -0.9213
10961TIP3   OH254373   5.606   2.599   5.166  0.3135 -0.1188 -0.3009
10961TIP3    H154374   5.660   2.534   5.212  0.6872 -0.9424 -1.7951
10961TIP3    H254375   5.630   2.587   5.074 -1.6218  0.2638 -0.8999
10962TIP3   OH254376   1.666   6.518  16.472  0.2192  0.1469  0.3548
10962TIP3    H154377   1.587   6.463  16.477  0.2755  0.0967  0.7772
10962TIP3    H254378   1.736   6.463  16.506  0.0865  0.8124  1.8084
10963TIP3   OH254379   6.312   2.928  12.274  0.3454  0.1498 -0.1073
10963TIP3    H154380   6.255   2.991  12.319  0.8554  0.0867  0.6320
10963TIP3    H254381   6.323   2.857  12.337 -0.3531 -0.7734 -0.9921
10964TIP3   OH254382   4.507   2.893   5.149  0.1585 -0.4021 -0.3465
10964TIP3    H154383   4.494   2.954   5.222  2.3260  0.6015 -0.7210
10964TIP3    H254384   4.580   2.838   5.176  0.7628 -0.2493 -1.5873
10965TIP3   OH254385   2.711   1.213   1.616 -0.7896 -0.1749 -0.1090
10965TIP3    H154386   2.720   1.123   1.584  0.1352 -0.1094 -0.0542
10965TIP3    H254387   2.656   1.256   1.550  0.2248 -0.3205 -1.0809
10966TIP3   OH254388   6.569   5.784  14.379 -0.2955  0.5736 -0.3230
10966TIP3    H154389   6.664   5.780  14.393 -0.4303 -1.5094  0.4434
10966TIP3    H254390   6.558   5.768  14.286  0.1163  0.5842 -0.3759
10967TIP3   OH254391   4.042   0.734  11.604  0.1777  0.1018  0.4097
10967TIP3    H154392   4.098   0.760  11.677 -1.1924  1.0132  1.1890
10967TIP3    H254393   4.027   0.815  11.555  0.4096 -0.3439 -0.4267
10968TIP3   OH254394   0.408   5.980  15.999 -0.1525  0.5217  0.4134
10968TIP3    H154395   0.417   6.032  16.079 -0.1603  0.3272  0.5419
10968TIP3    H254396   0.344   5.912  16.022 -0.9661  1.1091 -0.0878
10969TIP3   OH254397   0.819   3.585   0.690 -0.2387 -0.3569  0.1412
10969TIP3    H154398   0.762   3.509   0.703 -0.3950 -0.0545  1.3140
10969TIP3    H254399   0.899   3.564   0.737  0.4743 -0.5813 -1.1219
10970TIP3   OH254400   1.959   3.375   0.694 -0.5165 -0.1797 -0.6326
10970TIP3    H154401   1.918   3.460   0.677  1.1000  0.6883 -0.4135
10970TIP3    H254402   1.916   3.342   0.772  0.6966  1.7782  0.9648
10971TIP3   OH254403   0.045   6.796   0.962 -0.5887  0.3331 -0.3126
10971TIP3    H154404  -0.041   6.813   0.924 -0.6739 -0.5921 -0.5404
10971TIP3    H254405   0.027   6.749   1.043 -0.2489 -1.1540 -1.0775
10972TIP3   OH254406   4.921   0.993  14.243  0.1616 -0.3980 -0.1413
10972TIP3    H154407   4.870   0.989  14.162 -0.2105  0.1821  0.0534
10972TIP3    H254408   4.934   0.902  14.269  1.2275 -0.6358 -1.4266
10973TIP3   OH254409   2.436   2.086   4.205  0.1379 -0.9217  0.3901
10973TIP3    H154410   2.421   1.994   4.181 -2.0482 -0.0644 -2.0164
10973TIP3    H254411   2.493   2.120   4.136 -0.4218 -0.0811  0.3289
10974TIP3   OH254412   4.445   2.440  12.485 -0.6097  0.4323 -0.3007
10974TIP3    H154413   4.485   2.359  12.516 -2.6768  0.0442  1.5703
10974TIP3    H254414   4.404   2.478  12.563 -5.7936 -0.3627 -2.2608
10975TIP3   OH254415   3.743   0.637  15.393  0.1112 -0.8762  0.6891
10975TIP3    H154416   3.696   0.578  15.334  0.7656 -1.9824  1.2323
10975TIP3    H254417   3.822   0.661  15.344  0.1438 -0.9457  0.7084
10976TIP3   OH254418   3.346   2.417  13.858  0.4780 -0.4549  0.1229
10976TIP3    H154419   3.342   2.410  13.763  0.4265 -0.1348  0.0998
10976TIP3    H254420   3.291   2.492  13.879 -0.4257 -1.2164  0.5021
10977TIP3   OH254421   3.239   6.136   0.974  0.4240 -0.3128 -0.5283
10977TIP3    H154422   3.190   6.206   0.930  1.2509 -0.2778 -1.4088
10977TIP3    H254423   3.324   6.174   0.993 -0.1135 -0.1007  1.7574
10978TIP3   OH254424   5.650   3.403  13.621 -0.2150  0.4297 -0.0980
10978TIP3    H154425   5.559   3.374  13.621  0.0379 -0.4743 -1.2516
10978TIP3    H254426   5.683   3.380  13.708 -0.5437 -1.1346 -0.3556
10979TIP3   OH254427   0.796   0.037  15.073 -0.3876 -0.0384  0.1473
10979TIP3    H154428   0.840   0.019  15.157 -0.6324  0.5774  0.4139
10979TIP3    H254429   0.703   0.035  15.095 -0.5179 -1.3591 -0.4204
10980TIP3   OH254430   6.122   3.100   4.922  0.0040 -0.4418 -0.2648
10980TIP3    H154431   6.216   3.102   4.939 -0.4204  1.2649  2.5376
10980TIP3    H254432   6.090   3.022   4.969 -0.1795 -0.0309  0.3062
10981TIP3   OH254433   0.882   2.865   5.848  0.5360  0.2507 -0.2304
10981TIP3    H154434   0.816   2.852   5.916  1.8007  0.3360  1.0663
10981TIP3    H254435   0.886   2.781   5.802  1.5654 -0.7801  1.6053
10982TIP3   OH254436   1.407   0.052  14.594 -0.5518 -0.7544 -0.1373
10982TIP3    H154437   1.462   0.103  14.535 -0.4877 -0.8719 -0.1785
10982TIP3    H254438   1.340   0.014  14.538 -0.6783 -0.6092 -0.0869
10983TIP3   OH254439   5.596   2.194   4.970 -0.0483 -0.4455  0.5908
10983TIP3    H154440   5.690   2.209   4.968  0.7894 -4.7242 -0.1776
10983TIP3    H254441   5.581   2.143   5.049 -1.8367  0.4217  0.8685
10984TIP3   OH254442   4.656   0.783   1.613  0.3708  0.3726 -0.3798
10984TIP3    H154443   4.739   0.785   1.565  0.8002  0.6311  0.3422
10984TIP3    H254444   4.681   0.752   1.701  0.0176  2.2275  0.4174
10985TIP3   OH254445   6.528   4.100  12.573  0.2932 -0.1645  0.5334
10985TIP3    H154446   6.596   4.142  12.626  0.0450  0.5259  0.3127
10985TIP3    H254447   6.446   4.138  12.604  0.2463  1.3787 -1.3404
10986TIP3   OH254448   4.696   3.829  11.512  0.2312 -0.2766 -0.4149
10986TIP3    H154449   4.726   3.812  11.423  1.4995  1.3361 -0.3381
10986TIP3    H254450   4.775   3.836  11.565 -0.4608 -0.3360  0.6863
10987TIP3   OH254451   3.560   2.580  16.180  0.1112  0.1690 -0.7313
10987TIP3    H154452   3.638   2.595  16.126  0.3755  0.9128 -0.1605
10987TIP3    H254453   3.594   2.566  16.268 -0.4002  0.5171 -0.4747
10988TIP3   OH254454   1.729   5.540  13.788 -0.0278 -0.1556 -0.2128
10988TIP3    H154455   1.810   5.582  13.814 -0.2534  0.6896 -0.8445
10988TIP3    H254456   1.671   5.551  13.864  1.1210 -2.7686  1.1750
10989TIP3   OH254457   2.357   0.513  14.712 -0.5114 -0.1647  0.6803
10989TIP3    H154458   2.343   0.603  14.741 -1.1469 -0.1253  0.2728
10989TIP3    H254459   2.272   0.470  14.725 -0.8221 -0.1494 -1.0466
10990TIP3   OH254460   6.480   5.112   6.841  0.8279 -0.4245 -0.3098
10990TIP3    H154461   6.488   5.021   6.813  0.7611 -0.7394  0.6706
10990TIP3    H254462   6.396   5.141   6.805 -1.2860 -2.0636  2.8359
10991TIP3   OH254463   4.720   0.783  14.608 -0.0826  0.4905 -0.1393
10991TIP3    H154464   4.780   0.760  14.680 -0.1713  2.5501  0.6559
10991TIP3    H254465   4.772   0.769  14.529  1.1412  1.3033  0.4865
10992TIP3   OH254466   5.234   6.163   5.226 -0.2794  0.1289  0.2728
10992TIP3    H154467   5.200   6.107   5.296  0.2232 -0.8170 -0.2240
10992TIP3    H254468   5.160   6.219   5.202 -1.2034 -1.1886 -0.0793
10993TIP3   OH254469   3.609   3.754  15.376  0.4669  0.4089 -0.1679
10993TIP3    H154470   3.608   3.689  15.446 -1.6204  1.4755  0.8663
10993TIP3    H254471   3.520   3.752  15.340  1.2906  0.3763 -2.3950
10994TIP3   OH254472   4.891   4.552  14.525  0.1317  0.1435  0.2810
10994TIP3    H154473   4.927   4.527  14.610  0.0694 -0.3602  0.1606
10994TIP3    H254474   4.906   4.476  14.469 -0.0358  0.3848 -0.0981
10995TIP3   OH254475   2.530   0.686  16.316 -0.6069 -0.0966  0.6408
10995TIP3    H154476   2.519   0.668  16.409 -1.8566 -0.3512  0.4673
10995TIP3    H254477   2.496   0.608  16.273 -2.6367  1.1017 -0.0576
10996TIP3   OH254478   5.192   3.926  13.711  0.5926 -0.3601 -1.0610
10996TIP3    H154479   5.148   4.006  13.741  1.6182  0.0145 -0.4866
10996TIP3    H254480   5.240   3.895  13.788  0.5782 -1.2727 -1.4113
10997TIP3   OH254481   5.403   0.605   4.860 -0.2360 -0.6582  0.1632
10997TIP3    H154482   5.419   0.564   4.775  1.1927 -0.6602  0.3939
10997TIP3    H254483   5.394   0.532   4.921 -0.3675 -0.6569  0.1434
10998TIP3   OH254484   2.246   0.713  14.864 -0.8182 -0.0117  0.3609
10998TIP3    H154485   2.269   0.803  14.845  1.3796 -0.6151 -0.1137
10998TIP3    H254486   2.234   0.710  14.959 -1.3634  0.8457  0.3251
10999TIP3   OH254487   0.821   4.032  12.563  0.2978 -0.1044  0.3764
10999TIP3    H154488   0.769   4.068  12.636 -0.6481 -0.4148 -0.1308
10999TIP3    H254489   0.804   3.938  12.566 -0.3676 -0.0321 -0.7106
11000TIP3   OH254490   1.497   1.449   0.658 -0.0419  0.4458 -0.4561
11000TIP3    H154491   1.466   1.373   0.610 -1.0528 -0.6405  1.7561
11000TIP3    H254492   1.457   1.441   0.745  1.9831  2.0539  0.7408
11001TIP3   OH254493   0.204   0.625   5.628 -0.8256  0.3656 -0.0754
11001TIP3    H154494   0.252   0.706   5.614  0.4703 -0.2343  0.6696
11001TIP3    H254495   0.222   0.602   5.719 -1.8343 -0.3353 -0.0390
11002TIP3   OH254496   0.006   2.430  17.345 -0.1598 -0.3267  0.2510
11002TIP3    H154497  -0.071   2.449  17.291 -0.0359 -0.2360  0.1086
11002TIP3    H254498  -0.015   2.470  17.430 -0.1143  0.0168  0.1014
11003TIP3   OH254499   4.148   5.113  15.110 -0.3316  0.0236  0.6119
11003TIP3    H154500   4.150   5.069  15.025 -1.4252  3.5558 -1.4791
11003TIP3    H254501   4.235   5.154  15.117 -0.7454  0.9662  0.4020
11004TIP3   OH254502   1.456   5.245  12.271  0.2855 -0.4265  0.2837
11004TIP3    H154503   1.451   5.230  12.366  0.5786 -0.8734  0.2320
11004TIP3    H254504   1.366   5.235  12.240  0.2102 -0.4133  0.4959
11005TIP3   OH254505   0.141   0.416   4.129 -0.5425 -0.1684  0.2960
11005TIP3    H154506   0.081   0.488   4.110  1.0073  0.9631 -0.6173
11005TIP3    H254507   0.210   0.425   4.063  2.3912  0.6408  3.2004
11006TIP3   OH254508   5.064   0.687  15.628  0.6821  0.0555 -0.1535
11006TIP3    H154509   5.131   0.713  15.564 -0.6122  0.4894 -1.4124
11006TIP3    H254510   5.069   0.592  15.630  1.3924  0.0865 -0.1667
11007TIP3   OH254511   4.866   0.446   0.565  0.3615 -0.1686 -0.0356
11007TIP3    H154512   4.940   0.489   0.607 -0.4481  0.9667  0.2620
11007TIP3    H254513   4.858   0.489   0.480 -0.1005 -0.1209  0.0296
11008TIP3   OH254514   1.445   3.529  16.104  1.1468  0.1198 -0.1060
11008TIP3    H154515   1.387   3.584  16.051  1.2517 -0.9681 -1.4261
11008TIP3    H254516   1.533   3.560  16.084  1.0844  2.9251  3.2146
11009TIP3   OH254517   2.003   3.629  16.987 -0.2832 -0.1250 -0.6414
11009TIP3    H154518   1.978   3.647  17.077  0.9528  1.3783 -0.5718
11009TIP3    H254519   1.962   3.699  16.935  1.9206  1.1610 -0.7668
11010TIP3   OH254520   5.635   4.054   4.558 -0.4955  0.0699  0.2082
11010TIP3    H154521   5.629   4.035   4.652 -2.3010  1.5243  0.4510
11010TIP3    H254522   5.580   3.987   4.517 -2.7786  1.6113  0.5936
11011TIP3   OH254523   1.225   1.408  13.295  0.1810  0.0025 -0.1726
11011TIP3    H154524   1.171   1.425  13.372 -1.1570 -2.3117 -0.5088
11011TIP3    H254525   1.302   1.463  13.308 -1.3422  1.9156  1.3140
11012TIP3   OH254526   6.598   2.021   1.956 -0.1872 -0.3009 -0.0091
11012TIP3    H154527   6.634   1.963   1.890  0.3203  0.3211 -0.2914
11012TIP3    H254528   6.529   1.970   1.998 -0.5318 -0.6942 -1.0310
11013TIP3   OH254529   6.663   5.105  14.008 -0.3989 -0.0754 -0.2307
11013TIP3    H154530   6.756   5.128  14.012 -0.3364  0.0982 -2.0342
11013TIP3    H254531   6.618   5.190  14.003 -0.5119 -0.1836 -1.2921
11014TIP3   OH254532   2.050   4.423  14.477 -0.3921 -0.2608  0.0193
11014TIP3    H154533   2.009   4.357  14.421 -0.2797 -0.0740 -0.2903
11014TIP3    H254534   2.120   4.377  14.523 -1.3786 -0.7485  1.0749
11015TIP3   OH254535   0.798   5.720   4.695 -0.0416  0.5810  0.1036
11015TIP3    H154536   0.726   5.716   4.633 -0.6608 -0.4702  0.8519
11015TIP3    H254537   0.864   5.775   4.652 -0.2609 -0.4630 -1.6688
11016TIP3   OH254538   2.755   1.688  10.973  0.0273 -0.8576 -0.2061
11016TIP3    H154539   2.818   1.759  10.986 -1.1405  0.1483  0.0659
11016TIP3    H254540   2.798   1.629  10.911  1.2862 -0.2606  0.0670
11017TIP3   OH254541   1.123   0.808  13.252 -0.5319 -0.3600 -0.3283
11017TIP3    H154542   1.054   0.811  13.186 -1.1947 -0.5742  0.3406
11017TIP3    H254543   1.079   0.776  13.331  0.4132 -0.8899  0.0039
11018TIP3   OH254544   5.341   3.857   5.427 -0.3298 -0.0122 -0.3052
11018TIP3    H154545   5.246   3.843   5.426 -0.2525 -0.6179  0.2426
11018TIP3    H254546   5.358   3.909   5.348 -1.1715  0.4893 -0.1748
11019TIP3   OH254547   3.782   0.507   6.093  0.1613  0.1435 -0.5994
11019TIP3    H154548   3.864   0.495   6.141 -0.6169  0.4955  0.9052
11019TIP3    H254549   3.768   0.602   6.094 -0.2952  0.0784 -0.7814
11020TIP3   OH254550   5.784   3.034   5.668  0.1422  0.1710 -0.3072
11020TIP3    H154551   5.803   3.080   5.586  0.7548  0.0078 -0.2657
11020TIP3    H254552   5.870   3.023   5.709 -0.3009  1.8373  1.2265
11021TIP3   OH254553   2.047   1.407  12.229 -0.4857  0.0113 -0.1690
11021TIP3    H154554   2.058   1.317  12.259  1.1625 -0.7537 -2.7606
11021TIP3    H254555   2.012   1.399  12.140  1.1200  1.8153 -1.0423
11022TIP3   OH254556   3.183   5.190   3.818  0.5703  0.1000  0.0899
11022TIP3    H154557   3.247   5.215   3.884  0.6933  1.9706 -0.6780
11022TIP3    H254558   3.098   5.206   3.859  0.6389  0.5845  0.0483
11023TIP3   OH254559   5.786   0.237   5.333 -0.2453  0.1444  0.0794
11023TIP3    H154560   5.832   0.168   5.285 -1.0752 -0.7030  0.4706
11023TIP3    H254561   5.774   0.202   5.421 -0.9650  0.6543  0.1972
11024TIP3   OH254562   0.124   3.911  10.698  0.4384 -0.4486  0.9200
11024TIP3    H154563   0.053   3.933  10.637  1.8308  0.0643 -0.5802
11024TIP3    H254564   0.156   3.826  10.668  1.4795  0.0488  0.5551
11025TIP3   OH254565   1.595   1.970  14.555  0.2318 -0.1562  0.0976
11025TIP3    H154566   1.561   1.892  14.599 -0.6920  0.9726  1.4857
11025TIP3    H254567   1.523   2.001  14.500  0.3854  0.0430  0.0073
11026TIP3   OH254568   4.527   6.245   4.396  0.1658 -0.0711 -0.5198
11026TIP3    H154569   4.524   6.262   4.490 -0.7876 -0.7069 -0.4240
11026TIP3    H254570   4.596   6.303   4.363 -0.5446  1.2886  0.3254
11027TIP3   OH254571   4.911   2.771  13.470  0.4714  0.2268  0.4601
11027TIP3    H154572   4.977   2.708  13.499 -1.8747 -1.9455  1.5169
11027TIP3    H254573   4.937   2.853  13.511  2.1527 -0.6792  1.3473
11028TIP3   OH254574   3.906   1.764   0.522 -0.1227 -0.6980 -0.7401
11028TIP3    H154575   3.973   1.793   0.584 -0.9155 -2.0704  0.8289
11028TIP3    H254576   3.949   1.765   0.437  1.1437  0.7780 -0.1229
11029TIP3   OH254577   0.450   4.308  11.519  0.0286 -0.7030  0.0659
11029TIP3    H154578   0.364   4.271  11.539  0.2735 -0.5905  1.4305
11029TIP3    H254579   0.488   4.247  11.456 -0.9163 -0.9226 -0.3112
11030TIP3   OH254580   0.292   0.816  15.141 -0.1057  0.1739  0.2382
11030TIP3    H154581   0.329   0.886  15.088  1.7785 -2.1863 -1.8636
11030TIP3    H254582   0.214   0.788  15.093  0.8573 -1.0936 -0.6527
11031TIP3   OH254583   5.454   4.994  13.880  0.0489  0.2778 -0.2696
11031TIP3    H154584   5.483   4.935  13.950  1.5062  1.4602  0.1698
11031TIP3    H254585   5.411   5.066  13.926  0.5303  0.7916 -0.6152
11032TIP3   OH254586   5.489   3.134  12.790 -0.0681  0.1616  0.2217
11032TIP3    H154587   5.435   3.170  12.719 -1.2855 -1.2369  0.4013
11032TIP3    H254588   5.577   3.167  12.772 -0.8207  1.9100 -0.4992
11033TIP3   OH254589   4.610   3.832   2.630  0.1589  0.6218  0.1172
11033TIP3    H154590   4.702   3.819   2.603  0.5503  1.3029  1.0835
11033TIP3    H254591   4.615   3.895   2.701 -0.9054 -0.6751  1.3887
11034TIP3   OH254592   2.610   3.134   6.590  0.5850 -0.4955  0.8871
11034TIP3    H154593   2.538   3.175   6.638 -0.1973  0.3306 -0.8674
11034TIP3    H254594   2.687   3.187   6.612 -0.2424  1.5182 -0.6709
11035TIP3   OH254595   5.031   4.874  13.731  0.1604 -0.8735  0.2479
11035TIP3    H154596   5.068   4.790  13.705 -1.6829 -1.4766 -0.6054
11035TIP3    H254597   4.945   4.876  13.689 -0.1211  1.1428  0.8274
11036TIP3   OH254598   5.389   6.684   5.369 -0.0423  0.1323 -0.1176
11036TIP3    H154599   5.446   6.757   5.395  0.5947 -0.8956  1.5143
11036TIP3    H254600   5.321   6.682   5.436 -0.1065 -0.7155 -0.2043
11037TIP3   OH254601   4.914   4.553  13.482  0.2984 -0.2963 -0.2535
11037TIP3    H154602   4.856   4.508  13.544  0.6549  0.0557  0.3537
11037TIP3    H254603   4.894   4.514  13.397 -1.8645  0.8144 -0.3209
11038TIP3   OH254604   0.304   4.479   4.808 -0.3986  0.0778  0.5559
11038TIP3    H154605   0.359   4.542   4.854 -0.0039 -0.5698  0.9836
11038TIP3    H254606   0.234   4.458   4.871 -0.0809 -0.5102  0.7161
11039TIP3   OH254607   6.411   1.077   0.673 -0.4623 -0.5199  0.1225
11039TIP3    H154608   6.489   1.051   0.722  0.5319  1.0282 -0.5513
11039TIP3    H254609   6.418   1.028   0.590  0.2308  0.1893 -0.2524
11040TIP3   OH254610   2.880   1.081  16.687 -0.0158  0.4243 -0.0187
11040TIP3    H154611   2.965   1.084  16.645 -0.0242  1.0828  0.0058
11040TIP3    H254612   2.850   1.172  16.688  0.5856  0.6617  2.6456
11041TIP3   OH254613   0.559   0.095   2.865 -0.0397 -0.1861  0.5163
11041TIP3    H154614   0.579   0.005   2.839  0.0200  0.0424 -0.2472
11041TIP3    H254615   0.636   0.124   2.915  0.1355 -0.4027  0.3712
11042TIP3   OH254616   2.073   2.744  12.945  0.0907  0.3364  0.3786
11042TIP3    H154617   2.069   2.762  13.039 -0.9109  1.0522  0.2249
11042TIP3    H254618   2.119   2.661  12.938 -3.6874 -2.1537  1.8529
11043TIP3   OH254619   2.193   3.461  15.175  0.4874 -0.1183  0.4644
11043TIP3    H154620   2.278   3.491  15.144  0.6045 -2.0529 -1.3131
11043TIP3    H254621   2.131   3.527  15.144  1.1194  0.2981  0.0633
11044TIP3   OH254622   1.162   5.490  15.457 -0.1047  0.4284 -0.2218
11044TIP3    H154623   1.106   5.419  15.425  0.7698  0.2015 -1.3125
11044TIP3    H254624   1.123   5.569  15.418 -0.1591  0.3645 -0.2996
11045TIP3   OH254625   4.149   6.120   1.559 -0.0210  0.6037 -0.3951
11045TIP3    H154626   4.154   6.091   1.650  0.0656  0.4548 -0.4481
11045TIP3    H254627   4.057   6.113   1.536  0.3967 -2.8783 -1.4798
11046TIP3   OH254628   0.114   5.443   5.305  0.0115  0.1147  0.6941
11046TIP3    H154629   0.073   5.519   5.348  0.8260  1.7451 -1.2533
11046TIP3    H254630   0.201   5.437   5.345  0.0421  0.3951  0.6740
11047TIP3   OH254631   0.729   6.796   0.333  0.0284 -0.0165  0.0750
11047TIP3    H154632   0.739   6.881   0.376  1.1940  0.2051 -0.5846
11047TIP3    H254633   0.676   6.815   0.255  1.2587  0.3412 -0.6922
11048TIP3   OH254634   2.514   1.640   2.611  0.1981 -0.5548  1.4577
11048TIP3    H154635   2.569   1.595   2.546 -0.5733 -1.8329  1.6450
11048TIP3    H254636   2.572   1.655   2.686  0.9498  0.4327  0.7180
11049TIP3   OH254637   5.401   1.564  13.010  0.5280  0.2287 -0.3487
11049TIP3    H154638   5.361   1.489  12.965 -1.2786  0.2585  1.1056
11049TIP3    H254639   5.482   1.580  12.962 -0.1814 -1.1855 -2.1358
11050TIP3   OH254640   5.642   4.991  13.657 -0.4897  0.4132 -0.1100
11050TIP3    H154641   5.551   4.974  13.682 -0.6311  1.6488  0.3233
11050TIP3    H254642   5.644   4.978  13.563 -0.6547 -1.4678  0.1195
11051TIP3   OH254643   6.419   0.737  16.953  0.0597  0.1014 -0.2808
11051TIP3    H154644   6.432   0.669  16.888  2.3531  0.7963 -0.6257
11051TIP3    H254645   6.507   0.765  16.978 -0.7618  0.9368  1.9969
11052TIP3   OH254646   0.758   4.817  14.285  0.1196  0.2493  0.3407
11052TIP3    H154647   0.670   4.806  14.322  0.8839 -0.3678  2.0340
11052TIP3    H254648   0.752   4.776  14.198 -0.7715 -1.5252  1.1888
11053TIP3   OH254649   0.356   3.849   2.724 -0.1008 -0.2131 -0.1858
11053TIP3    H154650   0.440   3.842   2.769  0.4781 -2.5836 -1.4346
11053TIP3    H254651   0.347   3.942   2.703 -0.4289  1.1454  4.5985
11054TIP3   OH254652   2.587   0.148  12.835 -0.7042 -0.0571 -0.3047
11054TIP3    H154653   2.631   0.222  12.876  0.8071 -1.3827  0.5816
11054TIP3    H254654   2.653   0.079  12.832 -1.7404 -1.0727 -2.0481
11055TIP3   OH254655   3.389   2.369  11.103 -0.0653 -0.4505  0.4684
11055TIP3    H154656   3.471   2.419  11.100  0.4524 -1.1933  1.5378
11055TIP3    H254657   3.417   2.278  11.111 -1.0057 -0.7819  0.1094
11056TIP3   OH254658   4.978   2.049   3.011  0.3877  0.3861  0.4227
11056TIP3    H154659   4.984   2.144   3.008  0.8326  0.3975  1.3283
11056TIP3    H254660   5.069   2.020   3.015  0.3417 -0.1654 -1.6273
11057TIP3   OH254661   2.331   5.013   4.076  0.1461  0.0432 -0.0050
11057TIP3    H154662   2.418   5.019   4.116 -0.1845 -0.3122  0.7887
11057TIP3    H254663   2.349   4.994   3.984  0.9243  0.7924 -0.0286
11058TIP3   OH254664   0.927   0.994   3.181 -0.4018  0.2428 -0.0450
11058TIP3    H154665   0.956   1.081   3.208 -0.8858 -0.2408  2.2180
11058TIP3    H254666   0.848   1.010   3.129 -0.9051  1.1595  0.9515
11059TIP3   OH254667   6.104   3.270  16.858 -0.1355  0.0986  0.2680
11059TIP3    H154668   6.077   3.204  16.921  1.0327  1.7551  2.6344
11059TIP3    H254669   6.027   3.285  16.803 -1.4530 -0.8667  1.7968
11060TIP3   OH254670   2.685   5.836  14.498 -0.3274 -0.3990 -0.3946
11060TIP3    H154671   2.720   5.850  14.585  0.6743  0.0041 -0.8452
11060TIP3    H254672   2.759   5.852  14.439 -1.2128  0.2626 -1.3653
11061TIP3   OH254673   2.484   3.642   4.838  0.7403 -0.0684  0.5832
11061TIP3    H154674   2.409   3.583   4.845 -0.5198  1.1260 -1.6351
11061TIP3    H254675   2.561   3.585   4.850 -0.4579 -1.8161  0.3531
11062TIP3   OH254676   2.063   6.219  16.947  0.1723  0.0358  0.5303
11062TIP3    H154677   1.986   6.191  16.997  0.1546 -0.8584  0.0328
11062TIP3    H254678   2.048   6.311  16.929 -0.6385 -0.0546  0.7123
11063TIP3   OH254679   2.160   3.356  13.348  0.0178  0.0432  0.2380
11063TIP3    H154680   2.182   3.449  13.340 -1.0738  0.2191 -0.9407
11063TIP3    H254681   2.101   3.339  13.275  2.6586 -2.3292 -1.5607
11064TIP3   OH254682   2.099   2.436  14.989  0.6073 -0.4660  0.4955
11064TIP3    H154683   2.006   2.456  14.979  0.5911  0.0636  1.5767
11064TIP3    H254684   2.133   2.433  14.899 -0.9691 -3.4171 -0.1589
11065TIP3   OH254685   0.402   2.360  12.050 -0.5374  0.4266  0.0027
11065TIP3    H154686   0.423   2.446  12.014  0.5740 -0.3187 -1.2228
11065TIP3    H254687   0.312   2.344  12.021  0.2768 -0.1001 -2.5453
11066TIP3   OH254688   6.448   4.708   0.238  0.1415 -0.2893 -0.0933
11066TIP3    H154689   6.353   4.712   0.231  0.1091 -1.0339 -0.2110
11066TIP3    H254690   6.478   4.685   0.150  0.3633 -0.8087  0.1087
11067TIP3   OH254691   6.311   2.194  14.082 -0.2772 -0.1962  0.2920
11067TIP3    H154692   6.403   2.218  14.094 -0.5104  0.8792  0.0683
11067TIP3    H254693   6.313   2.127  14.014  0.3299 -0.0456  0.1505
11068TIP3   OH254694   3.759   6.234   4.761 -0.0005 -0.1855 -0.3299
11068TIP3    H154695   3.817   6.294   4.808  0.3301 -0.1709 -0.7473
11068TIP3    H254696   3.685   6.288   4.735  0.3222  0.0624 -0.7534
11069TIP3   OH254697   0.071   1.278  10.678 -0.4672  0.5631  0.6456
11069TIP3    H154698   0.123   1.358  10.667  0.5732 -0.1721  0.0698
11069TIP3    H254699   0.073   1.236  10.592 -0.2681 -0.5147  1.1598
11070TIP3   OH254700   2.651   0.158  14.637 -0.5507  0.5321  0.1969
11070TIP3    H154701   2.567   0.114  14.655 -1.2129  0.5857 -2.4183
11070TIP3    H254702   2.716   0.100  14.676 -1.7512  0.5353  2.4015
11071TIP3   OH254703   0.468   6.025   6.587 -0.3232  0.1898 -0.5193
11071TIP3    H154704   0.551   6.017   6.635 -0.5129  1.8195  0.1675
11071TIP3    H254705   0.480   5.972   6.508  1.7059  1.0720 -0.8615
11072TIP3   OH254706   5.678   3.665   3.794 -0.3827  0.1728  0.7124
11072TIP3    H154707   5.665   3.737   3.856  0.7716  1.1512 -0.1148
11072TIP3    H254708   5.594   3.656   3.749 -1.0910 -0.2526  2.0958
11073TIP3   OH254709   5.115   6.678  14.715 -0.0976 -0.1630  0.2459
11073TIP3    H154710   5.071   6.758  14.688  1.9409  1.4172  1.3132
11073TIP3    H254711   5.084   6.612  14.654 -0.9062  1.7023 -1.4798
11074TIP3   OH254712   0.804   2.177  12.512 -0.5722  0.5521 -0.2018
11074TIP3    H154713   0.832   2.160  12.422 -1.4197  2.1000 -0.7950
11074TIP3    H254714   0.804   2.273  12.519  0.0465  0.4535  1.6368
11075TIP3   OH254715   0.185   6.380   1.880  0.8547 -0.4118 -0.7406
11075TIP3    H154716   0.227   6.396   1.796  0.9788 -4.0782 -1.5147
11075TIP3    H254717   0.255   6.389   1.945  1.5480 -0.8828 -1.4162
11076TIP3   OH254718   4.818   3.497   2.472 -0.1305  0.2277 -0.0937
11076TIP3    H154719   4.761   3.562   2.430  0.8024  0.9554 -0.2546
11076TIP3    H254720   4.798   3.505   2.565 -3.2785 -2.3978 -0.3633
11077TIP3   OH254721   4.119   4.993   5.152  0.1291 -0.1171  0.1946
11077TIP3    H154722   4.099   4.904   5.124  0.8801 -0.3705  0.4150
11077TIP3    H254723   4.105   4.992   5.247 -1.8914  0.5889 -0.0610
11078TIP3   OH254724   1.762   0.963   5.338 -0.6266 -0.5974 -0.2520
11078TIP3    H154725   1.694   1.027   5.357 -0.0414 -0.0340 -0.0104
11078TIP3    H254726   1.843   1.004   5.369 -0.1340 -1.1225 -0.8143
11079TIP3   OH254727   4.991   3.686  15.976 -0.3242 -0.1476 -0.8066
11079TIP3    H154728   5.072   3.653  15.938 -0.5704  0.2204 -1.6657
11079TIP3    H254729   5.000   3.781  15.972 -0.3786 -0.1037  0.0122
11080TIP3   OH254730   3.690   1.569  15.002  0.0873  0.5227  0.0726
11080TIP3    H154731   3.602   1.601  14.982  0.2746  0.6859 -0.5111
11080TIP3    H254732   3.710   1.604  15.088 -0.3832  0.5594  0.1691
11081TIP3   OH254733   6.549   2.414   0.735  0.0558 -0.3734 -0.7775
11081TIP3    H154734   6.568   2.408   0.829 -1.1759 -0.9197 -0.5349
11081TIP3    H254735   6.462   2.373   0.726 -0.1866  0.3751 -2.0380
11082TIP3   OH254736   6.187   5.863  17.022  0.5388 -0.5371 -0.2345
11082TIP3    H154737   6.236   5.873  17.104 -3.1147  1.1205  1.9633
11082TIP3    H254738   6.228   5.787  16.980  2.4434 -1.6933  3.2394
11083TIP3   OH254739   0.062   3.543   1.547  0.0435 -0.0386  0.0481
11083TIP3    H154740   0.130   3.590   1.596 -0.1950 -0.4274  0.7715
11083TIP3    H254741  -0.020   3.572   1.587 -0.2006  0.1574 -0.5827
11084TIP3   OH254742   4.301   3.862  16.135 -0.4362  0.6649 -0.2189
11084TIP3    H154743   4.346   3.889  16.215  2.2872 -2.2026 -0.5733
11084TIP3    H254744   4.226   3.811  16.166  0.7662 -0.6900  0.6342
11085TIP3   OH254745   1.891   4.100  17.105 -0.0751  0.1172 -0.3353
11085TIP3    H154746   1.799   4.111  17.077 -0.3191 -1.5189 -0.2618
11085TIP3    H254747   1.885   4.055  17.188  0.8251 -0.5702 -0.6368
11086TIP3   OH254748   1.828   1.015  16.823 -0.3662  0.2591  0.0578
11086TIP3    H154749   1.742   0.983  16.796  0.0761 -0.5092 -0.5097
11086TIP3    H254750   1.886   0.993  16.749  0.1487  1.5711  0.0494
11087TIP3   OH254751   1.727   0.159  15.837  0.2100  0.1495  0.2537
11087TIP3    H154752   1.672   0.235  15.853  0.5423  0.3215  0.6147
11087TIP3    H254753   1.667   0.085  15.835  0.0264  0.2489  1.3027
11088TIP3   OH254754   2.769   3.758  13.894  0.1631  0.0056  0.0722
11088TIP3    H154755   2.846   3.709  13.923 -0.4268 -0.1293  1.4961
11088TIP3    H254756   2.802   3.815  13.824  1.6368  0.2157  0.8901
11089TIP3   OH254757   4.157   6.441   2.499  0.0096 -0.2406 -0.7983
11089TIP3    H154758   4.242   6.439   2.542 -0.5747  1.5607  0.5593
11089TIP3    H254759   4.095   6.458   2.569 -1.2266  0.6796 -2.0643
11090TIP3   OH254760   0.673   6.304   5.763  0.3029 -0.5831 -0.6056
11090TIP3    H154761   0.673   6.214   5.793  0.6021 -0.5145 -0.3957
11090TIP3    H254762   0.752   6.312   5.709  0.8333 -0.1805  0.2025
11091TIP3   OH254763   2.832   1.582   1.025  0.2427  0.2788  0.1267
11091TIP3    H154764   2.817   1.528   0.948 -0.1298 -1.3386  1.2736
11091TIP3    H254765   2.747   1.585   1.069  0.3259  1.6001  0.2395
11092TIP3   OH254766   1.265   6.524  16.323  0.1302 -0.1948 -0.5706
11092TIP3    H154767   1.198   6.472  16.368  0.9143 -1.4070 -0.7633
11092TIP3    H254768   1.238   6.615  16.338 -0.7774 -0.6171  0.5574
11093TIP3   OH254769   1.543   0.308  13.081  0.4746 -0.3805  0.3054
11093TIP3    H154770   1.491   0.278  13.155 -0.0271 -1.3560 -0.4222
11093TIP3    H254771   1.556   0.402  13.097 -1.1769 -0.1876  0.7171
11094TIP3   OH254772   3.867   6.052   3.609 -0.0064  0.7932 -0.0527
11094TIP3    H154773   3.793   6.050   3.670 -0.0241  1.3908 -0.0557
11094TIP3    H254774   3.932   6.109   3.650 -0.2915  1.7578 -0.8879
11095TIP3   OH254775   1.726   2.705   1.522  0.9507 -0.8456  0.6460
11095TIP3    H154776   1.633   2.726   1.523  0.9708 -0.1096 -2.4899
11095TIP3    H254777   1.729   2.612   1.497  0.9957 -0.2454 -1.8248
11096TIP3   OH254778   3.014   3.707   5.415 -0.2885  0.0139 -0.4909
11096TIP3    H154779   2.963   3.643   5.466  0.2457 -0.0263  0.0063
11096TIP3    H254780   2.950   3.773   5.388 -0.3053  1.0638  1.8418
11097TIP3   OH254781   5.541   1.560   4.848 -0.2922  0.1811 -0.0783
11097TIP3    H154782   5.454   1.591   4.824 -0.3564  1.4879  1.6523
11097TIP3    H254783   5.543   1.567   4.943  2.0080  1.0373 -0.1269
11098TIP3   OH254784   2.100   2.951   5.999 -0.8449 -0.0901  0.8287
11098TIP3    H154785   2.176   3.004   6.020 -0.6386  0.7881 -1.7778
11098TIP3    H254786   2.031   3.014   5.978 -0.4473 -0.6388 -2.8277
11099TIP3   OH254787   2.118   2.511   0.351 -0.0231 -0.1470  0.0632
11099TIP3    H154788   2.161   2.481   0.271 -1.1197  0.0134 -0.6082
11099TIP3    H254789   2.137   2.605   0.354 -0.8467  0.0558 -0.5909
11100TIP3   OH254790   3.674   4.756   2.898 -0.0185  0.0873 -0.0394
11100TIP3    H154791   3.661   4.662   2.907  0.7975  0.0209  0.6013
11100TIP3    H254792   3.693   4.786   2.987 -2.6283  1.2735  0.2234
11101TIP3   OH254793   2.187   2.134   1.032 -0.2264  0.1827  0.1778
11101TIP3    H154794   2.204   2.084   0.952  2.6684  0.3776  0.5676
11101TIP3    H254795   2.161   2.221   1.001  0.2444  0.0775 -0.5375
11102TIP3   OH254796   3.453   3.800  13.568 -0.1903 -0.0501 -0.1355
11102TIP3    H154797   3.361   3.820  13.586 -0.3858 -1.4953  0.5631
11102TIP3    H254798   3.469   3.842  13.483 -1.6365 -0.2024 -0.5232
11103TIP3   OH254799   1.076   0.992   4.560 -0.0975 -0.2823 -0.2194
11103TIP3    H154800   1.161   1.015   4.599 -0.6597 -1.3219  1.7792
11103TIP3    H254801   1.063   0.901   4.586 -0.7244 -0.9419 -2.6319
11104TIP3   OH254802   3.586   2.314   1.831 -0.2324  0.3688  0.3250
11104TIP3    H154803   3.614   2.235   1.784 -2.8033  0.6599 -1.9786
11104TIP3    H254804   3.582   2.287   1.923 -0.7075 -2.1144 -0.3440
11105TIP3   OH254805   2.243   3.382  14.496 -0.1528 -0.2130 -0.4524
11105TIP3    H154806   2.196   3.389  14.412  1.2530 -1.1768 -1.3598
11105TIP3    H254807   2.194   3.317  14.545 -1.2279  0.6490 -0.3258
11106TIP3   OH254808   3.780   0.371  16.101 -0.3473  0.2446  0.0843
11106TIP3    H154809   3.846   0.386  16.034 -1.8281 -0.7393 -1.7133
11106TIP3    H254810   3.801   0.285  16.137 -0.0087  0.4352  0.3546
11107TIP3   OH254811   3.056   1.178  17.146 -0.3451 -0.1961  0.0199
11107TIP3    H154812   3.046   1.114  17.076  2.0234 -0.3764 -0.2210
11107TIP3    H254813   3.015   1.258  17.112 -0.0852 -0.5528 -1.1647
11108TIP3   OH254814   1.000   0.247   4.688 -0.0918 -0.1281  0.4628
11108TIP3    H154815   1.075   0.191   4.709  1.1308  1.1437 -0.3193
11108TIP3    H254816   1.037   0.335   4.683 -1.5329  0.4465 -0.5851
11109TIP3   OH254817   6.544   1.967  12.723  0.3071 -0.7937 -0.1331
11109TIP3    H154818   6.509   2.053  12.699  1.2800 -0.4685 -0.4453
11109TIP3    H254819   6.521   1.957  12.815  1.1923  0.3370  0.2322
11110TIP3   OH254820   5.548   4.627  10.473 -0.6594 -0.0818  0.4827
11110TIP3    H154821   5.533   4.721  10.470  3.1323  0.6977  0.2324
11110TIP3    H254822   5.482   4.590  10.414 -0.8126  2.7014 -1.2911
11111TIP3   OH254823   1.750   1.286   0.037 -0.4085 -0.2975 -0.1583
11111TIP3    H154824   1.833   1.321   0.006 -1.3349  1.5441 -0.7319
11111TIP3    H254825   1.745   1.199  -0.002  0.5760  0.1606 -1.3749
11112TIP3   OH254826   4.261   2.662  15.040  0.1584 -0.4616 -0.1850
11112TIP3    H154827   4.315   2.701  14.971  0.0791 -1.0870 -0.6061
11112TIP3    H254828   4.207   2.596  14.995 -2.0704  1.1627 -0.0373
11113TIP3   OH254829   3.047   3.649  12.166  1.2509  0.1059  0.2340
11113TIP3    H154830   3.076   3.738  12.188  2.0467 -0.4260  1.4051
11113TIP3    H254831   3.050   3.647  12.070 -1.2376  2.1264 -0.0058
11114TIP3   OH254832   5.464   0.339  16.238 -0.3943 -0.0384  0.3708
11114TIP3    H154833   5.509   0.419  16.212  0.5693 -0.1786  1.5325
11114TIP3    H254834   5.412   0.364  16.314  0.4109 -0.6340  1.1405
11115TIP3   OH254835   0.435   2.365  11.619 -0.6522 -0.5681  0.1743
11115TIP3    H154836   0.466   2.454  11.638 -4.1722  1.9756 -4.0591
11115TIP3    H254837   0.507   2.324  11.571  0.2997  0.7668  0.3990
11116TIP3   OH254838   1.888   5.248   6.052 -0.1009 -0.0252 -0.4531
11116TIP3    H154839   1.882   5.341   6.031  0.5868 -0.1181 -1.1020
11116TIP3    H254840   1.819   5.233   6.117 -0.0325  0.9923 -0.1370
11117TIP3   OH254841   5.937   5.750  17.112 -0.0111 -0.2623 -0.6610
11117TIP3    H154842   5.962   5.705  17.193  2.4074 -0.3672 -1.4071
11117TIP3    H254843   6.019   5.778  17.073 -1.0726 -0.4601 -3.2434
11118TIP3   OH254844   4.631   1.043  12.219  0.5492  0.0915  0.3580
11118TIP3    H154845   4.669   0.975  12.275  0.4554  0.2998  0.6785
11118TIP3    H254846   4.581   1.098  12.279 -1.4499 -0.9881 -0.2576
11119TIP3   OH254847   2.736   6.161  14.291 -0.5907 -0.0066 -0.1878
11119TIP3    H154848   2.696   6.151  14.377  0.3368 -1.3700  0.1143
11119TIP3    H254849   2.827   6.184  14.310 -1.0535  2.6643 -0.8558
11120TIP3   OH254850   3.880   6.056  14.538 -0.0694 -1.1137 -0.1697
11120TIP3    H154851   3.862   6.090  14.450  1.5026  0.7991  0.1582
11120TIP3    H254852   3.798   6.015  14.565 -2.0616  2.0220 -0.8940
11121TIP3   OH254853   3.329   5.811   0.362  0.4831 -0.0796 -0.3188
11121TIP3    H154854   3.390   5.808   0.289  0.1455  0.4513 -0.6210
11121TIP3    H254855   3.377   5.771   0.435  0.5362 -1.3726 -1.0259
11122TIP3   OH254856   2.266   2.652   0.614 -0.2530 -0.0219  0.3169
11122TIP3    H154857   2.190   2.672   0.559  0.4609 -0.6643 -0.9606
11122TIP3    H254858   2.236   2.581   0.671 -1.0511  0.7457  0.8676
11123TIP3   OH254859   0.162   4.410   6.468  0.5880 -0.3427  0.0837
11123TIP3    H154860   0.173   4.413   6.563  0.6972 -0.0565  0.0629
11123TIP3    H254861   0.226   4.473   6.435 -0.0433  0.1869 -0.1360
11124TIP3   OH254862   0.339   0.048   3.842 -0.2337  0.4586 -0.2886
11124TIP3    H154863   0.328   0.128   3.790 -0.3282 -0.2535 -1.4019
11124TIP3    H254864   0.387  -0.012   3.784 -0.0316 -0.2401  0.5816
11125TIP3   OH254865   2.080   2.013   0.284 -0.5207  0.5459 -0.2318
11125TIP3    H154866   2.065   2.034   0.192 -3.6543 -1.3299 -0.3137
11125TIP3    H254867   2.033   2.081   0.333  0.7062  1.2476  0.0071
11126TIP3   OH254868   1.804   0.234   1.843  0.0464  0.2311 -0.1267
11126TIP3    H154869   1.887   0.281   1.835 -0.8346  1.9365  0.2839
11126TIP3    H254870   1.815   0.156   1.788  0.9229  1.8561 -2.4016
11127TIP3   OH254871   3.907   3.162  17.317  0.3347 -0.3452 -0.6346
11127TIP3    H154872   3.871   3.088  17.269  0.1766 -0.6885 -0.0046
11127TIP3    H254873   3.837   3.227  17.319  0.7702  0.1860 -1.9396
11128TIP3   OH254874   4.202   2.050  17.351 -0.0429  0.2176  0.3662
11128TIP3    H154875   4.245   2.052  17.436  0.9125 -0.8359 -0.0654
11128TIP3    H254876   4.124   2.104  17.362  0.3111  0.4729  1.7691
11129TIP3   OH254877   2.607   3.104   5.482 -0.0669 -0.2767  0.0148
11129TIP3    H154878   2.614   3.036   5.415  1.1536  0.6219 -0.8093
11129TIP3    H254879   2.697   3.121   5.508 -0.4692 -0.0254  1.2946
11130TIP3   OH254880   3.596   0.911   5.672 -0.1596  0.0893 -0.0539
11130TIP3    H154881   3.518   0.936   5.623  0.1112  0.9488 -0.0585
11130TIP3    H254882   3.646   0.992   5.681  1.4778 -0.7115 -1.3816
11131TIP3   OH254883   2.578   3.287   0.186  0.3044  0.2441 -0.2567
11131TIP3    H154884   2.593   3.248   0.272  1.1650  1.1952  0.0305
11131TIP3    H254885   2.542   3.373   0.205 -1.3300 -0.2603 -0.8904
11132TIP3   OH254886   6.628   6.411   4.992  0.4101 -0.2804  0.2747
11132TIP3    H154887   6.576   6.431   4.914  0.6201 -0.5602  0.0584
11132TIP3    H254888   6.605   6.479   5.055  0.6915  0.3065 -0.2466
11133TIP3   OH254889   5.600   0.994  16.429  0.2646  0.4902  0.1583
11133TIP3    H154890   5.564   1.058  16.368 -0.0372 -1.6895 -2.1405
11133TIP3    H254891   5.602   1.038  16.513 -0.4959  3.2599 -1.1766
11134TIP3   OH254892   6.048   6.450  11.628 -0.0544 -0.1821  0.2382
11134TIP3    H154893   6.111   6.502  11.577  0.0131  0.5669  1.0519
11134TIP3    H254894   5.963   6.470  11.588  0.2862 -2.0622 -1.5841
11135TIP3   OH254895   6.349   5.900  17.261 -0.0858  0.1647  0.2287
11135TIP3    H154896   6.439   5.919  17.235 -0.7665  0.8741 -1.9107
11135TIP3    H254897   6.336   5.948  17.343  0.6307  2.5935 -0.9795
11136TIP3   OH254898   4.548   1.180  14.139 -0.7079 -0.1784 -0.4489
11136TIP3    H154899   4.572   1.183  14.047  0.7835  1.2034 -0.0664
11136TIP3    H254900   4.632   1.179  14.186 -1.4299 -1.2271  0.8928
11137TIP3   OH254901   4.526   6.707  14.753  0.0306 -0.3002  0.7387
11137TIP3    H154902   4.542   6.801  14.745  0.5443 -0.5464 -2.9005
11137TIP3    H254903   4.436   6.700  14.784 -0.5593  1.4576 -0.4294
11138TIP3   OH254904   2.658   4.989  12.871  0.5879  0.3691 -0.4944
11138TIP3    H154905   2.679   5.050  12.943 -2.7333  2.3471 -0.9901
11138TIP3    H254906   2.708   5.022  12.797  3.6567 -1.3892  0.5939
11139TIP3   OH254907   5.462   5.737  13.497  0.3005  0.0673 -0.2199
11139TIP3    H154908   5.517   5.730  13.419 -0.1079  0.6017 -0.5607
11139TIP3    H254909   5.386   5.681  13.478 -0.8498  1.8454 -1.1301
11140TIP3   OH254910   3.922   6.718   5.069 -1.2933  0.4229 -0.8671
11140TIP3    H154911   3.983   6.694   4.999 -0.0145  1.6782 -0.2428
11140TIP3    H254912   3.885   6.635   5.099 -2.5321 -0.0920 -3.5660
11141TIP3   OH254913   2.756   0.449   1.405 -0.3630 -0.1026  0.1471
11141TIP3    H154914   2.795   0.501   1.475  0.3144 -0.5315  0.0976
11141TIP3    H254915   2.819   0.454   1.333 -1.5758  1.2664 -0.8618
11142TIP3   OH254916   3.082   2.726   0.330 -0.7868  0.5580 -0.0866
11142TIP3    H154917   3.144   2.722   0.403 -1.1346 -1.7874  0.1615
11142TIP3    H254918   3.132   2.697   0.254 -1.1694  0.1096 -0.1764
11143TIP3   OH254919   4.861   0.465   4.929 -0.6208 -0.3647 -0.3094
11143TIP3    H154920   4.775   0.452   4.968  0.2557 -1.0337  1.5606
11143TIP3    H254921   4.894   0.545   4.970  0.8277 -1.7530  1.4422
11144TIP3   OH254922   5.043   3.866   5.277 -0.5306  0.2647  0.0583
11144TIP3    H154923   5.049   3.812   5.355 -0.7160 -0.8942 -0.7068
11144TIP3    H254924   4.960   3.841   5.236 -0.7814  1.3590 -0.1612
11145TIP3   OH254925   3.087   0.590  11.959 -0.0452  0.1849 -0.7028
11145TIP3    H154926   3.088   0.590  12.054 -2.2449  0.1459 -0.6476
11145TIP3    H254927   3.160   0.533  11.934 -0.7334 -1.5026  0.9733
11146TIP3   OH254928   5.279   0.343  15.628  0.0450  0.4747 -0.4843
11146TIP3    H154929   5.286   0.343  15.533 -0.3988 -2.5686 -0.6014
11146TIP3    H254930   5.190   0.374  15.646 -0.1827  0.1897 -1.1074
11147TIP3   OH254931   6.345   2.820  13.791 -0.0793  0.4415 -0.4901
11147TIP3    H154932   6.410   2.768  13.838  0.2590  0.8261 -0.5166
11147TIP3    H254933   6.285   2.757  13.753 -1.2849  0.1377  1.7358
11148TIP3   OH254934   1.547   0.588  17.162  0.1981 -0.5279 -0.7192
11148TIP3    H154935   1.618   0.556  17.105  0.2065  0.8608 -1.5392
11148TIP3    H254936   1.587   0.658  17.213 -0.6426  0.4645 -1.3977
11149TIP3   OH254937   4.382   1.113  16.455  0.5569  0.0503 -0.3407
11149TIP3    H154938   4.454   1.153  16.504  1.5365 -0.8256 -1.0323
11149TIP3    H254939   4.385   1.021  16.478 -2.8016  0.4836  2.6322
11150TIP3   OH254940   2.452   0.578   0.216  0.2386 -0.6247  0.0907
11150TIP3    H154941   2.487   0.501   0.173  0.8672 -1.1477  1.4816
11150TIP3    H254942   2.526   0.613   0.266  0.0880  1.1337 -0.8354
11151TIP3   OH254943   5.920   6.448  16.934  0.4064  0.2431  0.0128
11151TIP3    H154944   5.847   6.511  16.931 -2.6093 -2.9768 -0.2883
11151TIP3    H254945   5.930   6.426  17.026  0.5993  0.2154 -0.0130
11152TIP3   OH254946   6.761   2.771  15.021  0.2601 -0.4445 -0.1377
11152TIP3    H154947   6.696   2.780  14.951  0.5407  0.6077 -0.2767
11152TIP3    H254948   6.845   2.762  14.975  0.3363 -0.7583  0.0569
11153TIP3   OH254949   4.421   0.391   4.134  0.0871  0.3577 -0.1216
11153TIP3    H154950   4.345   0.449   4.142  0.2488  0.5474  0.0845
11153TIP3    H254951   4.414   0.332   4.209 -0.3298 -0.1954 -0.5931
11154TIP3   OH254952   0.356   1.444  16.411 -0.5371 -0.1793  0.2179
11154TIP3    H154953   0.421   1.505  16.445  0.5870 -2.0697  1.6650
11154TIP3    H254954   0.390   1.416  16.326 -0.6509  0.5760 -0.0783
11155TIP3   OH254955   0.460   1.380  13.952  0.1690 -0.2782  0.3500
11155TIP3    H154956   0.386   1.437  13.971 -0.1659 -0.9575  1.1864
11155TIP3    H254957   0.465   1.321  14.028  0.5927 -1.2482 -0.4051
11156TIP3   OH254958   5.557   3.327   4.342 -0.3037 -0.6429  0.4410
11156TIP3    H154959   5.619   3.263   4.307  0.8911 -0.0563  1.4315
11156TIP3    H254960   5.574   3.407   4.293 -2.0753 -1.1034 -1.0843
11157TIP3   OH254961   0.088   3.458  11.577 -0.2158  0.0077  0.4872
11157TIP3    H154962   0.095   3.449  11.672 -1.6153 -0.1638  0.5953
11157TIP3    H254963   0.017   3.399  11.553 -1.8964  2.1823 -0.2714
11158TIP3   OH254964   3.908   2.567  13.442 -0.0426  0.0210  0.5168
11158TIP3    H154965   3.990   2.616  13.436  1.5879 -2.6102 -0.1832
11158TIP3    H254966   3.924   2.504  13.513 -1.5514 -0.4017  0.4978
11159TIP3   OH254967   0.088   3.865  12.323 -0.4440 -0.2853  0.5847
11159TIP3    H154968   0.130   3.883  12.407 -0.4265 -0.4504  0.6103
11159TIP3    H254969   0.080   3.951  12.282  0.1210 -0.2838  0.4833
11160TIP3   OH254970   5.577   5.397   3.971 -0.2015  0.3377  0.4264
11160TIP3    H154971   5.520   5.462   3.929  1.0719  1.6621  0.6545
11160TIP3    H254972   5.521   5.321   3.984 -1.0323  0.3520 -2.3962
11161TIP3   OH254973   4.937   0.535  13.707 -0.2789 -0.2940  0.8890
11161TIP3    H154974   5.010   0.476  13.724 -1.3096 -1.3658  1.7561
11161TIP3    H254975   4.886   0.535  13.788 -1.9317 -0.5962 -0.0929
11162TIP3   OH254976   5.258   1.483   3.121  0.2349 -0.1770 -0.2432
11162TIP3    H154977   5.252   1.459   3.029 -0.5506 -0.2138 -0.1944
11162TIP3    H254978   5.260   1.578   3.121 -0.1777 -0.1669 -0.2825
11163TIP3   OH254979   5.983   0.610   2.696 -0.2005 -0.0645 -0.0799
11163TIP3    H154980   6.030   0.528   2.684  0.5277  0.5142 -1.3051
11163TIP3    H254981   5.911   0.606   2.634 -0.9588 -0.3413  0.8049
11164TIP3   OH254982   3.332   5.775   3.362  0.0826  0.3421 -0.1461
11164TIP3    H154983   3.254   5.721   3.381 -0.2497  0.9249  0.1719
11164TIP3    H254984   3.346   5.763   3.268 -0.0222 -0.2581 -0.0891
11165TIP3   OH254985   3.638   4.758  12.672  0.4366  0.1125 -0.5427
11165TIP3    H154986   3.559   4.768  12.620 -0.2046  0.8368  0.5311
11165TIP3    H254987   3.709   4.761  12.608 -0.2896  1.4868 -1.3399
11166TIP3   OH254988   6.726   1.800   1.568 -0.2669  0.0282 -0.1945
11166TIP3    H154989   6.728   1.876   1.509 -1.2274  0.0315 -0.2345
11166TIP3    H254990   6.633   1.788   1.588 -0.2861 -2.0531 -1.3507
11167TIP3   OH254991   6.260   4.658   2.718 -0.2122 -0.4574  0.0238
11167TIP3    H154992   6.219   4.638   2.634 -1.0879  0.5881  0.1701
11167TIP3    H254993   6.296   4.746   2.706 -0.9752  0.0008  0.9404
11168TIP3   OH254994   0.240   6.496   3.685  0.1076  0.3926 -0.2578
11168TIP3    H154995   0.196   6.566   3.638  0.5065  1.5174  0.9478
11168TIP3    H254996   0.220   6.513   3.777  1.1289 -0.4202  0.1416
11169TIP3   OH254997   4.292   5.976   1.214 -0.0567 -0.4656  0.1306
11169TIP3    H154998   4.226   5.907   1.218  0.9258 -1.4635 -0.4100
11169TIP3    H254999   4.350   5.959   1.288  0.2695 -0.2983 -0.0833
11170TIP3   OH255000   2.004   4.913  13.501  0.6006  0.6074 -0.1031
11170TIP3    H155001   1.949   4.846  13.460  2.6158 -0.3749 -1.3229
11170TIP3    H255002   2.024   4.878  13.588 -0.2613  0.7528  0.1679
11171TIP3   OH255003   4.800   4.257  14.439  0.0136  0.5002 -0.2266
11171TIP3    H155004   4.853   4.250  14.518  2.6308 -1.4641 -1.9741
11171TIP3    H255005   4.715   4.289  14.469  1.0754  0.4107  3.2421
11172TIP3   OH255006   5.401   0.590  11.793  0.1241  0.0101 -0.1632
11172TIP3    H155007   5.475   0.627  11.745  0.4968 -1.0234 -0.4123
11172TIP3    H255008   5.400   0.497  11.767 -0.0855 -0.4114  1.3007
11173TIP3   OH255009   0.893   2.190   0.501 -0.1147 -0.5191 -0.2329
11173TIP3    H155010   0.901   2.177   0.595 -2.6635 -0.3300  0.0813
11173TIP3    H255011   0.926   2.109   0.463 -1.1728 -1.5399  0.9483
11174TIP3   OH255012   3.160   2.644   0.724  0.0533 -0.7827  0.5812
11174TIP3    H155013   3.157   2.563   0.774  0.1904 -0.5093  1.0412
11174TIP3    H255014   3.069   2.661   0.700  0.1239 -1.5287 -0.2808
11175TIP3   OH255015   3.818   3.038   1.462  0.4818 -0.1807 -0.1159
11175TIP3    H155016   3.892   3.018   1.404  0.9440  2.6761 -0.6729
11175TIP3    H255017   3.850   3.019   1.550  2.3780  1.9366 -0.2393
11176TIP3   OH255018   4.734   6.534   2.106 -0.3026  0.0417 -0.2213
11176TIP3    H155019   4.784   6.601   2.152 -1.5027  1.4447 -0.8998
11176TIP3    H255020   4.758   6.452   2.150  1.4275  0.8430  0.4261
11177TIP3   OH255021   5.713   6.384   0.524  0.1210 -0.5672  0.4466
11177TIP3    H155022   5.629   6.428   0.512  0.2835 -0.1516  0.7925
11177TIP3    H255023   5.727   6.335   0.442  0.8436  1.5739 -0.7931
11178TIP3   OH255024   0.263   2.069  12.061  0.2958 -0.0732 -0.1347
11178TIP3    H155025   0.355   2.050  12.042  0.3566  0.7151 -0.6466
11178TIP3    H255026   0.260   2.083  12.156  0.4482 -1.4618  0.1000
11179TIP3   OH255027   1.945   5.489  16.560 -0.5152 -0.4330  0.1539
11179TIP3    H155028   2.003   5.551  16.605 -1.0216 -0.5345  0.9610
11179TIP3    H255029   1.945   5.412  16.616  0.0774 -1.1576 -0.8220
11180TIP3   OH255030   4.052   4.217  17.375  0.3953 -0.2245 -0.0110
11180TIP3    H155031   3.994   4.146  17.404  0.3756  0.3264  1.3887
11180TIP3    H255032   4.140   4.187  17.397  0.3772  0.2190  0.6967
11181TIP3   OH255033   5.332   0.409  12.814  0.8544 -0.5394 -0.9388
11181TIP3    H155034   5.405   0.387  12.756  0.8651  1.3092 -1.7046
11181TIP3    H255035   5.288   0.482  12.771  0.3654  0.3722  0.9897
11182TIP3   OH255036   6.361   5.859  12.750 -0.1903 -0.6511 -0.4345
11182TIP3    H155037   6.314   5.776  12.745 -1.3608 -0.0134 -0.6238
11182TIP3    H255038   6.330   5.898  12.832 -2.5680  1.1987 -2.0463
11183TIP3   OH255039   3.002   5.639  12.855  0.3409  0.4590 -0.5559
11183TIP3    H155040   2.997   5.670  12.945  0.6094 -1.6282  0.2391
11183TIP3    H255041   2.912   5.644  12.823  0.2462  1.2355 -0.2041
11184TIP3   OH255042   3.744   0.616  16.690 -0.0587  0.0677  0.6268
11184TIP3    H155043   3.687   0.693  16.685 -1.2346 -0.7994  0.2369
11184TIP3    H255044   3.686   0.545  16.716  0.2638 -1.3685 -2.2061
11185TIP3   OH255045   0.386   0.966   0.401 -0.1246 -0.2157  0.8341
11185TIP3    H155046   0.340   0.882   0.392  0.4160 -0.6265  1.7865
11185TIP3    H255047   0.358   0.999   0.487 -1.3103  1.2040 -0.0405
11186TIP3   OH255048   5.571   3.659   0.710  0.3699 -0.2606 -0.2726
11186TIP3    H155049   5.604   3.747   0.726  0.0004  0.1535 -1.6076
11186TIP3    H255050   5.619   3.629   0.632  0.1255 -1.0331 -0.1387
11187TIP3   OH255051   6.440   1.635  11.923 -0.6485 -0.0138 -0.3673
11187TIP3    H155052   6.348   1.608  11.927 -1.2691  2.0396  1.0024
11187TIP3    H255053   6.447   1.706  11.987  1.3441  1.4712 -2.0732
11188TIP3   OH255054   6.275   0.648  11.526  0.6252  1.1769 -0.0746
11188TIP3    H155055   6.195   0.645  11.472  1.3382  0.3814 -1.1316
11188TIP3    H255056   6.254   0.594  11.602  0.1312  1.0176 -0.3149
11189TIP3   OH255057   5.123   5.830  17.325  0.3902 -0.1733 -0.0461
11189TIP3    H155058   5.060   5.784  17.270  0.3907 -0.3511  0.1006
11189TIP3    H255059   5.189   5.862  17.264 -0.1464  0.5188 -0.2677
11190TIP3   OH255060   3.930   5.892  11.076  0.2006 -0.0035 -0.2951
11190TIP3    H155061   3.947   5.916  10.985  1.7895  2.0997  0.4579
11190TIP3    H255062   3.875   5.963  11.110  2.0516  0.8695  1.0873
11191TIP3   OH255063   1.375   2.828  12.708  0.8345  0.3652 -0.0179
11191TIP3    H155064   1.441   2.873  12.761 -0.3623  0.8372  1.0935
11191TIP3    H255065   1.301   2.889  12.703  1.8259  1.6279 -4.6018
11192TIP3   OH255066   0.364   5.755  15.605 -0.7317  0.3411  0.0060
11192TIP3    H155067   0.383   5.746  15.511  1.3969 -0.4876  0.4651
11192TIP3    H255068   0.426   5.821  15.636 -1.7697  0.9880  0.7545
11193TIP3   OH255069   1.655   1.235   1.327 -0.0168 -0.6257  0.4631
11193TIP3    H155070   1.624   1.151   1.361 -0.3620 -0.4932  0.4852
11193TIP3    H255071   1.737   1.251   1.374  0.6793 -1.5196 -0.4091
11194TIP3   OH255072   1.440   0.761  14.131 -0.4899  0.4968 -0.2076
11194TIP3    H155073   1.474   0.830  14.188 -0.9041  1.3664 -0.9905
11194TIP3    H255074   1.384   0.806  14.069  0.8124 -0.2602 -2.0225
11195TIP3   OH255075   5.506   1.776  15.332 -0.4592  0.2495 -0.1481
11195TIP3    H155076   5.432   1.762  15.391 -0.6761 -0.1410 -0.5036
11195TIP3    H255077   5.467   1.776  15.244  0.2107 -2.2408 -0.5196
11196TIP3   OH255078   4.185   6.115   4.104 -0.7444 -0.1312  0.1917
11196TIP3    H155079   4.116   6.102   4.169 -1.0696 -0.0606 -0.1339
11196TIP3    H255080   4.252   6.050   4.127  0.3197  1.5381  2.1340
11197TIP3   OH255081   1.638   6.776   0.290 -0.4915  0.1550  0.1413
11197TIP3    H155082   1.664   6.782   0.382  2.7867  0.6470 -0.6702
11197TIP3    H255083   1.717   6.746   0.245 -2.2161 -0.8823 -2.4612
11198TIP3   OH255084   3.975   4.180   2.229  1.0936 -0.2273  0.3560
11198TIP3    H155085   4.025   4.210   2.305  2.2371 -0.2514 -0.3629
11198TIP3    H255086   3.937   4.259   2.193  1.5729 -0.0414  0.2447
11199TIP3   OH255087   2.526   3.017   3.068  0.6664  0.2722 -0.1310
11199TIP3    H155088   2.460   3.084   3.051  1.4184  1.7271  2.1654
11199TIP3    H255089   2.543   2.978   2.982 -1.4764  1.4111 -1.1645
11200TIP3   OH255090   3.986   1.551  12.875  0.3733 -0.2163  0.0402
11200TIP3    H155091   3.958   1.616  12.810 -1.9727  0.4755  1.5927
11200TIP3    H255092   4.018   1.604  12.948 -3.4099 -0.4695  2.1526
11201TIP3   OH255093   1.354   2.447  13.472 -0.2706 -0.5612  0.5390
11201TIP3    H155094   1.380   2.417  13.560  0.5860  0.6615  0.7311
11201TIP3    H255095   1.259   2.444  13.473 -0.2941  0.0327  1.7443
11202TIP3   OH255096   4.577   1.241   6.293  0.2423  0.6053  1.0747
11202TIP3    H155097   4.651   1.292   6.326  0.1212  1.1630  0.5029
11202TIP3    H255098   4.613   1.189   6.222  0.1993  0.4814  1.1436
11203TIP3   OH255099   5.927   3.923  11.636  0.1991  0.8189 -0.2548
11203TIP3    H155100   6.010   3.967  11.655  0.4562 -0.8095  3.0920
11203TIP3    H255101   5.860   3.990  11.649  0.8663  1.9456 -2.2174
11204TIP3   OH255102   4.570   6.076  12.364 -0.3327  0.2092  0.2713
11204TIP3    H155103   4.484   6.038  12.347  0.9222 -2.7208 -0.3051
11204TIP3    H255104   4.617   6.067  12.281  0.9809  0.3436  0.9747
11205TIP3   OH255105   1.407   0.278  16.849 -0.0435  0.3051 -0.4612
11205TIP3    H155106   1.433   0.237  16.931  0.6794  0.5963 -0.5330
11205TIP3    H255107   1.349   0.349  16.874  0.9332  0.9947 -0.1206
11206TIP3   OH255108   1.827   3.361   1.325 -0.0603 -0.5270 -0.4029
11206TIP3    H155109   1.748   3.347   1.272  1.1915 -0.8722 -2.2680
11206TIP3    H255110   1.852   3.452   1.307  0.0258 -0.4447  0.1200
11207TIP3   OH255111   2.536   1.263  11.542  0.3257  0.4581 -0.0286
11207TIP3    H155112   2.452   1.218  11.550 -1.0005  2.2200 -2.5759
11207TIP3    H255113   2.524   1.346  11.588  1.8726 -0.5797  2.4164
11208TIP3   OH255114   6.356   3.078   0.224 -0.4573  0.5693 -0.7918
11208TIP3    H155115   6.393   3.057   0.139  0.7000 -2.4012  0.3001
11208TIP3    H255116   6.405   3.023   0.285 -2.5473  1.1459  1.5536
11209TIP3   OH255117   3.432   3.055  12.398 -0.1633 -0.3173 -0.0967
11209TIP3    H155118   3.452   3.059  12.491  1.8833  0.9013 -0.5150
11209TIP3    H255119   3.377   3.132  12.381 -2.0678 -1.5183  0.3685
11210TIP3   OH255120   3.095   5.260   0.062 -0.3660 -0.7725  0.2345
11210TIP3    H155121   3.052   5.318   0.124 -0.1628 -0.3048 -0.0586
11210TIP3    H255122   3.064   5.172   0.086 -1.9643 -0.4054 -0.3545
11211TIP3   OH255123   5.023   3.083   2.679 -0.0021 -0.9191 -0.0311
11211TIP3    H155124   5.089   3.089   2.748 -0.5636  2.0731  0.3910
11211TIP3    H255125   5.074   3.084   2.598  0.5451  0.5102  0.3019
11212TIP3   OH255126   0.191   2.505   6.028 -0.6263  0.1085  0.4406
11212TIP3    H155127   0.257   2.436   6.023 -2.2481 -1.5151  0.4455
11212TIP3    H255128   0.225   2.575   5.971  0.8183 -0.8960  0.0144
11213TIP3   OH255129   2.456   5.014  15.148  0.0304  0.1227  0.2900
11213TIP3    H155130   2.460   5.084  15.213 -1.6282 -1.9161  2.7980
11213TIP3    H255131   2.526   4.954  15.174  1.6380  0.8844 -2.0151
11214TIP3   OH255132   2.798   2.419   0.818 -0.0746 -0.6131 -0.3825
11214TIP3    H155133   2.879   2.404   0.769 -0.0530  0.4656 -0.7032
11214TIP3    H255134   2.735   2.449   0.753 -0.1533  0.4743  0.1722
11215TIP3   OH255135   3.922   4.704   0.195  0.1917 -0.3278  0.2710
11215TIP3    H155136   3.923   4.794   0.161  0.3144  0.1682  1.5171
11215TIP3    H255137   3.971   4.653   0.131  2.0374  0.9135  0.6228
11216TIP3   OH255138   3.964   5.653   6.109  0.0827  0.4110  0.1839
11216TIP3    H155139   3.992   5.579   6.055 -2.4532  0.9531 -2.0627
11216TIP3    H255140   3.978   5.730   6.055 -3.1910  0.9114 -0.1559
11217TIP3   OH255141   3.670   3.780  12.408  0.2505 -0.5916 -0.2779
11217TIP3    H155142   3.609   3.795  12.336  0.2143 -0.8100 -0.2910
11217TIP3    H255143   3.757   3.789  12.369  0.2360 -1.2178 -0.4535
11218TIP3   OH255144   6.387   5.898  14.789  0.4635  0.1267 -0.5355
11218TIP3    H155145   6.475   5.907  14.753  1.1706 -1.8754  0.5862
11218TIP3    H255146   6.360   5.809  14.766 -0.7117  0.2224  0.3590
11219TIP3   OH255147   3.507   0.705   2.727 -0.2590 -0.0552  0.4878
11219TIP3    H155148   3.453   0.783   2.713  1.1169  0.7201 -0.9059
11219TIP3    H255149   3.467   0.637   2.673  0.7564  0.8622 -1.5623
11220TIP3   OH255150   1.607   5.090  16.138 -0.3747  0.0250  0.2482
11220TIP3    H155151   1.554   5.154  16.090  1.1623 -0.1631 -1.8459
11220TIP3    H255152   1.637   5.136  16.216 -2.1291  0.6878  0.5669
11221TIP3   OH255153   4.639   3.033  13.383 -0.0885 -0.5012 -0.2248
11221TIP3    H155154   4.558   2.985  13.400 -1.7649  1.5237 -1.9740
11221TIP3    H255155   4.680   2.985  13.311  0.0371 -1.2294  0.3160
11222TIP3   OH255156   1.687   5.527  14.385  0.4692  0.0011 -0.1690
11222TIP3    H155157   1.676   5.431  14.382  1.3855 -0.1008 -2.6241
11222TIP3    H255158   1.667   5.550  14.476  0.6100 -2.5635  0.6076
11223TIP3   OH255159   6.165   3.813   2.358  0.1871  0.5113  0.7615
11223TIP3    H155160   6.195   3.903   2.372  0.0729  0.9255 -1.3283
11223TIP3    H255161   6.243   3.765   2.333 -0.3009  0.9622 -1.9335
11224TIP3   OH255162   4.870   6.271  15.382 -0.0179  0.0054 -0.0566
11224TIP3    H155163   4.864   6.314  15.467 -0.7476  1.7965 -0.9630
11224TIP3    H255164   4.951   6.220  15.387 -1.0606 -1.5998  2.3962
11225TIP3   OH255165   1.385   2.463   6.206  0.3141  0.8057 -0.2092
11225TIP3    H155166   1.348   2.485   6.120 -1.9532 -0.4516  0.3742
11225TIP3    H255167   1.320   2.494   6.268  1.2465  0.3854  1.0117
11226TIP3   OH255168   4.697   1.296  11.727 -0.0849 -0.1283 -0.4972
11226TIP3    H155169   4.748   1.378  11.721 -1.1345  0.5873  0.0824
11226TIP3    H255170   4.656   1.301  11.813  2.0389 -2.6036  0.8050
11227TIP3   OH255171   6.748   5.455  13.692 -0.2632  0.1727  0.6504
11227TIP3    H155172   6.666   5.482  13.734 -0.4967 -0.6478  0.7562
11227TIP3    H255173   6.738   5.360  13.680 -0.6640  0.5127 -2.2908
11228TIP3   OH255174   4.114   3.234  13.204  0.2716 -0.1737 -0.4964
11228TIP3    H155175   4.177   3.290  13.158  1.4780 -0.5026  0.6597
11228TIP3    H255176   4.044   3.293  13.230 -0.5312 -0.0217 -2.8533
11229TIP3   OH255177   3.212   3.418  13.262  0.8016 -0.3810  0.7409
11229TIP3    H155178   3.278   3.351  13.243 -0.4823 -1.3357 -0.6231
11229TIP3    H255179   3.144   3.403  13.196 -0.1205  1.4692  1.2213
11230TIP3   OH255180   0.662   6.443  15.070  0.4363 -0.1980 -0.1728
11230TIP3    H155181   0.734   6.421  15.130  0.6061  3.1352  1.0796
11230TIP3    H255182   0.705   6.489  14.998 -0.0108 -2.3817 -1.9414
11231TIP3   OH255183   5.633   1.665   5.830  0.3604 -0.7488  0.6568
11231TIP3    H155184   5.674   1.682   5.745  0.0672 -0.8399  0.4947
11231TIP3    H255185   5.664   1.577   5.853 -1.3158 -1.6786 -0.4201
11232TIP3   OH255186   0.713   5.641  13.305 -0.2096  0.5779 -0.3993
11232TIP3    H155187   0.635   5.623  13.252  0.0599 -0.6242 -0.4224
11232TIP3    H255188   0.697   5.596  13.388 -0.3405  1.9015  0.3218
11233TIP3   OH255189   4.329   1.841  11.518  0.3358 -0.2049  0.6841
11233TIP3    H155190   4.379   1.922  11.516 -1.8487  1.2120  0.2809
11233TIP3    H255191   4.247   1.863  11.563 -0.1482 -2.3132  0.9859
11234TIP3   OH255192   4.134   6.152  14.195  0.0375  0.2873 -0.4688
11234TIP3    H155193   4.212   6.176  14.144  1.0964 -0.1066  0.8951
11234TIP3    H255194   4.087   6.090  14.139  0.1455  1.2779 -1.7307
11235TIP3   OH255195   0.840   6.181  10.982 -0.1622  0.2630 -0.4435
11235TIP3    H155196   0.792   6.264  10.992 -3.6510 -1.4376 -1.4846
11235TIP3    H255197   0.883   6.188  10.897 -3.1929 -0.0950 -2.1332
11236TIP3   OH255198   6.655   0.447  11.099  0.0239 -0.3083  0.4227
11236TIP3    H155199   6.588   0.485  11.042  0.8600 -0.8095 -0.9533
11236TIP3    H255200   6.671   0.515  11.165  1.0458  1.5641 -1.5962
11237TIP3   OH255201   6.656   3.918  15.015 -0.3205  0.2484 -0.4254
11237TIP3    H155202   6.658   3.847  15.079 -0.0214 -0.5204 -1.2602
11237TIP3    H255203   6.643   3.874  14.931 -0.8704  1.2465 -0.8817
11238TIP3   OH255204   0.893   3.463  13.634  0.0893 -0.0084 -1.1252
11238TIP3    H155205   0.834   3.488  13.705 -0.0533  0.1560 -1.2981
11238TIP3    H255206   0.944   3.542  13.616  0.4389 -0.1821 -0.9022
11239TIP3   OH255207   1.277   2.249  14.721  0.8957  0.4209 -0.6708
11239TIP3    H155208   1.271   2.340  14.752 -2.0434  0.1416 -0.1795
11239TIP3    H255209   1.371   2.231  14.718  1.5414  3.2157 -0.0507
11240TIP3   OH255210   4.923   1.704  16.440 -0.0044 -0.5170 -0.6013
11240TIP3    H155211   4.983   1.652  16.387 -0.9548 -0.5630 -1.6672
11240TIP3    H255212   4.900   1.778  16.384 -2.0572 -1.2404 -0.8098
11241TIP3   OH255213   5.439   3.773   5.911  0.1711 -0.6627 -0.4397
11241TIP3    H155214   5.449   3.681   5.935 -2.0663 -0.5278  1.2994
11241TIP3    H255215   5.401   3.771   5.823  1.0108 -1.3536 -0.8062
11242TIP3   OH255216   4.011   5.411  16.601  0.2173 -0.4185 -0.2613
11242TIP3    H155217   4.070   5.485  16.605  0.7403 -0.7864  4.0797
11242TIP3    H255218   3.930   5.446  16.563  0.6879  2.2299  0.9855
11243TIP3   OH255219   2.246   4.298   1.041 -0.4996  0.0779  0.0816
11243TIP3    H155220   2.204   4.213   1.056  0.4567 -0.5226 -0.5363
11243TIP3    H255221   2.331   4.276   1.004 -0.3279  1.3248 -0.2959
11244TIP3   OH255222   4.857   5.983  13.154 -0.1483  0.3892  0.1621
11244TIP3    H155223   4.798   5.912  13.129 -0.0938  0.1464  0.7061
11244TIP3    H255224   4.860   6.040  13.077  0.0887 -0.3884 -0.4187
11245TIP3   OH255225   0.421   5.591   0.912 -0.1195 -0.2028 -0.4047
11245TIP3    H155226   0.424   5.575   0.818 -0.8733  2.1130 -0.8947
11245TIP3    H255227   0.485   5.530   0.949  0.9269 -0.4872 -2.5260
11246TIP3   OH255228   4.942   0.069   2.360  0.1245  0.6119 -0.0207
11246TIP3    H155229   4.918   0.139   2.420 -0.0685  0.6428 -0.1345
11246TIP3    H255230   4.865   0.055   2.306  0.3372  0.6599 -0.3397
11247TIP3   OH255231   5.401   5.450  13.357  0.6605  0.7916 -0.2975
11247TIP3    H155232   5.332   5.506  13.393  0.9572  0.8892  0.1273
11247TIP3    H255233   5.401   5.373  13.414  0.2659  0.3639 -0.8686
11248TIP3   OH255234   6.792   2.177   2.134 -0.2973  0.2011 -0.0871
11248TIP3    H155235   6.864   2.222   2.090  0.7218 -0.1657  1.1699
11248TIP3    H255236   6.729   2.158   2.064  1.7459 -1.3411 -1.6063
11249TIP3   OH255237   2.923   6.400  11.453 -0.7062 -0.1563 -0.2685
11249TIP3    H155238   2.868   6.421  11.378 -1.7825  0.8903  0.7648
11249TIP3    H255239   2.875   6.330  11.499  0.1686 -1.1117 -0.7684
11250TIP3   OH255240   6.243   4.256  14.799 -0.0163  0.1754  0.6743
11250TIP3    H155241   6.188   4.185  14.831  0.8191  0.8958  4.0341
11250TIP3    H255242   6.181   4.317  14.757 -1.1668 -0.9280  0.7119
11251TIP3   OH255243   2.711   3.576  10.895  0.0603 -0.3425  0.2802
11251TIP3    H155244   2.647   3.645  10.873 -0.9780 -1.1998  0.5202
11251TIP3    H255245   2.794   3.610  10.864 -0.5126  0.8092 -0.0650
11252TIP3   OH255246   3.601   0.460  16.398  0.0501  0.5022  0.1771
11252TIP3    H155247   3.580   0.552  16.417  1.5362  1.1032 -0.8238
11252TIP3    H255248   3.661   0.434  16.468 -1.2378 -0.1092  1.1000
11253TIP3   OH255249   6.143   2.488  16.229 -0.3225 -0.2548 -1.0885
11253TIP3    H155250   6.098   2.549  16.171 -0.4130 -0.2530 -1.0162
11253TIP3    H255251   6.236   2.505  16.213 -0.3434  0.2421 -0.7123
11254TIP3   OH255252   0.581   4.479  13.617  0.0483 -0.3251  0.5646
11254TIP3    H155253   0.616   4.390  13.615  0.7639 -0.0531  0.3946
11254TIP3    H255254   0.647   4.531  13.572 -0.2009  0.3474  0.9549
11255TIP3   OH255255   5.450   0.350   3.888  0.5617 -0.0089 -0.4561
11255TIP3    H155256   5.455   0.445   3.900  2.4628 -0.0471 -0.5492
11255TIP3    H255257   5.509   0.333   3.814  0.5510 -1.2910 -0.1863
11256TIP3   OH255258   4.936   3.038  14.006  0.1201  0.0027  0.2024
11256TIP3    H155259   4.974   2.963  14.052  0.0635  0.3482  0.8256
11256TIP3    H255260   4.961   3.114  14.059 -1.9091  0.1930  0.9850
11257TIP3   OH255261   1.645   0.591  15.082  0.3423 -0.2583  0.5155
11257TIP3    H155262   1.611   0.504  15.101 -0.2192 -0.1332  0.1099
11257TIP3    H255263   1.593   0.621  15.007  0.0996  0.6811  1.0527
11258TIP3   OH255264   2.969   4.997   0.777 -0.1849 -0.6082  0.4151
11258TIP3    H155265   2.983   5.021   0.685 -1.1867 -1.1562  0.1125
11258TIP3    H255266   3.043   5.038   0.823 -0.2759  0.6310 -0.4740
11259TIP3   OH255267   1.749   3.672   0.469  0.0972  0.4122 -0.8043
11259TIP3    H155268   1.832   3.720   0.469  0.0619  0.4990 -1.8873
11259TIP3    H255269   1.762   3.602   0.533  0.9368  0.5357 -0.8246
11260TIP3   OH255270   3.579   5.720   4.265 -0.3062  0.5402 -0.6806
11260TIP3    H155271   3.504   5.690   4.315 -1.0756 -0.0709 -2.1376
11260TIP3    H255272   3.654   5.705   4.323 -0.9475 -1.9162 -0.3721
11261TIP3   OH255273   4.995   5.802   2.834 -0.2404 -0.0894 -0.2852
11261TIP3    H155274   5.059   5.746   2.790 -0.6807 -0.5361 -0.3645
11261TIP3    H255275   4.943   5.840   2.763  0.0477  0.4128 -0.2312
11262TIP3   OH255276   4.343   6.571  15.270  0.3433  0.6192  0.5180
11262TIP3    H155277   4.399   6.608  15.201 -0.9569 -0.0190 -0.9419
11262TIP3    H255278   4.392   6.586  15.351  3.1910 -0.9193 -0.7563
11263TIP3   OH255279   5.348   2.561  16.806 -0.9363  0.1254 -0.6094
11263TIP3    H155280   5.317   2.555  16.715 -1.2194  2.3178 -0.7126
11263TIP3    H255281   5.269   2.546  16.858 -1.8495  3.2820 -0.8512
11264TIP3   OH255282   0.290   4.232   5.874 -0.5775 -0.6996 -0.7184
11264TIP3    H155283   0.272   4.280   5.955 -2.5269 -0.9299 -0.9661
11264TIP3    H255284   0.204   4.205   5.842  0.3348 -3.0554 -1.3933
11265TIP3   OH255285   2.505   5.744  13.712 -0.5417  0.0381  0.0748
11265TIP3    H155286   2.533   5.653  13.720 -0.9332  0.0332  1.9741
11265TIP3    H255287   2.412   5.739  13.687 -0.8880 -0.1518  1.3146
11266TIP3   OH255288   6.027   4.420   0.875  0.5593 -0.1763  0.6107
11266TIP3    H155289   6.006   4.512   0.863 -0.0732 -0.4604 -0.6596
11266TIP3    H255290   6.121   4.414   0.856  1.1036  0.5210  2.8179
11267TIP3   OH255291   4.751   6.050   4.003 -0.2326 -0.4784 -0.6272
11267TIP3    H155292   4.837   6.045   3.960  0.2488 -0.7046  0.3359
11267TIP3    H255293   4.700   6.110   3.948  1.0968  1.0181 -0.2944
11268TIP3   OH255294   0.870   0.427   1.916  0.2292  0.1918 -0.2166
11268TIP3    H155295   0.901   0.442   1.826 -0.6642  3.6500 -0.0952
11268TIP3    H255296   0.823   0.344   1.911 -0.6592  0.7413 -3.2581
11269TIP3   OH255297   5.793   5.984   2.613  0.2331 -0.2560 -0.3932
11269TIP3    H155298   5.771   5.899   2.651 -1.4876  0.7400  1.0100
11269TIP3    H255299   5.724   6.043   2.644  1.4634  1.7080 -1.1578
11270TIP3   OH255300   4.163   5.517  15.915 -0.0596 -0.3151  0.1257
11270TIP3    H155301   4.249   5.550  15.890  1.4655 -3.7380  0.1678
11270TIP3    H255302   4.120   5.496  15.832  1.0482 -2.6557  0.0524
11271TIP3   OH255303   6.542   6.246   4.337 -0.8251  0.2553  0.1384
11271TIP3    H155304   6.630   6.225   4.369  0.7952  4.5517 -0.8971
11271TIP3    H255305   6.490   6.257   4.417 -0.1327 -0.9675  0.8076
11272TIP3   OH255306   5.737   4.963   2.985  0.0782 -0.0847 -0.0674
11272TIP3    H155307   5.649   4.924   2.976  0.2230 -0.3272 -0.5021
11272TIP3    H255308   5.759   4.952   3.077 -0.1396 -0.4959 -0.0609
11273TIP3   OH255309   4.245   2.223   1.164 -0.3720 -0.1483 -0.3562
11273TIP3    H155310   4.335   2.253   1.149 -0.3950  0.4609  0.6203
11273TIP3    H255311   4.222   2.175   1.085  0.6546  0.0792 -0.8084
11274TIP3   OH255312   5.976   2.268   5.410  0.2694 -0.1468 -0.1928
11274TIP3    H155313   5.997   2.323   5.485  1.0606 -2.0114  1.0304
11274TIP3    H255314   6.059   2.227   5.387 -0.4020 -1.2765 -0.6627
11275TIP3   OH255315   6.511   6.463   6.441  0.0505 -0.3421  0.0749
11275TIP3    H155316   6.420   6.491   6.445  0.4973  1.3959 -0.8593
11275TIP3    H255317   6.540   6.463   6.532 -0.3366  1.1217  0.2248
11276TIP3   OH255318   4.274   5.477  17.053 -0.2760 -0.1492 -0.3950
11276TIP3    H155319   4.285   5.529  16.973 -0.5277  1.1439  0.3784
11276TIP3    H255320   4.182   5.487  17.076 -0.2641 -0.7277 -0.0738
11277TIP3   OH255321   0.901   6.507  12.481 -0.3986  0.3983  0.2613
11277TIP3    H155322   0.961   6.578  12.457 -0.0391  0.9089  2.4879
11277TIP3    H255323   0.907   6.501  12.576 -0.0620 -2.9918  0.1409
11278TIP3   OH255324   3.291   4.815  12.868  0.1987 -0.3540  0.5369
11278TIP3    H155325   3.199   4.794  12.856 -0.3313  1.3505  1.2934
11278TIP3    H255326   3.316   4.863  12.788  0.2593 -0.3081  0.5822
11279TIP3   OH255327   3.759   4.090   3.607  0.0128 -0.2532  0.3956
11279TIP3    H155328   3.735   4.157   3.543 -1.4877 -1.3828 -0.2967
11279TIP3    H255329   3.844   4.058   3.577 -0.3860 -0.3408 -0.7100
11280TIP3   OH255330   4.838   2.863  12.456  0.1060 -0.2992 -0.1013
11280TIP3    H155331   4.883   2.899  12.532 -1.0358  0.8963  0.0441
11280TIP3    H255332   4.771   2.928  12.435 -1.9689 -2.2694  0.0811
11281TIP3   OH255333   1.512   4.577  13.982 -0.6485  0.0080 -0.6286
11281TIP3    H155334   1.435   4.588  14.038 -0.1945  0.2003 -0.0227
11281TIP3    H255335   1.545   4.489  14.004 -1.4926 -0.6656 -1.9213
11282TIP3   OH255336   4.107   6.761   2.428  0.4019 -0.0786  0.0778
11282TIP3    H155337   4.127   6.722   2.343  0.4183 -2.1642  1.0020
11282TIP3    H255338   4.016   6.736   2.445  0.0607  1.1846  0.2671
11283TIP3   OH255339   5.407   6.467   5.126 -0.4026 -0.0877  0.4039
11283TIP3    H155340   5.341   6.440   5.189  0.7450 -1.4259  1.1027
11283TIP3    H255341   5.408   6.563   5.131 -1.5165 -0.1087  1.1584
11284TIP3   OH255342   4.667   1.043  16.586 -0.0068  0.1721  0.3975
11284TIP3    H155343   4.656   0.967  16.644  0.4252 -0.3635 -0.2153
11284TIP3    H255344   4.740   1.020  16.530 -0.7141  0.4838 -0.6797
11285TIP3   OH255345   1.274   1.294   3.047  0.1499 -0.8915  0.1529
11285TIP3    H155346   1.230   1.243   3.115 -0.8876  1.1254  1.1064
11285TIP3    H255347   1.278   1.383   3.083  0.5208  0.0284 -1.9981
11286TIP3   OH255348   3.920   3.893   1.886  0.2111 -0.3546 -0.6891
11286TIP3    H155349   3.991   3.893   1.822  0.5227 -0.0138 -0.3424
11286TIP3    H255350   3.857   3.956   1.853  1.4984  1.6958  0.5769
11287TIP3   OH255351   5.940   6.792  15.845 -0.2575  0.5464  0.1053
11287TIP3    H155352   5.979   6.878  15.859  0.7625 -0.0013  0.7393
11287TIP3    H255353   6.005   6.744  15.793 -0.9982  0.2741 -0.6096
11288TIP3   OH255354   1.218   2.899   1.654  0.2302 -0.1613 -0.1743
11288TIP3    H155355   1.266   2.918   1.573  1.9569 -1.0173  0.5970
11288TIP3    H255356   1.247   2.967   1.715  0.6563 -0.8325  0.3732
11289TIP3   OH255357   5.855   5.249   6.124 -0.4520 -0.6538  0.4240
11289TIP3    H155358   5.822   5.225   6.211  0.9645  1.4319  1.6191
11289TIP3    H255359   5.899   5.333   6.138 -1.2313  0.3596 -2.5610
11290TIP3   OH255360   2.137   0.974   5.598  0.3174 -0.1014 -0.0637
11290TIP3    H155361   2.074   1.018   5.540  0.3918 -3.3529 -2.9338
11290TIP3    H255362   2.221   1.014   5.575  0.0235  0.3887 -0.3249
11291TIP3   OH255363   0.604   1.384   6.294  0.4807 -0.2801  0.3007
11291TIP3    H155364   0.587   1.346   6.208 -0.1611  0.4842  0.0760
11291TIP3    H255365   0.572   1.318   6.356  3.7965 -2.2709  0.1188
11292TIP3   OH255366   2.484   5.212   3.644  0.0958 -0.1208 -0.1476
11292TIP3    H155367   2.567   5.239   3.605 -0.1231  0.1823 -0.4067
11292TIP3    H255368   2.450   5.291   3.686 -0.4915 -0.0173 -0.8050
11293TIP3   OH255369   2.353   1.561   3.201  0.4397  0.1972  0.2677
11293TIP3    H155370   2.340   1.623   3.129  0.1739  0.2737  0.3838
11293TIP3    H255371   2.306   1.599   3.275 -2.0288 -1.4414 -0.3408
11294TIP3   OH255372   3.547   0.185   1.550 -0.5663 -0.1256  0.2942
11294TIP3    H155373   3.456   0.181   1.580 -0.5794  0.4139  0.3363
11294TIP3    H255374   3.578   0.271   1.579 -0.1948 -0.1046 -0.1552
11295TIP3   OH255375   2.687   5.611   6.034 -0.2079  0.4226  0.5150
11295TIP3    H155376   2.636   5.535   6.061  1.4626 -1.0683 -0.2952
11295TIP3    H255377   2.748   5.626   6.106  0.7509 -0.2553 -0.1350
11296TIP3   OH255378   0.097   1.198   6.165 -0.8085  0.2131 -0.4011
11296TIP3    H155379   0.045   1.232   6.237 -1.5546 -1.5904 -0.0456
11296TIP3    H255380   0.157   1.135   6.205 -0.2946  0.1782 -1.1822
11297TIP3   OH255381   4.167   0.423   3.316  0.4406  0.3093 -0.2236
11297TIP3    H155382   4.214   0.471   3.248  0.6174 -1.2711 -1.2700
11297TIP3    H255383   4.114   0.490   3.361  0.3418  1.4030 -1.8801
11298TIP3   OH255384   6.622   1.278  15.590  0.3351  0.2853 -0.1446
11298TIP3    H155385   6.629   1.229  15.508  0.0192  0.9435 -0.5764
11298TIP3    H255386   6.640   1.369  15.566 -1.0001  0.6864  0.2665
11299TIP3   OH255387   0.639   5.208  14.101  0.3674 -0.2954 -0.0895
11299TIP3    H155388   0.639   5.162  14.017  0.6024  1.3134 -0.9980
11299TIP3    H255389   0.632   5.301  14.078  0.7234  0.2006  1.6619
11300TIP3   OH255390   6.677   3.795   2.077 -0.1131 -0.3254  0.3973
11300TIP3    H155391   6.595   3.791   2.028 -0.7359  1.1917  1.2304
11300TIP3    H255392   6.730   3.724   2.042 -1.4177 -0.7380 -0.8275
11301TIP3   OH255393   5.308   4.983  14.227  0.7981  0.1514  0.0557
11301TIP3    H155394   5.358   5.024  14.156  2.3178  0.2216  1.1166
11301TIP3    H255395   5.230   4.948  14.184  1.0684  1.2699 -1.4293
11302TIP3   OH255396   3.637   6.802   1.877  0.3998 -0.2270  0.3239
11302TIP3    H155397   3.542   6.796   1.880  0.4917 -2.1309  0.3107
11302TIP3    H255398   3.659   6.790   1.785  0.5582  3.0752 -0.1783
11303TIP3   OH255399   2.970   1.931  13.541  0.3748 -0.4917  0.2926
11303TIP3    H155400   2.901   1.959  13.601  1.1361  0.9125  0.5584
11303TIP3    H255401   2.926   1.919  13.457 -0.2271  0.2057  0.5010
11304TIP3   OH255402   2.163   4.710   4.742 -0.1967 -0.1090  0.0540
11304TIP3    H155403   2.186   4.761   4.664  1.5377  0.7471  1.0746
11304TIP3    H255404   2.217   4.632   4.736  1.9130  1.1424  1.6269
11305TIP3   OH255405   5.261   2.449   3.354  0.4354  0.1499 -0.3542
11305TIP3    H155406   5.233   2.505   3.427 -0.9032 -2.4880  1.2896
11305TIP3    H255407   5.179   2.417   3.316  1.0871 -2.5163  0.2979
11306TIP3   OH255408   0.730   6.449   3.035  0.3445 -0.0426  0.5717
11306TIP3    H155409   0.702   6.358   3.038  1.8607 -0.5350  0.9074
11306TIP3    H255410   0.732   6.471   2.942 -0.5167 -0.1763  0.5140
11307TIP3   OH255411   4.154   2.775  13.971  0.4106 -0.0206 -0.2938
11307TIP3    H155412   4.095   2.717  14.019  1.7660 -1.7175 -0.5501
11307TIP3    H255413   4.212   2.811  14.039 -0.5763  1.2846 -0.1029
11308TIP3   OH255414   1.690   5.085   1.608 -0.1337  0.7343 -0.0045
11308TIP3    H155415   1.695   5.065   1.701 -0.0232  2.9866  0.5270
11308TIP3    H255416   1.596   5.086   1.588 -0.1835  0.9227  0.2441
11309TIP3   OH255417   3.699   5.756  13.152 -0.0960  0.2051  0.6606
11309TIP3    H155418   3.614   5.719  13.177 -0.8149  1.5098  0.2872
11309TIP3    H255419   3.702   5.748  13.057  0.3405 -0.1087  0.6991
11310TIP3   OH255420   3.389   2.647  11.889 -0.2588  0.3049 -0.5259
11310TIP3    H155421   3.411   2.734  11.856 -0.9015  0.2169 -1.2259
11310TIP3    H255422   3.294   2.650  11.902 -0.1909 -0.0821  0.0825
11311TIP3   OH255423   0.590   5.522  13.528 -0.1321 -0.0624 -0.1200
11311TIP3    H155424   0.542   5.597  13.563  0.9001  1.0027 -0.9406
11311TIP3    H255425   0.539   5.446  13.556 -1.8581  0.9880 -0.2940
11312TIP3   OH255426   1.756   4.794  14.423 -0.1125  0.0448 -0.4114
11312TIP3    H155427   1.770   4.888  14.409  2.6485 -0.2622 -0.4184
11312TIP3    H255428   1.826   4.769  14.483 -1.5873 -1.8013  0.6362
11313TIP3   OH255429   4.954   0.048  16.060  0.0383  0.1598  0.8986
11313TIP3    H155430   4.993   0.118  16.112  0.5895 -0.3812  1.2290
11313TIP3    H255431   5.029   0.001  16.023 -0.3398  0.1957  0.0763
11314TIP3   OH255432   5.971   3.685   3.293 -0.1677 -0.1804  0.4633
11314TIP3    H155433   6.040   3.726   3.345  0.4361  0.8524 -1.0938
11314TIP3    H255434   5.896   3.680   3.353  0.7742  0.0893  1.7048
11315TIP3   OH255435   1.045   6.095   0.147  0.0897  0.0240  0.3753
11315TIP3    H155436   1.038   6.177   0.098 -2.8729  0.2046  0.8719
11315TIP3    H255437   1.016   6.118   0.235 -0.6063 -1.4838  0.5702
11316TIP3   OH255438   2.130   0.741  15.111 -0.2811 -0.1671 -0.4703
11316TIP3    H155439   2.182   0.694  15.176  0.4333 -0.3504 -1.1638
11316TIP3    H255440   2.075   0.800  15.163  0.6544  0.0757  0.2776
11317TIP3   OH255441   5.892   6.156  12.065 -0.2867 -0.6725 -0.1103
11317TIP3    H155442   5.967   6.102  12.091  0.7985  1.0057  0.3695
11317TIP3    H255443   5.925   6.213  11.996 -0.6333  1.1512  1.1385
11318TIP3   OH255444   2.467   4.720   0.426 -0.1276  0.2899  0.4652
11318TIP3    H155445   2.380   4.680   0.429  0.7670 -1.7312  1.3824
11318TIP3    H255446   2.476   4.749   0.335 -1.5579  0.0685  0.2152
11319TIP3   OH255447   3.642   0.440   1.623  0.3671 -0.1986 -0.3610
11319TIP3    H155448   3.570   0.476   1.674 -0.0722 -0.2670 -0.9351
11319TIP3    H255449   3.706   0.411   1.689 -1.0002 -2.0297  0.2526
11320TIP3   OH255450   4.645   5.445   4.161 -0.3495 -0.2996 -0.5306
11320TIP3    H155451   4.711   5.459   4.229 -0.1656 -0.0710 -0.7598
11320TIP3    H255452   4.691   5.455   4.079 -0.8019  0.5064 -0.6955
11321TIP3   OH255453   1.192   1.363  15.500 -0.5928 -0.0886  0.1527
11321TIP3    H155454   1.139   1.289  15.470 -1.7287  1.5685 -2.3052
11321TIP3    H255455   1.139   1.403  15.570 -1.1074 -0.2504 -0.1384
11322TIP3   OH255456   0.140   4.270  11.832  0.2555  0.1509  0.6520
11322TIP3    H155457   0.103   4.351  11.796 -1.0248 -1.1009 -0.9986
11322TIP3    H255458   0.184   4.229  11.758  1.1616 -0.5282  1.5489
11323TIP3   OH255459   5.726   4.678  15.815  0.3115 -0.3173  0.0307
11323TIP3    H155460   5.727   4.698  15.722 -1.6733  1.7882  0.3862
11323TIP3    H255461   5.771   4.593  15.822 -0.4202 -1.0547 -2.9456
11324TIP3   OH255462   0.119   5.903  14.746  0.5348 -0.1368  0.1641
11324TIP3    H155463   0.108   5.997  14.762 -0.3354 -0.4551  1.5951
11324TIP3    H255464   0.103   5.893  14.652 -2.0404  0.8277  0.4020
11325TIP3   OH255465   1.300   1.176   0.086 -0.6177 -0.6884  0.2280
11325TIP3    H155466   1.311   1.081   0.087  0.0894 -0.6668 -1.6517
11325TIP3    H255467   1.272   1.196  -0.004 -1.6332  0.8044  0.8278
11326TIP3   OH255468   2.860   6.588   0.323  0.9321  0.6169  0.1244
11326TIP3    H155469   2.922   6.657   0.345 -0.0217  2.3979 -2.2929
11326TIP3    H255470   2.888   6.557   0.236 -1.1270  1.0431 -0.7496
11327TIP3   OH255471   0.239   1.256   3.696 -0.8000 -0.2151 -0.3892
11327TIP3    H155472   0.315   1.198   3.699 -0.7715 -0.1672 -0.1491
11327TIP3    H255473   0.262   1.322   3.631 -0.4810  0.0122 -0.0486
11328TIP3   OH255474   2.196   4.700  16.711 -0.3931 -0.0435  0.1905
11328TIP3    H155475   2.106   4.727  16.697 -0.0672  0.4190 -1.0737
11328TIP3    H255476   2.243   4.781  16.733 -0.4806 -0.4412  2.0137
11329TIP3   OH255477   3.249   3.290   0.776 -0.2945 -0.0005  0.0941
11329TIP3    H155478   3.291   3.370   0.810  0.6878 -0.7233  0.6317
11329TIP3    H255479   3.191   3.262   0.846 -0.8791  0.4025 -0.2202
11330TIP3   OH255480   4.643   5.422  14.966  0.5180  0.3031 -0.2591
11330TIP3    H155481   4.726   5.468  14.979  0.8134 -0.2641 -0.1077
11330TIP3    H255482   4.621   5.438  14.875  1.1719 -0.1450 -0.5082
11331TIP3   OH255483   3.441   4.202  12.230  0.3699 -0.0188 -0.1498
11331TIP3    H155484   3.423   4.278  12.286 -1.9097  0.4056 -1.3484
11331TIP3    H255485   3.408   4.228  12.143  1.1609 -1.7355 -1.0173
11332TIP3   OH255486   4.472   0.198  15.050  0.2341  0.2288  0.4440
11332TIP3    H155487   4.459   0.103  15.041 -0.1884  0.3567 -0.3189
11332TIP3    H255488   4.491   0.210  15.143  0.9355 -0.6788  0.4401
11333TIP3   OH255489   3.009   1.654  12.454  0.2455  0.0790  0.2723
11333TIP3    H155490   3.099   1.626  12.436 -0.1139 -2.0035  1.4652
11333TIP3    H255491   3.003   1.653  12.550 -0.4668  2.2680  0.2987
11334TIP3   OH255492   2.256   0.528   5.964  0.4107  0.0845 -0.2649
11334TIP3    H155493   2.285   0.561   5.879  0.5159  0.5484 -0.0528
11334TIP3    H255494   2.329   0.547   6.023  0.3587 -0.2788 -0.0839
11335TIP3   OH255495   0.366   2.035   2.252  0.4150  0.2226 -0.2775
11335TIP3    H155496   0.361   2.032   2.156  0.4370  1.1174 -0.3111
11335TIP3    H255497   0.275   2.048   2.279  0.5468  1.0832 -0.2298
11336TIP3   OH255498   0.272   6.787  13.066 -0.1315  0.2311 -0.2272
11336TIP3    H155499   0.249   6.806  12.975  0.0397 -1.2026 -0.5890
11336TIP3    H255500   0.191   6.756  13.105  0.1160 -0.5273 -0.2946
11337TIP3   OH255501   3.767   4.286  12.532 -0.5374  0.4253 -0.6544
11337TIP3    H155502   3.801   4.365  12.488  1.3570 -0.3002 -0.5677
11337TIP3    H255503   3.779   4.216  12.468  1.6981 -0.5399  0.7077
11338TIP3   OH255504   6.449   6.542  13.017 -0.0820  0.2904  0.4052
11338TIP3    H155505   6.449   6.610  13.085  3.5219  0.3652  0.5410
11338TIP3    H255506   6.469   6.461  13.065  0.8327  0.0615 -0.3419
11339TIP3   OH255507   2.411   4.269   0.255 -0.2552 -0.0415  0.2538
11339TIP3    H155508   2.377   4.325   0.186 -1.2797 -0.1593  0.6551
11339TIP3    H255509   2.398   4.180   0.222  0.9328 -0.0833 -0.1758
11340TIP3   OH255510   0.825   4.344  12.048 -0.2640 -0.1182 -0.5981
11340TIP3    H155511   0.818   4.290  12.127 -2.5927 -0.6304 -1.0693
11340TIP3    H255512   0.884   4.295  11.991 -1.1392 -1.4276 -0.4219
11341TIP3   OH255513   3.587   4.078  13.125  0.0288  0.1407 -0.3489
11341TIP3    H155514   3.666   4.030  13.101 -0.2176  0.3151 -1.5557
11341TIP3    H255515   3.524   4.058  13.056 -0.8807  0.2847  0.4020
11342TIP3   OH255516   3.335   6.051   5.946  0.1858 -0.3401  0.0827
11342TIP3    H155517   3.274   5.978   5.956  0.9908 -0.9988  0.2787
11342TIP3    H255518   3.378   6.036   5.862  1.7618 -1.2006  0.9976
11343TIP3   OH255519   6.679   2.643  10.937 -1.0107 -0.5601  0.7484
11343TIP3    H155520   6.592   2.609  10.958 -1.3534  0.9889  1.9710
11343TIP3    H255521   6.674   2.736  10.957  0.7940 -0.3506  0.3587
11344TIP3   OH255522   2.276   4.404  11.565 -0.3074  0.3818 -0.4232
11344TIP3    H155523   2.245   4.319  11.597 -2.0174  1.5046  1.0644
11344TIP3    H255524   2.298   4.388  11.473  1.6769 -2.1902  0.3576
11345TIP3   OH255525   3.584   4.237   5.885  0.1563  0.0955  0.1897
11345TIP3    H155526   3.611   4.148   5.861  0.6311  0.2414  0.1735
11345TIP3    H255527   3.533   4.268   5.810 -1.6470 -0.8459  0.9576
11346TIP3   OH255528   3.527   1.343  16.356  0.1906 -0.4768 -0.7322
11346TIP3    H155529   3.609   1.299  16.376  0.6395  1.4226  2.3240
11346TIP3    H255530   3.554   1.422  16.309  0.0723 -0.1887 -0.3226
11347TIP3   OH255531   0.793   2.645  11.831  0.0518 -0.4550  0.4269
11347TIP3    H155532   0.884   2.674  11.840 -0.3924  1.0886  0.2159
11347TIP3    H255533   0.792   2.557  11.869  1.1671  0.3273  2.4163
11348TIP3   OH255534   0.142   3.664  11.945 -0.1779 -0.0199  0.5166
11348TIP3    H155535   0.111   3.648  12.035 -0.4527  2.4537  0.9527
11348TIP3    H255536   0.236   3.652  11.950 -0.4578 -2.9015  0.3418
11349TIP3   OH255537   4.760   3.083   5.519  0.4117 -0.1142 -0.2799
11349TIP3    H155538   4.844   3.086   5.473  0.1768  1.2186 -0.6630
11349TIP3    H255539   4.779   3.116   5.607  0.1515  0.9321 -0.6092
11350TIP3   OH255540   0.633   6.387   6.350 -0.0126  0.0732  0.6064
11350TIP3    H155541   0.678   6.313   6.392  0.4099 -1.2833 -2.0154
11350TIP3    H255542   0.609   6.354   6.263  0.7919  3.2254 -0.9644
11351TIP3   OH255543   0.158   5.840   5.208  0.1660  0.3797  0.3888
11351TIP3    H155544   0.108   5.845   5.290  0.3936 -2.3697  0.7624
11351TIP3    H255545   0.091   5.841   5.139 -0.2510 -0.4338  0.7639
11352TIP3   OH255546   0.660   4.217  15.284 -0.4436 -0.1679  0.6238
11352TIP3    H155547   0.606   4.295  15.296  0.8243  0.5134  2.0393
11352TIP3    H255548   0.741   4.236  15.330  0.2338 -1.9867  0.2438
11353TIP3   OH255549   2.881   0.497   0.300  0.1737  1.0159  0.0222
11353TIP3    H155550   2.815   0.482   0.233  2.2822 -3.0885 -1.4357
11353TIP3    H255551   2.919   0.582   0.278 -1.6746  1.4666 -1.6694
11354TIP3   OH255552   0.186   4.366   0.350 -0.7236 -0.2818  0.4234
11354TIP3    H155553   0.097   4.331   0.340 -0.5504 -0.3455 -1.2776
11354TIP3    H255554   0.240   4.291   0.372 -0.7397 -0.7055 -0.8716
11355TIP3   OH255555   5.817   1.884  11.401  0.6177 -0.1813  0.4676
11355TIP3    H155556   5.764   1.847  11.471  1.4473  0.4150  1.4383
11355TIP3    H255557   5.810   1.821  11.330 -0.5773 -0.5948  0.9283
11356TIP3   OH255558   0.831   3.710  14.074  0.2988 -0.1598  0.4372
11356TIP3    H155559   0.926   3.710  14.083  0.4230 -0.5671 -0.6786
11356TIP3    H255560   0.799   3.695  14.162  1.2303  1.2443  1.0435
11357TIP3   OH255561   5.624   4.656  12.282  0.1733 -0.0615 -0.3183
11357TIP3    H155562   5.670   4.689  12.359  1.4204 -0.0516 -1.0406
11357TIP3    H255563   5.537   4.633  12.315  1.1837 -1.6882  1.5002
11358TIP3   OH255564   5.623   3.915  17.158 -0.1003  0.2949  0.0519
11358TIP3    H155565   5.665   3.949  17.237 -0.4759  2.5512 -0.6559
11358TIP3    H255566   5.683   3.845  17.128  0.0811 -0.5650  2.2185
11359TIP3   OH255567   6.430   5.070   0.879 -0.2330 -0.1146 -0.2284
11359TIP3    H155568   6.363   5.065   0.948 -0.3029  1.0428 -0.1992
11359TIP3    H255569   6.489   4.997   0.898  0.2096  0.6438  1.5612
11360TIP3   OH255570   0.649   0.148  14.875  0.6283 -0.3234 -0.5708
11360TIP3    H155571   0.702   0.146  14.954  0.6175 -0.6935 -0.5743
11360TIP3    H255572   0.648   0.058  14.843  0.0745 -0.3064 -0.6201
11361TIP3   OH255573   5.669   5.146  12.852  0.9166  0.3409 -0.2212
11361TIP3    H155574   5.609   5.088  12.804  0.6331  0.1033  0.4113
11361TIP3    H255575   5.694   5.212  12.788 -0.9778  1.1586 -0.1806
11362TIP3   OH255576   1.084   2.447  13.497 -0.0011  0.8783 -0.3064
11362TIP3    H155577   0.993   2.447  13.527 -0.2230  1.5159 -0.9620
11362TIP3    H255578   1.093   2.364  13.450  0.1021  0.2724  0.7572
11363TIP3   OH255579   0.356   0.103  17.358  0.3350  0.0287 -0.5727
11363TIP3    H155580   0.284   0.054  17.318 -0.4572  0.4065  0.3564
11363TIP3    H255581   0.355   0.188  17.313 -0.1813  0.2425 -0.1699
11364TIP3   OH255582   6.540   4.798  13.684 -0.3064  0.2151 -0.3251
11364TIP3    H155583   6.445   4.795  13.673 -0.5885 -2.1782  1.7503
11364TIP3    H255584   6.563   4.710  13.712  2.0699  1.5408  2.4008
11365TIP3   OH255585   0.949   5.610  11.913  0.6132  0.1271 -0.5308
11365TIP3    H155586   0.943   5.532  11.857 -0.5585  1.0121 -1.6998
11365TIP3    H255587   0.880   5.597  11.978  2.0130 -0.9294  0.8045
11366TIP3   OH255588   2.560   3.865  12.120 -0.3723 -0.1443  0.3184
11366TIP3    H155589   2.645   3.901  12.093 -1.4783  1.5026 -1.1463
11366TIP3    H255590   2.550   3.786  12.067  1.7223 -2.4478  3.0049
11367TIP3   OH255591   6.306   2.759  12.471  0.2471 -0.3270 -0.2132
11367TIP3    H155592   6.345   2.678  12.502 -0.5964 -0.0984  1.5582
11367TIP3    H255593   6.233   2.775  12.530  0.8561  2.1397 -0.0187
11368TIP3   OH255594   1.259   5.227  16.253 -0.1980 -0.2548 -0.5546
11368TIP3    H155595   1.187   5.192  16.305 -1.1404 -0.3455 -1.8692
11368TIP3    H255596   1.221   5.245  16.167  1.5449 -1.1501 -1.5804
11369TIP3   OH255597   4.123   4.217   1.338 -0.0428 -0.4508  0.0513
11369TIP3    H155598   4.059   4.288   1.338  1.3705  0.9175 -1.6548
11369TIP3    H255599   4.085   4.150   1.280 -0.7813 -0.5075  0.5926
11370TIP3   OH255600   5.147   5.391   6.686  0.1065 -0.0271 -0.3209
11370TIP3    H155601   5.080   5.418   6.748  0.4216 -1.4768  0.6907
11370TIP3    H255602   5.230   5.408   6.731  0.4463  1.0961 -1.2923
11371TIP3   OH255603   2.495   1.750  12.435 -0.3949 -0.1142 -0.1133
11371TIP3    H155604   2.411   1.739  12.390  0.2886 -1.3493 -1.1454
11371TIP3    H255605   2.504   1.671  12.488 -0.3326  0.4751  0.7670
11372TIP3   OH255606   1.550   5.682  12.673 -0.2289  0.0669 -0.6494
11372TIP3    H155607   1.612   5.703  12.603 -2.1510 -1.4020 -2.9793
11372TIP3    H255608   1.489   5.620  12.632 -1.7024 -0.5617  2.2657
11373TIP3   OH255609   5.429   5.159   0.918  0.4980 -0.0166 -0.0891
11373TIP3    H155610   5.475   5.138   0.999  0.3535 -3.4975 -0.7190
11373TIP3    H255611   5.499   5.170   0.853  0.7556 -3.6438 -0.6879
11374TIP3   OH255612   2.915   4.032  13.848 -0.0214  0.5569  0.3020
11374TIP3    H155613   3.003   4.056  13.876  0.5122  0.8191 -1.4494
11374TIP3    H255614   2.898   4.088  13.772 -2.2975  1.5405  1.4384
11375TIP3   OH255615   6.082   0.600   5.165 -0.0743 -0.2266 -0.4649
11375TIP3    H155616   6.122   0.539   5.227  0.8835  0.7689 -0.0609
11375TIP3    H255617   6.112   0.569   5.079  0.5190 -0.2641 -0.2532
11376TIP3   OH255618   5.306   1.016   0.678 -0.1644  0.4415  0.0584
11376TIP3    H155619   5.239   1.017   0.746 -1.7835  0.6984 -1.4705
11376TIP3    H255620   5.389   1.030   0.725 -0.8346 -2.3228  2.3210
11377TIP3   OH255621   4.579   2.759  11.233  0.2033  0.0843  0.3029
11377TIP3    H155622   4.500   2.753  11.180  0.9633 -1.3181 -0.7556
11377TIP3    H255623   4.602   2.668  11.252  1.9086  0.4059  0.0008
11378TIP3   OH255624   2.294   5.795  16.007  0.0379 -0.1787  0.8191
11378TIP3    H155625   2.300   5.849  16.086 -1.4142 -0.1650  0.9439
11378TIP3    H255626   2.312   5.706  16.038  1.8803  0.1152  0.7078
11379TIP3   OH255627   2.946   5.660  11.681  0.0406  0.6358  0.0103
11379TIP3    H155628   3.034   5.657  11.719 -1.1187  0.5639  2.9198
11379TIP3    H255629   2.888   5.637  11.753 -2.5579  2.9622 -1.1586
11380TIP3   OH255630   3.756   5.497   4.535 -0.0580 -0.2887  0.2050
11380TIP3    H155631   3.763   5.403   4.515 -0.2079 -0.3492  0.4298
11380TIP3    H255632   3.804   5.540   4.464 -0.5428 -0.5002 -0.2589
11381TIP3   OH255633   4.324   2.165  17.108 -0.4710  0.0789 -0.0175
11381TIP3    H155634   4.242   2.192  17.065 -0.6015 -0.9251 -0.4199
11381TIP3    H255635   4.297   2.103  17.175  0.0544 -1.3820 -1.1062
11382TIP3   OH255636   5.035   3.765  13.406  0.5675  0.4380  0.0147
11382TIP3    H155637   5.032   3.847  13.455 -1.1094  0.4163  0.0152
11382TIP3    H255638   4.959   3.769  13.348  1.1046 -0.6345 -0.8031
11383TIP3   OH255639   1.071   2.255   5.766  0.1690 -0.0517 -0.2986
11383TIP3    H155640   1.059   2.261   5.671 -1.4316 -0.0620 -0.1240
11383TIP3    H255641   1.130   2.327   5.787  0.8658 -0.2929 -1.3399
11384TIP3   OH255642   5.165   1.413   5.510  0.6138  0.2365  0.0929
11384TIP3    H155643   5.193   1.496   5.548  3.5587 -0.7198  0.2831
11384TIP3    H255644   5.165   1.429   5.415  0.5484  0.6273  0.1588
11385TIP3   OH255645   5.437   0.131  10.380  0.1729 -0.0661  0.2123
11385TIP3    H155646   5.346   0.129  10.350  0.0839  0.6089  0.4141
11385TIP3    H255647   5.431   0.132  10.475  0.4574 -2.3074  0.3089
11386TIP3   OH255648   2.239   1.147   3.645  0.4012  0.2418  0.2121
11386TIP3    H155649   2.275   1.119   3.561  1.6877  0.5869  0.6289
11386TIP3    H255650   2.273   1.235   3.657  0.5862  0.0278  1.3031
11387TIP3   OH255651   3.291   0.179  15.653  0.0363  0.2110 -0.3127
11387TIP3    H155652   3.212   0.134  15.683 -0.8126  2.2293  0.7169
11387TIP3    H255653   3.316   0.135  15.572 -3.6860  1.1431 -2.1375
11388TIP3   OH255654   5.350   1.194  14.465  0.3784  0.4534 -0.0793
11388TIP3    H155655   5.329   1.287  14.461  0.7467  0.5759  0.6618
11388TIP3    H255656   5.426   1.184  14.408  0.4751  0.6511  0.0145
11389TIP3   OH255657   1.901   2.648   2.592 -1.0025 -0.3703 -0.3719
11389TIP3    H155658   1.916   2.671   2.501 -0.8954  0.3928 -0.1721
11389TIP3    H255659   1.849   2.721   2.627 -0.9215 -0.5817  0.2114
11390TIP3   OH255660   1.594   0.218  13.521 -0.1165 -0.1291 -0.5908
11390TIP3    H155661   1.528   0.201  13.454 -0.4266  0.5250 -0.4618
11390TIP3    H255662   1.607   0.313  13.518  3.0370 -0.4715 -2.7191
11391TIP3   OH255663   1.293   1.330  16.169  0.0834  0.1964  0.1899
11391TIP3    H155664   1.368   1.359  16.117 -0.2628  0.3052 -0.2559
11391TIP3    H255665   1.225   1.309  16.104  0.1425 -1.1126  0.5226
11392TIP3   OH255666   3.117   4.816   5.163 -0.2107 -0.3183 -0.1091
11392TIP3    H155667   3.092   4.753   5.231 -0.4801  0.2011  0.2843
11392TIP3    H255668   3.212   4.809   5.157 -0.1678 -0.2561  0.4451
11393TIP3   OH255669   6.170   3.884   5.066  0.5671  0.1379  0.4284
11393TIP3    H155670   6.209   3.969   5.048 -3.0942  1.9878  0.2789
11393TIP3    H255671   6.144   3.850   4.980  0.4314 -0.2678  0.6249
11394TIP3   OH255672   0.330   4.267   3.255  0.2487  0.3403  0.3265
11394TIP3    H155673   0.284   4.231   3.332  1.3691  0.6070  1.1432
11394TIP3    H255674   0.296   4.356   3.246 -1.0778 -0.2199 -0.4975
11395TIP3   OH255675   6.017   0.949   5.287 -0.3267 -0.1391  1.0442
11395TIP3    H155676   6.009   0.932   5.193 -0.5953  1.0640  0.8383
11395TIP3    H255677   6.087   0.891   5.316  1.1460  0.9047 -0.2942
11396TIP3   OH255678   2.886   5.721   0.951 -0.1471 -0.4468 -0.0222
11396TIP3    H155679   2.889   5.816   0.944 -0.9510 -0.4325 -0.2453
11396TIP3    H255680   2.830   5.704   1.027 -0.7491 -0.7505 -0.5283
11397TIP3   OH255681   0.627   0.377  16.562 -0.2225 -0.0144  0.4273
11397TIP3    H155682   0.690   0.319  16.604 -2.0250 -1.9728  0.6080
11397TIP3    H255683   0.659   0.388  16.472  1.4515  0.7900  1.0979
11398TIP3   OH255684   0.335   4.968   0.327 -0.0331 -0.2534  0.3069
11398TIP3    H155685   0.257   4.970   0.271 -1.4496  0.2786  2.1768
11398TIP3    H255686   0.352   5.060   0.349 -0.5158 -0.5323  1.9952
11399TIP3   OH255687   4.950   0.510   2.852 -0.6596 -0.6798 -0.2593
11399TIP3    H155688   4.976   0.427   2.890  0.9832 -0.5677 -1.0484
11399TIP3    H255689   4.963   0.574   2.922 -3.0671 -1.1776  0.7444
11400TIP3   OH255690   6.580   0.397   5.985 -0.1301  0.2513  0.6256
11400TIP3    H155691   6.573   0.371   6.077  2.0176 -0.7909  0.5360
11400TIP3    H255692   6.611   0.318   5.940 -1.0352  0.7762 -0.9991
11401TIP3   OH255693   0.812   4.342   6.301 -0.3921 -0.7027  0.1191
11401TIP3    H155694   0.747   4.409   6.281  0.9207  0.5309 -0.1649
11401TIP3    H255695   0.799   4.322   6.394 -1.1718 -0.4751  0.0590
11402TIP3   OH255696   5.672   1.074  12.659 -0.1830 -0.6318  0.6180
11402TIP3    H155697   5.636   1.159  12.633 -0.9755 -0.1595  2.9895
11402TIP3    H255698   5.758   1.071  12.618 -0.5139  0.8807 -0.2728
11403TIP3   OH255699   4.535   6.526   4.142 -0.7333  0.4638  0.0451
11403TIP3    H155700   4.583   6.498   4.219 -1.3701 -0.0678  0.2609
11403TIP3    H255701   4.505   6.615   4.162 -1.7035 -0.0212  0.8052
11404TIP3   OH255702   3.516   6.150  13.343 -0.7229  0.7609  0.0827
11404TIP3    H155703   3.498   6.128  13.252  0.2110  1.9422 -0.4099
11404TIP3    H255704   3.606   6.121  13.358 -0.4834  1.5695  0.2806
11405TIP3   OH255705   0.158   3.600   5.194  0.4026 -0.7106  0.4412
11405TIP3    H155706   0.178   3.665   5.262 -0.2441 -1.7480  1.6662
11405TIP3    H255707   0.118   3.528   5.242 -2.4003 -0.4825 -1.3448
11406TIP3   OH255708   6.399   1.550  16.776 -0.7345 -0.4005 -0.3117
11406TIP3    H155709   6.442   1.521  16.696 -1.3466 -0.9921 -0.4374
11406TIP3    H255710   6.306   1.549  16.755 -0.7858  2.3363 -0.5305
11407TIP3   OH255711   0.935   5.026  14.564  0.0077 -0.3848 -0.4756
11407TIP3    H155712   0.947   4.943  14.517 -0.9333 -0.3801 -0.7397
11407TIP3    H255713   0.841   5.043  14.559  0.1641  0.5935 -0.2413
11408TIP3   OH255714   5.321   6.608  11.322 -0.3671 -0.3502  1.1797
11408TIP3    H155715   5.278   6.646  11.399 -0.5506  2.3072 -0.1134
11408TIP3    H255716   5.402   6.657  11.313 -0.7899  0.0812 -0.8123
11409TIP3   OH255717   6.628   6.535   0.244 -0.2037  0.0107  0.3686
11409TIP3    H155718   6.594   6.603   0.302 -1.0028  2.1254 -2.3208
11409TIP3    H255719   6.709   6.506   0.285 -1.3447  0.4290  3.0966
11410TIP3   OH255720   1.981   3.594  16.467 -0.6680  0.7714 -0.4771
11410TIP3    H155721   1.914   3.635  16.412 -0.4656  0.4270 -0.9944
11410TIP3    H255722   2.062   3.637  16.441 -0.3136 -0.5228 -1.6681
11411TIP3   OH255723   0.268   1.838   4.059  0.5136 -0.1823 -0.2274
11411TIP3    H155724   0.257   1.755   4.104  0.0851  0.4002  0.7658
11411TIP3    H255725   0.182   1.881   4.064  1.0505  0.8646  0.4030
11412TIP3   OH255726   6.418   3.171  13.646 -0.4632 -0.0318 -0.6316
11412TIP3    H155727   6.430   3.227  13.569 -0.9459 -1.0824 -1.5072
11412TIP3    H255728   6.326   3.144  13.641 -0.7848  0.7036  0.9042
11413TIP3   OH255729   5.492   0.170  14.656  0.5712 -0.3790  0.0507
11413TIP3    H155730   5.580   0.207  14.669  0.5610 -0.7505  1.4398
11413TIP3    H255731   5.433   0.245  14.664  0.6914 -0.3275  0.5030
11414TIP3   OH255732   2.755   1.269  12.839  0.0480  0.1800 -0.7997
11414TIP3    H155733   2.836   1.292  12.884 -1.2798  1.5559  1.0462
11414TIP3    H255734   2.762   1.175  12.823  1.1346 -0.1345  1.2198
11415TIP3   OH255735   0.827   6.474   3.619  0.4628  0.5487 -0.8878
11415TIP3    H155736   0.739   6.440   3.636  0.5313 -0.3488 -2.1649
11415TIP3    H255737   0.864   6.489   3.706  0.3603 -2.5325 -0.1900
11416TIP3   OH255738   1.660   3.427  16.388 -0.5308  0.7386 -0.8570
11416TIP3    H155739   1.674   3.504  16.443  0.5691 -0.7509  1.0729
11416TIP3    H255740   1.566   3.429  16.369 -0.9035  1.4975  0.8279
11417TIP3   OH255741   5.298   0.106  16.594  0.0100 -0.1038 -0.3516
11417TIP3    H155742   5.390   0.127  16.611 -0.0239 -1.1363  1.3111
11417TIP3    H255743   5.299   0.062  16.509  0.9519  0.4462 -0.6460
11418TIP3   OH255744   0.488   3.144   0.311  0.0858 -0.2185 -0.2852
11418TIP3    H155745   0.554   3.125   0.245 -0.5723 -1.1405 -0.7037
11418TIP3    H255746   0.490   3.068   0.370 -0.0178  0.1396  0.1904
11419TIP3   OH255747   3.422   6.035  13.114  0.0257 -0.4522 -0.1505
11419TIP3    H155748   3.421   5.943  13.090 -0.2183 -0.3937 -0.3688
11419TIP3    H255749   3.426   6.082  13.031  1.6559 -0.2791 -0.0081
11420TIP3   OH255750   1.048   2.966   1.214 -0.5998 -0.1627  0.0257
11420TIP3    H155751   1.072   3.006   1.131 -0.0674  1.7209  1.0378
11420TIP3    H255752   0.953   2.981   1.222 -0.5278  0.2638  0.0738
11421TIP3   OH255753   0.194   1.182  11.215  0.1097  0.3693 -0.3008
11421TIP3    H155754   0.178   1.166  11.122 -0.5456  0.9808 -0.3034
11421TIP3    H255755   0.261   1.251  11.216  1.6169 -1.0400 -0.2964
11422TIP3   OH255756   3.754   0.927  15.599 -1.5121  0.1415  0.1852
11422TIP3    H155757   3.775   0.904  15.690  0.3906 -1.1561 -0.5215
11422TIP3    H255758   3.678   0.872  15.577 -0.2043 -1.7521  0.1415
11423TIP3   OH255759   4.094   3.924  13.550  0.3819  0.4141  0.0945
11423TIP3    H155760   4.154   3.912  13.623  1.4776  0.2418 -0.8031
11423TIP3    H255761   4.050   4.007  13.568 -2.8706 -1.7303  3.3268
11424TIP3   OH255762   5.277   0.096   5.088 -0.3547 -0.8885 -0.0519
11424TIP3    H155763   5.206   0.091   5.024  0.3100  0.6475 -0.9718
11424TIP3    H255764   5.233   0.088   5.173 -1.4770 -1.1036 -0.6336
11425TIP3   OH255765   0.974   1.655   5.106  0.8573  0.2043  0.0115
11425TIP3    H155766   1.037   1.631   5.039 -0.2607 -0.9936 -0.6530
11425TIP3    H255767   0.945   1.571   5.143  0.4661  0.7809  1.0659
11426TIP3   OH255768   3.842   3.660  10.977  0.1044 -0.2597 -0.3328
11426TIP3    H155769   3.884   3.612  11.048 -1.8332  0.4730  1.4163
11426TIP3    H255770   3.886   3.745  10.976 -0.5213  0.0987  0.7331
11427TIP3   OH255771   3.487   1.693   2.602 -0.6353 -0.2642  0.4162
11427TIP3    H155772   3.450   1.777   2.576 -0.0020 -0.0827  0.0846
11427TIP3    H255773   3.448   1.630   2.541 -0.1161 -0.0199 -0.1743
11428TIP3   OH255774   0.866   2.262  14.795 -0.3361 -0.2684 -0.2406
11428TIP3    H155775   0.864   2.329  14.728  1.2500 -0.9458 -1.0075
11428TIP3    H255776   0.860   2.179  14.747  0.7767 -0.7642  0.4319
11429TIP3   OH255777   0.937   5.969  13.560 -0.2966 -0.1564 -0.1649
11429TIP3    H155778   0.987   6.027  13.617  0.5037 -0.5219 -0.4840
11429TIP3    H255779   0.998   5.901  13.535 -0.3693  0.4429 -2.1464
11430TIP3   OH255780   5.359   3.656   4.269 -0.0016  0.0824  0.4285
11430TIP3    H155781   5.306   3.640   4.191  0.4307 -0.0637  0.1609
11430TIP3    H255782   5.344   3.580   4.325  2.2702 -1.4792 -0.9599
11431TIP3   OH255783   4.154   2.966   5.367 -0.1539 -0.2164  0.1231
11431TIP3    H155784   4.214   3.034   5.398  0.2539 -0.0365 -1.0097
11431TIP3    H255785   4.193   2.884   5.397 -1.8531  0.0458  3.5907
11432TIP3   OH255786   0.786   6.249  17.067  0.5052 -0.4275 -0.1184
11432TIP3    H155787   0.867   6.266  17.019  0.1923  0.4931 -0.3373
11432TIP3    H255788   0.763   6.333  17.107  0.3436 -0.9836  1.0175
11433TIP3   OH255789   1.051   6.269  16.006 -0.0499 -0.1001 -0.1147
11433TIP3    H155790   1.133   6.304  15.970  0.1447  0.4115  0.7904
11433TIP3    H255791   1.022   6.336  16.068  1.6336 -2.4611  3.5911
11434TIP3   OH255792   4.269   4.335   0.963 -0.4077 -0.3174 -0.0265
11434TIP3    H155793   4.222   4.307   0.884 -0.7181  0.5430 -0.1566
11434TIP3    H255794   4.309   4.255   0.996 -0.0367 -0.6546 -1.2213
11435TIP3   OH255795   3.152   5.609  15.865  0.5539  0.0817 -0.0817
11435TIP3    H155796   3.134   5.657  15.784  0.6518  1.0683  0.4808
11435TIP3    H255797   3.242   5.631  15.887  0.8248 -0.8763 -0.1517
11436TIP3   OH255798   2.578   0.096   1.205 -0.1264 -0.1433 -0.1926
11436TIP3    H155799   2.628   0.058   1.133 -0.1606 -0.2954 -0.1353
11436TIP3    H255800   2.589   0.191   1.194  0.8332 -0.1874  0.2787
11437TIP3   OH255801   1.285   4.364   6.254  0.6443 -0.2214  0.2983
11437TIP3    H155802   1.306   4.453   6.226 -0.1785  0.9922  3.1386
11437TIP3    H255803   1.190   4.365   6.265  0.6680 -1.3366  0.6773
11438TIP3   OH255804   0.030   1.373   2.952  0.4885 -0.4150 -0.1330
11438TIP3    H155805  -0.008   1.288   2.973 -0.0304 -0.1708 -0.0797
11438TIP3    H255806  -0.021   1.405   2.878 -0.4954  0.6296  0.9568
11439TIP3   OH255807   2.538   5.367  14.734  0.7040 -0.4821  0.3422
11439TIP3    H155808   2.584   5.422  14.671 -0.2472 -1.5480 -1.3467
11439TIP3    H255809   2.505   5.293  14.682 -0.5429 -1.1511  2.0001
11440TIP3   OH255810   0.983   4.024   4.726 -0.0288  0.3608 -0.2935
11440TIP3    H155811   0.953   3.937   4.699  0.1827  0.5650 -1.2039
11440TIP3    H255812   0.929   4.085   4.675  0.1427  0.7647  0.0014
11441TIP3   OH255813   3.055   5.756  16.764 -0.5075  0.3194  0.2559
11441TIP3    H155814   3.023   5.836  16.805  1.2837  1.1143  0.2220
11441TIP3    H255815   3.126   5.726  16.822 -1.0996 -1.2306  0.2356
11442TIP3   OH255816   5.846   4.017  15.904  0.3567  0.3944 -0.4560
11442TIP3    H155817   5.838   3.984  15.994 -0.2389  1.5896 -0.0434
11442TIP3    H255818   5.815   3.945  15.849 -2.3253  0.7064  0.4907
11443TIP3   OH255819   3.681   2.395   6.465  0.1080 -0.4111  0.1613
11443TIP3    H155820   3.647   2.399   6.554 -2.7104 -0.2347 -0.8127
11443TIP3    H255821   3.776   2.390   6.475 -0.0161  1.0666  3.1233
11444TIP3   OH255822   5.750   2.510   1.677  0.0260 -0.0622 -0.1767
11444TIP3    H155823   5.815   2.491   1.745  2.1926 -1.0763 -2.3324
11444TIP3    H255824   5.802   2.513   1.596 -2.8043 -2.5329 -2.3009
11445TIP3   OH255825   5.757   3.160   4.296  0.0401 -0.2961 -0.3200
11445TIP3    H155826   5.846   3.153   4.330  0.6695  1.1404 -1.5851
11445TIP3    H255827   5.742   3.077   4.250  0.8411 -0.4038 -0.3961
11446TIP3   OH255828   6.287   1.661  11.619  0.0498  0.3182 -0.9475
11446TIP3    H155829   6.211   1.676  11.675  0.0923  2.0862 -1.3249
11446TIP3    H255830   6.249   1.630  11.536 -0.2328  0.8323 -1.0122
11447TIP3   OH255831   0.796   4.151   4.973  0.2325 -0.2758 -0.0142
11447TIP3    H155832   0.833   4.238   4.987 -0.0784  0.1178 -1.4427
11447TIP3    H255833   0.866   4.102   4.930  1.0543 -1.3459  2.3725
11448TIP3   OH255834   6.467   6.622   5.149 -0.3435 -0.6981  0.2913
11448TIP3    H155835   6.457   6.665   5.234  0.7522  1.1135 -0.4179
11448TIP3    H255836   6.504   6.690   5.092 -2.8180 -1.2332 -2.1895
11449TIP3   OH255837   4.830   3.733  13.678 -0.4896  0.0319 -0.0002
11449TIP3    H155838   4.808   3.672  13.607 -0.5719 -0.3359  0.3384
11449TIP3    H255839   4.806   3.819  13.644  0.0433 -0.0726 -0.6556
11450TIP3   OH255840   6.248   5.559   5.677 -0.0220  0.0833  0.8050
11450TIP3    H155841   6.196   5.635   5.650  0.5020  0.0160 -0.4218
11450TIP3    H255842   6.199   5.523   5.751 -1.0679  0.7391  0.4593
11451TIP3   OH255843   5.320   3.826   3.343  0.4142  0.1440 -0.2348
11451TIP3    H155844   5.246   3.777   3.379 -0.5529 -0.0167 -2.3117
11451TIP3    H255845   5.361   3.766   3.281  2.7457  0.0060  1.3160
11452TIP3   OH255846   4.963   4.777  15.895 -0.4469  0.5989  0.2600
11452TIP3    H155847   4.988   4.868  15.881 -0.1412  0.6634  1.1703
11452TIP3    H255848   4.897   4.781  15.964 -0.8733  0.1728 -0.1133
11453TIP3   OH255849   0.589   3.257  15.179 -0.7954  0.7285 -0.0090
11453TIP3    H155850   0.513   3.216  15.139 -0.8027  1.5479 -0.8845
11453TIP3    H255851   0.575   3.248  15.274 -1.3077 -0.2969 -0.1690
11454TIP3   OH255852   1.143   0.321  12.029 -0.2275 -0.6520  0.0673
11454TIP3    H155853   1.158   0.412  12.056 -1.1385 -0.1148 -1.1430
11454TIP3    H255854   1.064   0.325  11.975 -1.5291 -2.4764  1.6681
11455TIP3   OH255855   2.401   5.977  16.516  0.1031  0.2572  0.3417
11455TIP3    H155856   2.403   6.066  16.553 -0.4609  2.0374 -3.4046
11455TIP3    H255857   2.493   5.956  16.499  0.1916  0.3961  0.6418
11456TIP3   OH255858   3.861   5.971  13.172  0.0527 -0.5762  0.8467
11456TIP3    H155859   3.936   5.941  13.223  1.5984 -2.2342 -2.1528
11456TIP3    H255860   3.800   5.897  13.173  0.3078 -0.8100 -0.0365
11457TIP3   OH255861   0.573   3.662  14.804 -0.0584 -0.2322 -0.1281
11457TIP3    H155862   0.498   3.616  14.841 -1.5696  0.8416 -1.6548
11457TIP3    H255863   0.613   3.708  14.878  0.0074 -1.9474  0.9621
11458TIP3   OH255864   2.717   3.377  15.739 -0.1735  0.0796 -0.5693
11458TIP3    H155865   2.723   3.410  15.649  1.3679  2.1548  0.2350
11458TIP3    H255866   2.680   3.449  15.789 -0.5889 -0.8944  0.5692
11459TIP3   OH255867   4.819   1.927   4.541  0.3249  0.3510 -0.2699
11459TIP3    H155868   4.850   2.012   4.508  1.2699 -1.3655 -4.5419
11459TIP3    H255869   4.884   1.901   4.605 -0.2540  2.9309  1.5473
11460TIP3   OH255870   1.927   1.553   5.618 -0.0958  0.6849 -0.4531
11460TIP3    H155871   1.954   1.641   5.644 -0.2120  0.3856  0.7508
11460TIP3    H255872   1.838   1.544   5.653 -0.1400  0.1459 -0.6903
11461TIP3   OH255873   4.429   1.701  16.512  0.0371  0.4664 -0.0966
11461TIP3    H155874   4.365   1.639  16.546  0.2177  1.3653  2.0025
11461TIP3    H255875   4.398   1.787  16.540  0.4740  1.2452 -1.8415
11462TIP3   OH255876   3.209   0.545   6.490  0.1111 -0.4538  0.8010
11462TIP3    H155877   3.270   0.618   6.477  0.5981 -0.4610  2.7723
11462TIP3    H255878   3.204   0.534   6.585 -1.0154 -2.1103  0.5954
11463TIP3   OH255879   2.149   0.164  16.367  0.0789 -0.5499  0.1642
11463TIP3    H155880   2.212   0.162  16.294  0.9937 -0.4661  0.9227
11463TIP3    H255881   2.074   0.213  16.333  0.3254 -0.8438 -0.8403
11464TIP3   OH255882   4.767   5.191  12.995  0.3079 -0.2584  0.2883
11464TIP3    H155883   4.852   5.189  13.039  0.1748  0.1908  0.5654
11464TIP3    H255884   4.751   5.283  12.976 -0.5820 -0.2142  1.1463
11465TIP3   OH255885   1.258   4.241   4.363  0.4760 -0.1160  0.7435
11465TIP3    H155886   1.266   4.187   4.441  2.2962  0.1938  0.8021
11465TIP3    H255887   1.221   4.324   4.394 -1.1922 -0.8514  0.8371
11466TIP3   OH255888   5.037   6.186   6.620  0.0918 -0.0935 -0.8578
11466TIP3    H155889   5.087   6.223   6.692  0.3404  0.0948 -1.1261
11466TIP3    H255890   5.102   6.170   6.552  0.2147 -2.1897 -0.3048
11467TIP3   OH255891   6.672   3.621   5.365  0.1500 -0.1691  0.1714
11467TIP3    H155892   6.739   3.688   5.379 -0.3110  1.0127 -2.6161
11467TIP3    H255893   6.684   3.560   5.438  3.5715  0.5166  0.3777
11468TIP3   OH255894   3.614   1.712  14.661 -0.4354 -0.0587 -0.8697
11468TIP3    H155895   3.565   1.794  14.656  0.1363  0.3010 -0.7030
11468TIP3    H255896   3.675   1.724  14.734  1.1864  0.2373 -2.2186
11469TIP3   OH255897   5.790   3.893  12.566 -0.1544  0.4894 -0.1577
11469TIP3    H155898   5.817   3.980  12.595 -0.8437  1.3295 -1.8640
11469TIP3    H255899   5.733   3.860  12.635  0.7266  1.0535  0.8621
11470TIP3   OH255900   0.582   0.289   4.530 -0.0883  0.1842  0.0037
11470TIP3    H155901   0.617   0.252   4.449 -0.8124  1.2779 -0.8460
11470TIP3    H255902   0.579   0.384   4.514 -2.7056  0.2219  0.2588
11471TIP3   OH255903   3.038   3.162  12.436 -0.0143  0.0480  0.2624
11471TIP3    H155904   3.058   3.108  12.360 -0.2959 -0.4929  0.5655
11471TIP3    H255905   3.108   3.228  12.438  0.8853 -0.8853  0.4392
11472TIP3   OH255906   2.118   1.388   6.354 -0.5212 -0.0811 -0.0679
11472TIP3    H155907   2.162   1.472   6.346  1.1630 -0.9398 -0.2594
11472TIP3    H255908   2.152   1.351   6.436 -1.4386 -0.4758  0.1482
11473TIP3   OH255909   0.594   3.577  15.534  0.4868 -0.2779  0.2488
11473TIP3    H155910   0.604   3.482  15.544  0.4504 -0.2204  0.8287
11473TIP3    H255911   0.515   3.587  15.480  0.3299 -0.5686  0.4220
11474TIP3   OH255912   6.059   1.431  16.358 -0.2023 -0.0737 -0.7457
11474TIP3    H155913   6.121   1.370  16.397  0.2399  1.5572  1.3360
11474TIP3    H255914   6.047   1.401  16.268 -0.6504 -3.6724  0.3550
11475TIP3   OH255915   2.616   5.968   3.778  0.3917 -0.9121  0.0916
11475TIP3    H155916   2.645   5.903   3.713 -0.7334 -2.1170  0.7502
11475TIP3    H255917   2.530   5.937   3.806  1.0147 -0.7058  2.4902
11476TIP3   OH255918   4.309   0.970   5.813  0.2801  0.7068 -0.6433
11476TIP3    H155919   4.226   0.934   5.782 -2.0233  3.0839  2.1455
11476TIP3    H255920   4.311   1.059   5.779  2.7639  0.1379 -2.2630
11477TIP3   OH255921   2.423   1.507   6.107  0.3658  0.4575  0.4637
11477TIP3    H155922   2.344   1.533   6.155 -0.3259  0.8362 -0.8465
11477TIP3    H255923   2.490   1.570   6.136  0.0815  0.4105  1.2482
11478TIP3   OH255924   3.663   4.598  17.090 -0.2409  0.4855  0.0501
11478TIP3    H155925   3.579   4.632  17.057  0.8095  1.2709 -2.0550
11478TIP3    H255926   3.706   4.675  17.128  0.4448  0.6390 -0.9889
11479TIP3   OH255927   4.175   4.114  12.468  0.4347  0.2700  0.1151
11479TIP3    H155928   4.137   4.202  12.464  0.2939  0.1784 -0.8078
11479TIP3    H255929   4.174   4.083  12.377 -0.2773 -1.0018  0.5278
11480TIP3   OH255930   1.999   2.917  15.160  0.1226  0.4059  0.0125
11480TIP3    H155931   2.083   2.872  15.159  0.3321  0.7911 -0.0735
11480TIP3    H255932   1.988   2.944  15.252  0.1699  0.4903 -0.0061
11481TIP3   OH255933   0.697   5.037   3.537 -0.0051 -0.0133 -0.4540
11481TIP3    H155934   0.663   4.952   3.511 -1.1601  0.1506  0.4415
11481TIP3    H255935   0.773   5.016   3.592 -0.0387 -0.4541 -0.5727
11482TIP3   OH255936   0.097   6.565   1.413  0.2313  0.1158 -0.6768
11482TIP3    H155937   0.109   6.501   1.343  1.6599  1.3332 -1.6012
11482TIP3    H255938   0.030   6.526   1.470  1.1262 -2.2384 -1.1300
11483TIP3   OH255939   4.164   1.307  17.152 -0.2114  0.5201  0.1558
11483TIP3    H155940   4.185   1.223  17.192 -0.4331  0.8948  1.0742
11483TIP3    H255941   4.245   1.357  17.158  0.2188  0.0583 -1.2744
11484TIP3   OH255942   1.762   5.951   4.272  0.3749  0.3183  0.1699
11484TIP3    H155943   1.714   5.948   4.354 -0.4764  0.5663 -0.3097
11484TIP3    H255944   1.851   5.978   4.297  0.5227 -0.9784  1.1629
11485TIP3   OH255945   3.458   6.385  14.195  0.0136  0.4619 -0.4646
11485TIP3    H155946   3.517   6.317  14.161 -0.1506  0.0450  0.0569
11485TIP3    H255947   3.465   6.456  14.132 -0.6267 -0.4598 -1.6128
11486TIP3   OH255948   6.165   5.791  13.596  0.0683 -0.1654  0.2838
11486TIP3    H155949   6.182   5.700  13.623  0.2041 -0.3130 -0.2776
11486TIP3    H255950   6.242   5.815  13.544  0.8608  0.8840  1.8765
11487TIP3   OH255951   3.248   1.542  15.646 -0.2071 -0.2497  0.4387
11487TIP3    H155952   3.216   1.458  15.616 -1.8525  0.6347 -0.4429
11487TIP3    H255953   3.321   1.521  15.704 -0.0738 -2.2215 -0.3727
11488TIP3   OH255954   4.537   1.911   2.462  0.3487  0.7091  0.3883
11488TIP3    H155955   4.576   1.825   2.447  0.5353  0.3390  2.5960
11488TIP3    H255956   4.525   1.916   2.557 -0.8468  2.6215  0.2061
11489TIP3   OH255957   4.938   1.496   1.841  0.0784  0.3891  0.2970
11489TIP3    H155958   5.024   1.498   1.800 -0.4402  2.2908 -0.8043
11489TIP3    H255959   4.956   1.519   1.933  1.0008 -1.9110  0.7690
11490TIP3   OH255960   3.430   5.444   2.943 -0.0261 -0.3119 -0.1673
11490TIP3    H155961   3.414   5.527   2.897 -2.3580 -1.4494 -1.5831
11490TIP3    H255962   3.428   5.467   3.036  2.0976  1.6062 -0.4878
11491TIP3   OH255963   4.445   5.681  15.566 -0.6487  0.6361 -0.0373
11491TIP3    H155964   4.455   5.660  15.473  0.2852  1.5282 -0.1636
11491TIP3    H255965   4.399   5.765  15.567 -2.8648 -0.5235  0.4046
11492TIP3   OH255966   6.107   5.076   3.055 -0.0802 -0.1672 -0.2690
11492TIP3    H155967   6.056   5.008   3.011 -0.7972 -0.2387  0.6381
11492TIP3    H255968   6.093   5.060   3.148 -0.2972  1.2336 -0.0323
11493TIP3   OH255969   3.957   6.657   3.953 -0.0637 -0.6549  0.1546
11493TIP3    H155970   4.010   6.577   3.958  2.0033  0.5854 -0.7685
11493TIP3    H255971   3.950   6.674   3.860 -0.6573  0.1391  0.3425
11494TIP3   OH255972   4.896   0.429   4.163  0.4576 -0.6128  0.2729
11494TIP3    H155973   4.879   0.412   4.255  1.0363  0.5279  0.6156
11494TIP3    H255974   4.816   0.470   4.130  0.8938  0.6690  0.7530
11495TIP3   OH255975   5.355   1.840  12.732 -0.5126 -0.1201  0.0971
11495TIP3    H155976   5.316   1.789  12.804  0.5525 -0.5387  0.3958
11495TIP3    H255977   5.390   1.773  12.672 -1.1293  0.2326 -0.6657
11496TIP3   OH255978   0.719   2.458  12.133  0.1810 -0.4891  0.5396
11496TIP3    H155979   0.767   2.418  12.060  0.2559 -1.5216  1.1418
11496TIP3    H255980   0.628   2.460  12.104  0.6975  3.3055 -1.4551
11497TIP3   OH255981   0.323   5.250  16.950 -0.1870 -0.1983  0.0574
11497TIP3    H155982   0.380   5.301  17.008  1.1544 -0.1157 -1.2845
11497TIP3    H255983   0.254   5.311  16.924 -0.0726  0.1334  0.5205
11498TIP3   OH255984   1.936   4.006   1.923  0.3366  0.0640  0.4265
11498TIP3    H155985   1.869   4.075   1.924 -0.6560 -0.8624  0.5350
11498TIP3    H255986   2.019   4.052   1.914 -0.4637  1.1456 -2.2641
11499TIP3   OH255987   4.542   1.230   1.931 -0.4084  0.0345  0.0820
11499TIP3    H155988   4.464   1.286   1.933  0.5245  1.5998 -2.1475
11499TIP3    H255989   4.509   1.144   1.906 -1.5368  0.4034  0.2345
11500TIP3   OH255990   3.653   4.989  15.040 -0.1126 -0.1621  0.1844
11500TIP3    H155991   3.666   5.024  14.952  1.0577  2.1396  1.1741
11500TIP3    H255992   3.737   4.950  15.063  0.0448  0.4785  0.7501
11501TIP3   OH255993   3.491   4.055  17.334 -0.0591  0.0361  0.2363
11501TIP3    H155994   3.505   3.994  17.406 -4.3682 -1.5609 -0.0262
11501TIP3    H255995   3.445   4.129  17.373  0.5245  0.7323 -0.3550
11502TIP3   OH255996   6.045   3.775  12.674  0.1926 -0.3623  0.2832
11502TIP3    H155997   5.983   3.840  12.640 -0.0756 -0.6404  0.2399
11502TIP3    H255998   5.991   3.701  12.700  0.4781 -0.4897  0.5282
11503TIP3   OH255999   1.378   4.155   3.926 -0.2399  0.1790  0.4576
11503TIP3    H156000   1.376   4.103   4.006 -0.6333  0.6482  0.7568
11503TIP3    H256001   1.348   4.095   3.857  1.3035 -0.6028  0.4244
11504TIP3   OH256002   0.804   5.019  14.829 -0.3287 -0.6328  0.2913
11504TIP3    H156003   0.729   5.010  14.771  0.4193  0.3709 -0.8826
11504TIP3    H256004   0.873   4.967  14.787 -0.0503 -0.6500  0.7643
11505TIP3   OH256005   4.026   5.324   2.916 -0.4598  0.7637  0.4246
11505TIP3    H156006   3.995   5.359   3.000 -1.0635  2.5631 -0.4940
11505TIP3    H256007   4.121   5.329   2.921 -0.4260 -0.3124  1.4428
11506TIP3   OH256008   0.498   2.767  14.286  0.2728 -0.4845  0.5024
11506TIP3    H156009   0.543   2.795  14.366  2.2016  1.6672 -1.1966
11506TIP3    H256010   0.556   2.701  14.249  1.4975  1.3390 -1.0172
11507TIP3   OH256011   1.115   0.476  17.280 -0.4883  0.0713  0.6634
11507TIP3    H156012   1.025   0.509  17.279  0.1793  2.0690  1.1959
11507TIP3    H256013   1.112   0.398  17.336 -1.5721  1.2438  2.3256
11508TIP3   OH256014   2.071   4.249   2.642 -0.0332 -0.9978  0.2376
11508TIP3    H156015   2.037   4.276   2.556 -0.7194 -2.0374  0.1592
11508TIP3    H256016   2.010   4.181   2.671  0.8744 -1.5051  1.0131
11509TIP3   OH256017   6.346   4.811   4.837  0.3447  0.2709  1.1894
11509TIP3    H156018   6.261   4.828   4.879 -0.4513  0.1385 -0.2761
11509TIP3    H256019   6.342   4.862   4.756  1.4028 -0.2653  0.7922
11510TIP3   OH256020   0.839   0.053   5.319  0.1118  0.1732  0.2666
11510TIP3    H156021   0.847  -0.034   5.358 -1.0774  0.9688  2.4303
11510TIP3    H256022   0.911   0.103   5.357  0.4919  0.2956 -0.5878
11511TIP3   OH256023   3.778   5.103  13.618 -0.4845 -0.2903  0.4662
11511TIP3    H156024   3.684   5.089  13.634 -0.3603 -0.3427  1.1864
11511TIP3    H256025   3.781   5.154  13.537 -1.1115 -0.7735  0.1282
11512TIP3   OH256026   5.099   4.252   4.161 -0.2197  0.5376  0.6034
11512TIP3    H156027   5.166   4.276   4.096  1.7201 -1.3226  1.7706
11512TIP3    H256028   5.022   4.229   4.109  1.0124 -0.1235 -1.0340
11513TIP3   OH256029   6.514   3.982  15.928 -0.0320 -0.3071 -0.2594
11513TIP3    H156030   6.420   3.996  15.930  0.0404  0.1101  0.3155
11513TIP3    H256031   6.533   3.933  16.008  0.4998  1.3308  0.6450
11514TIP3   OH256032   3.443   6.075  17.248  0.2889  0.3686  0.5804
11514TIP3    H156033   3.349   6.094  17.252  0.1547  0.3121 -1.2586
11514TIP3    H256034   3.466   6.088  17.156  1.8997 -0.5516  0.8149
11515TIP3   OH256035   5.037   6.256   4.423 -0.5165 -0.5311  0.4276
11515TIP3    H156036   5.084   6.315   4.482 -1.0652  0.6839 -0.3046
11515TIP3    H256037   5.072   6.277   4.336  0.3056 -2.3118  0.2881
11516TIP3   OH256038   6.474   4.133   4.132 -0.1012 -0.7484 -0.1709
11516TIP3    H156039   6.391   4.093   4.104 -0.5351  0.0338 -0.0418
11516TIP3    H256040   6.459   4.227   4.122  1.0722 -0.6350 -0.9380
11517TIP3   OH256041   2.566   4.557   1.399 -0.0007 -0.2355 -0.2114
11517TIP3    H156042   2.513   4.636   1.404 -0.5084 -0.6321  0.9761
11517TIP3    H256043   2.575   4.540   1.305  0.8012  1.6522 -0.5204
11518TIP3   OH256044   5.477   3.447   4.766 -0.0525  0.5476  1.0236
11518TIP3    H156045   5.496   3.520   4.825 -1.7860  0.2526  2.0071
11518TIP3    H256046   5.536   3.461   4.692  1.6656  1.3319  2.4678
11519TIP3   OH256047   1.189   0.638   2.228  0.0035 -0.1207  0.5420
11519TIP3    H156048   1.210   0.587   2.307 -2.3184  0.1371  1.4068
11519TIP3    H256049   1.143   0.576   2.172  2.7076 -0.6536 -1.2586
11520TIP3   OH256050   3.476   1.343  13.021 -0.1810  0.5011  0.6124
11520TIP3    H156051   3.545   1.277  13.013 -0.8625 -0.1005 -0.4204
11520TIP3    H256052   3.523   1.426  13.029  0.6683  0.1080 -0.1806
11521TIP3   OH256053   6.454   0.056   3.031 -0.2788 -0.8879 -0.5445
11521TIP3    H156054   6.463   0.133   2.976  0.7662 -0.0375  0.7589
11521TIP3    H256055   6.481  -0.017   2.975  0.2628 -0.1120 -1.3117
11522TIP3   OH256056   3.875   2.822  13.075 -0.1701 -0.2317  0.3889
11522TIP3    H156057   3.889   2.914  13.097  0.5509 -0.2524  0.0332
11522TIP3    H256058   3.852   2.823  12.982  4.5562 -0.7170 -1.0571
11523TIP3   OH256059   3.735   2.220   2.700  0.7815 -0.8123 -0.1059
11523TIP3    H156060   3.788   2.154   2.657  1.3300 -0.1617 -0.4595
11523TIP3    H256061   3.666   2.242   2.637  1.8862  0.5107 -0.8992
11524TIP3   OH256062   3.993   6.559   3.126 -0.5097 -0.0077  0.3551
11524TIP3    H156063   3.937   6.498   3.078 -0.6540  0.0450  0.4594
11524TIP3    H256064   3.953   6.645   3.114  0.1968  0.2074 -0.5561
11525TIP3   OH256065   3.117   4.403  13.487  0.4563 -0.2091 -0.1637
11525TIP3    H156066   3.067   4.471  13.441  0.6680  0.1642  0.1505
11525TIP3    H256067   3.197   4.447  13.515  0.6932 -0.6480 -0.1386
11526TIP3   OH256068   4.625   0.161   0.456  0.1397 -0.4950 -0.4176
11526TIP3    H156069   4.567   0.202   0.392 -2.0342 -1.1151  1.0386
11526TIP3    H256070   4.590   0.073   0.467  1.5146 -0.9692  0.3792
11527TIP3   OH256071   2.606   2.272   5.267  0.2675 -0.7417  0.0493
11527TIP3    H156072   2.582   2.263   5.360 -1.6842 -3.0408 -0.5597
11527TIP3    H256073   2.587   2.364   5.247 -2.1788 -0.8696  1.2830
11528TIP3   OH256074   1.132   5.745   5.691 -0.0413 -0.4689 -0.1344
11528TIP3    H156075   1.213   5.794   5.705 -0.3394  0.3529 -1.2207
11528TIP3    H256076   1.069   5.810   5.660 -1.6215 -0.7628  2.2197
11529TIP3   OH256077   3.076   4.157   4.272  0.0051  0.3099  0.1425
11529TIP3    H156078   3.091   4.170   4.366  2.8186  0.1981 -0.2070
11529TIP3    H256079   3.093   4.063   4.258 -0.0768  0.3913 -0.5323
11530TIP3   OH256080   1.365   0.584  13.335  0.1078 -0.2666 -0.7328
11530TIP3    H156081   1.364   0.488  13.334 -0.3146 -0.3833  2.1714
11530TIP3    H256082   1.310   0.610  13.261  2.2838 -2.1373 -3.1864
11531TIP3   OH256083   2.569   4.939   4.190 -0.4111 -0.1029 -0.3117
11531TIP3    H156084   2.534   4.952   4.278  0.5792  1.6765 -0.1364
11531TIP3    H256085   2.663   4.949   4.199 -0.3580  1.0651 -1.6904
11532TIP3   OH256086   0.213   5.488  16.197  0.5343 -0.2340 -0.5152
11532TIP3    H156087   0.181   5.568  16.238 -1.3571 -0.6083 -1.1284
11532TIP3    H256088   0.254   5.438  16.268 -0.2947  0.2904  0.3559
11533TIP3   OH256089   4.825   3.786  16.821  0.5726 -0.3451  0.3083
11533TIP3    H156090   4.844   3.846  16.748 -2.9859  2.0081  1.0418
11533TIP3    H256091   4.755   3.731  16.788  0.7212 -1.0424  1.1419
11534TIP3   OH256092   0.246   2.510   2.296  0.2362 -0.0248  0.6411
11534TIP3    H156093   0.309   2.535   2.363  0.2573  0.2374  0.5222
11534TIP3    H256094   0.201   2.434   2.333 -1.3602  1.4761  1.9544
11535TIP3   OH256095   2.391   0.903   5.966  0.0736 -0.0147 -0.1889
11535TIP3    H156096   2.403   0.852   6.046  0.6006 -1.5491 -1.2030
11535TIP3    H256097   2.317   0.861   5.921  0.8559 -0.2651 -1.2930
11536TIP3   OH256098   4.638   1.398  15.466  0.2176  0.0406  0.7730
11536TIP3    H156099   4.699   1.330  15.437  0.9557  0.9915 -0.0006
11536TIP3    H256100   4.695   1.470  15.495 -0.4789  1.4383 -1.1082
11537TIP3   OH256101   1.917   4.757  12.136  1.0144 -0.1347  0.1741
11537TIP3    H156102   1.960   4.817  12.196  0.3119  0.1412  0.4075
11537TIP3    H256103   1.829   4.745  12.172  1.7624 -3.0128  1.3903
11538TIP3   OH256104   2.869   1.444   0.422 -0.1259 -0.5585  0.3810
11538TIP3    H156105   2.822   1.377   0.470 -2.0332 -0.2072 -0.8792
11538TIP3    H256106   2.958   1.442   0.457 -0.9755 -1.5015  2.5987
11539TIP3   OH256107   3.138   0.826   1.132  0.1145 -0.4028  0.2997
11539TIP3    H156108   3.191   0.753   1.166 -0.4629 -1.5099 -1.0655
11539TIP3    H256109   3.202   0.894   1.111  0.6768 -0.5355  1.5342
11540TIP3   OH256110   2.821   5.019   0.373 -0.3148  0.0732 -0.3799
11540TIP3    H156111   2.906   5.015   0.417 -0.6810 -0.7187  0.2764
11540TIP3    H256112   2.801   5.112   0.368  0.0783  0.2088  0.4696
11541TIP3   OH256113   5.302   4.558  13.343  0.7799  0.0592 -0.0909
11541TIP3    H156114   5.223   4.593  13.383  0.5809  1.4026 -1.5642
11541TIP3    H256115   5.371   4.618  13.371  1.5056 -1.5757  1.8802
11542TIP3   OH256116   5.830   2.144  14.050 -0.1944 -0.1234 -0.1207
11542TIP3    H156117   5.739   2.127  14.072 -0.1878  0.3599  0.3117
11542TIP3    H256118   5.827   2.187  13.964 -0.5354  1.7180  0.7783
11543TIP3   OH256119   0.290   4.845  13.584 -0.7268 -0.7197  0.4109
11543TIP3    H156120   0.216   4.861  13.643 -2.0202 -0.6493 -1.1874
11543TIP3    H256121   0.260   4.777  13.525 -0.4136  0.9431 -1.7710
11544TIP3   OH256122   6.267   6.207  17.114  0.1952 -0.0955  0.1944
11544TIP3    H156123   6.270   6.300  17.137  0.2098  0.2921 -1.2737
11544TIP3    H256124   6.190   6.173  17.159  0.4960  0.4817  1.1910
11545TIP3   OH256125   4.537   3.924   5.055 -0.5191 -0.1236  0.4517
11545TIP3    H156126   4.625   3.963   5.059 -1.2437  2.5189 -3.4141
11545TIP3    H256127   4.480   3.989   5.095 -0.9624 -1.0897  1.4500
11546TIP3   OH256128   2.153   1.431   3.819  0.1434  0.0122  0.3401
11546TIP3    H156129   2.228   1.411   3.763 -0.6423  0.9702 -1.1153
11546TIP3    H256130   2.188   1.429   3.908  1.8143  0.1451 -0.2831
11547TIP3   OH256131   6.647   2.263   1.260 -0.4443 -0.1581  0.3703
11547TIP3    H156132   6.716   2.327   1.239  0.1233 -0.5440  1.0198
11547TIP3    H256133   6.590   2.263   1.184  0.4904 -0.1103 -0.3441
11548TIP3   OH256134   1.776   1.544  11.163  0.3357 -0.0491 -0.2006
11548TIP3    H156135   1.825   1.526  11.083  2.0021  3.5171 -0.1741
11548TIP3    H256136   1.700   1.594  11.134 -1.4765 -2.4238  0.1446
11549TIP3   OH256137   4.294   0.198   0.532  0.2896  0.2444 -0.2894
11549TIP3    H156138   4.338   0.174   0.451  2.4466  1.5494  0.4277
11549TIP3    H256139   4.228   0.130   0.544  2.8026 -2.4923 -0.8856
11550TIP3   OH256140   5.951   3.665   5.854 -0.1809 -0.0237 -0.6021
11550TIP3    H156141   5.912   3.752   5.855  1.5584  0.7971  0.4715
11550TIP3    H256142   5.879   3.607   5.828 -1.5880  1.6178 -0.5544
11551TIP3   OH256143   1.969   5.416   5.569 -0.0442 -0.0061  0.6561
11551TIP3    H156144   1.969   5.472   5.491 -2.6218  1.2976  1.4848
11551TIP3    H256145   1.920   5.466   5.634  2.3867 -0.8470  3.3431
11552TIP3   OH256146   1.808   0.685   5.629 -0.3051  0.1375 -0.0583
11552TIP3    H156147   1.772   0.770   5.604  1.9270  0.5953 -2.0709
11552TIP3    H256148   1.853   0.702   5.712 -0.9943  0.5603  0.2445
11553TIP3   OH256149   4.289   2.422  14.792 -0.2991 -0.1458  0.3134
11553TIP3    H156150   4.282   2.480  14.716  0.9980 -0.9110 -0.4399
11553TIP3    H256151   4.207   2.434  14.840 -0.5856  1.3478 -0.4928
11554TIP3   OH256152   4.470   6.296   1.949 -0.5641 -0.3939  0.2530
11554TIP3    H156153   4.541   6.238   1.923  0.1295  0.5818 -0.0692
11554TIP3    H256154   4.461   6.283   2.043 -0.6520 -1.2582  0.1381
11555TIP3   OH256155   5.706   1.324  15.619 -0.7874  0.4174  0.2197
11555TIP3    H156156   5.693   1.294  15.709 -2.7645  0.8140  0.1217
11555TIP3    H256157   5.627   1.374  15.599  0.7642  2.6032 -0.8598
11556TIP3   OH256158   1.653   6.012  13.360 -0.1838  0.0717  0.1435
11556TIP3    H156159   1.675   6.057  13.442 -2.3698  0.3077  0.6721
11556TIP3    H256160   1.578   5.957  13.383 -0.7485  0.0310 -1.6716
11557TIP3   OH256161   6.658   5.237   2.400 -0.1869 -0.0670  0.3142
11557TIP3    H156162   6.622   5.154   2.431  0.3940 -1.0813 -1.5671
11557TIP3    H256163   6.617   5.251   2.315  1.8930  0.0320 -0.7428
11558TIP3   OH256164   0.958   4.988   6.311 -0.1839  0.2505 -0.4789
11558TIP3    H156165   0.907   4.907   6.306 -0.8470  0.6419 -0.2311
11558TIP3    H256166   0.906   5.046   6.367  1.7748 -0.2248  2.0270
11559TIP3   OH256167   6.722   3.217  14.729  0.1241 -0.5592 -0.0895
11559TIP3    H156168   6.671   3.262  14.663  0.6957 -1.2135 -0.9974
11559TIP3    H256169   6.768   3.148  14.681  1.0539 -0.6344  0.8731
11560TIP3   OH256170   4.616   4.628   4.701 -0.2263  0.1091  0.8774
11560TIP3    H156171   4.688   4.647   4.641 -0.6549 -0.3383  0.2119
11560TIP3    H256172   4.658   4.623   4.787  0.6533 -0.7859  0.4184
11561TIP3   OH256173   1.747   6.020   0.357  0.6568  0.5288  0.1387
11561TIP3    H156174   1.691   6.091   0.324  0.6389  0.3144 -0.3065
11561TIP3    H256175   1.817   6.013   0.292  1.7275  1.4095  1.1636
11562TIP3   OH256176   6.778   0.197   0.305  0.5489 -0.1895 -0.3688
11562TIP3    H156177   6.812   0.286   0.296  2.2684 -0.7317  0.3748
11562TIP3    H256178   6.811   0.150   0.228  0.3458 -0.4046 -0.3278
11563TIP3   OH256179   0.589   4.424   3.858  0.8440  0.3350  0.2871
11563TIP3    H156180   0.592   4.336   3.896  1.0919  0.3508  0.3074
11563TIP3    H256181   0.540   4.413   3.777  4.3789 -0.7161 -1.9718
11564TIP3   OH256182   3.729   2.247  13.468  0.0834  0.1196 -0.2723
11564TIP3    H156183   3.780   2.282  13.541  1.2021 -1.4629 -0.2584
11564TIP3    H256184   3.659   2.311  13.456  1.3685  1.7530  0.4856
11565TIP3   OH256185   6.064   3.394   1.962 -0.3858 -0.5525 -0.2264
11565TIP3    H156186   6.024   3.352   1.886  0.4336 -1.5158 -0.1473
11565TIP3    H256187   6.018   3.357   2.037 -0.2654 -0.6463 -0.1978
11566TIP3   OH256188   4.993   0.100  14.587 -0.3801  0.4715 -0.4460
11566TIP3    H156189   4.968   0.173  14.644 -1.6178  0.1287 -0.5189
11566TIP3    H256190   4.967   0.128  14.499  0.9987  0.7607 -0.7813
11567TIP3   OH256191   5.496   5.186   6.312  0.1009 -0.2762  0.4354
11567TIP3    H156192   5.469   5.247   6.380 -0.4268 -0.7795  0.6806
11567TIP3    H256193   5.506   5.241   6.234 -0.1494  0.1571  0.7041
11568TIP3   OH256194   5.689   1.908  15.499 -0.3445  0.0589 -0.1825
11568TIP3    H156195   5.615   1.849  15.487 -0.1693 -0.0272 -0.8522
11568TIP3    H256196   5.734   1.876  15.577 -1.0459  0.1508  0.2685
11569TIP3   OH256197   2.073   3.961  14.176 -0.1336 -0.6413  0.1046
11569TIP3    H156198   2.065   3.979  14.082  1.3035 -0.4583 -0.0132
11569TIP3    H256199   2.154   4.006  14.202 -0.1262 -1.2901  1.2704
11570TIP3   OH256200   3.667   0.031   4.548  0.0668  0.6494  0.3085
11570TIP3    H156201   3.593  -0.030   4.549 -1.3989  2.3491  1.8946
11570TIP3    H256202   3.660   0.074   4.462 -0.9645  0.9538  0.5210
11571TIP3   OH256203   0.669   1.831  15.929 -0.0985 -0.6201  0.2292
11571TIP3    H156204   0.683   1.894  15.999 -1.1554 -0.0087 -0.0946
11571TIP3    H256205   0.745   1.773  15.934  0.7139  0.4543  0.7571
11572TIP3   OH256206   5.539   4.296  11.969  1.0099 -0.0595 -0.4289
11572TIP3    H156207   5.494   4.248  11.900 -0.5452  0.6630  0.0433
11572TIP3    H256208   5.540   4.236  12.043 -0.8674  0.5337  0.1381
11573TIP3   OH256209   2.087   2.047  12.842 -0.4270  0.7917 -0.6221
11573TIP3    H156210   2.078   2.045  12.746 -0.6453 -1.6845 -0.6269
11573TIP3    H256211   1.998   2.061  12.874 -0.7173 -0.4128 -0.8216
11574TIP3   OH256212   1.510   1.053  10.494  0.0984  0.1422  0.1721
11574TIP3    H156213   1.416   1.033  10.496  0.2531 -0.6092  2.0566
11574TIP3    H256214   1.513   1.149  10.492 -0.7603  0.2323  1.4678
11575TIP3   OH256215   6.597   1.377  15.136 -0.1052 -0.1442 -0.0445
11575TIP3    H156216   6.638   1.332  15.062  0.6797  1.0905 -0.3943
11575TIP3    H256217   6.583   1.467  15.105  2.1143  0.9961  1.9022
11576TIP3   OH256218   5.325   4.384   5.056  0.0576 -0.0307  0.0384
11576TIP3    H156219   5.344   4.426   5.140 -0.5908 -0.7926  0.5868
11576TIP3    H256220   5.235   4.409   5.036  0.2344  0.2089 -0.4760
11577TIP3   OH256221   0.503   6.023   4.766 -0.0336  0.7449 -1.0033
11577TIP3    H156222   0.449   5.969   4.824  2.6723 -1.2791 -0.1803
11577TIP3    H256223   0.508   6.108   4.811 -0.3830  0.1242  0.2565
11578TIP3   OH256224   0.773   6.114  13.318 -0.2538 -0.0250  0.2046
11578TIP3    H156225   0.767   6.042  13.255  0.7556  0.6355 -0.6795
11578TIP3    H256226   0.849   6.092  13.372  0.2200  0.5070 -0.2420
11579TIP3   OH256227   3.440   4.944  15.819  0.0299 -0.3402  0.6098
11579TIP3    H156228   3.529   4.943  15.784 -0.9441 -1.7284 -2.2461
11579TIP3    H256229   3.417   4.851  15.828 -1.0856 -0.0078  1.3978
11580TIP3   OH256230   4.415   0.834  11.739 -0.1052  0.7662  0.7176
11580TIP3    H156231   4.466   0.859  11.816  0.4644 -0.2747  0.7044
11580TIP3    H256232   4.325   0.828  11.771  0.2739 -0.7638  1.6172
11581TIP3   OH256233   1.029   1.059  14.859 -0.6896  0.6783  0.1208
11581TIP3    H156234   1.063   0.978  14.822 -2.8889 -0.0432 -0.5051
11581TIP3    H256235   1.047   1.126  14.793  1.6878  0.8950  0.9032
11582TIP3   OH256236   4.526   3.396   0.927  0.3545  0.7119 -0.0914
11582TIP3    H156237   4.516   3.398   0.832  0.9415  0.8601 -0.1516
11582TIP3    H256238   4.453   3.450   0.959  2.0081  3.5107 -0.6397
11583TIP3   OH256239   5.351   1.535   1.015  0.0474 -0.1047 -0.4596
11583TIP3    H156240   5.280   1.561   0.955  0.2709 -1.1919 -1.2153
11583TIP3    H256241   5.366   1.443   0.996  0.2175 -0.4539  1.2041
11584TIP3   OH256242   2.486   3.315  15.220  0.1131 -0.1830  0.2077
11584TIP3    H156243   2.533   3.398  15.214  1.0020 -0.6217  0.9147
11584TIP3    H256244   2.470   3.289  15.129  2.8640 -0.9052 -0.1682
11585TIP3   OH256245   1.573   3.170   3.940 -0.3633 -0.4679  0.1176
11585TIP3    H156246   1.603   3.215   3.861 -4.2200  0.4179 -1.0724
11585TIP3    H256247   1.604   3.225   4.012  2.9972 -1.1458 -0.6216
11586TIP3   OH256248   6.101   2.692   4.427 -0.7937 -0.5516 -0.3549
11586TIP3    H156249   6.121   2.785   4.417 -1.1142 -0.2943  1.1517
11586TIP3    H256250   6.064   2.684   4.515 -2.4713 -1.8268 -1.1088
11587TIP3   OH256251   5.837   0.910   5.539 -0.0389 -0.1718  0.1594
11587TIP3    H156252   5.887   0.904   5.458  0.2535 -1.0382  0.3962
11587TIP3    H256253   5.896   0.954   5.600  0.2357 -0.7099  0.2828
11588TIP3   OH256254   4.324   3.661  15.935 -0.1554 -0.0763  0.5382
11588TIP3    H156255   4.291   3.585  15.983 -0.3571 -0.3532 -0.0284
11588TIP3    H256256   4.326   3.731  16.000  1.4278 -0.9085  1.4710
11589TIP3   OH256257   6.366   4.926   5.514 -0.2501 -0.0413 -0.3129
11589TIP3    H156258   6.445   4.877   5.539 -1.0807 -1.8226 -0.9915
11589TIP3    H256259   6.392   5.018   5.521  1.2329 -0.5373  1.5196
11590TIP3   OH256260   2.425   4.163  15.100 -0.3932  0.4396 -0.2981
11590TIP3    H156261   2.388   4.111  15.029  2.9063 -1.6225 -0.6904
11590TIP3    H256262   2.447   4.247  15.059 -0.8241  0.1998 -1.0391
11591TIP3   OH256263   5.607   1.091   5.048  0.4466 -0.2918 -0.3439
11591TIP3    H156264   5.515   1.107   5.026  0.9154 -0.8502 -3.1948
11591TIP3    H256265   5.604   1.038   5.128 -1.6954 -0.2563 -0.3392
11592TIP3   OH256266   1.945   2.839   5.207  0.2085  0.2739 -0.1365
11592TIP3    H156267   2.041   2.837   5.207  0.2731  0.3286 -2.7465
11592TIP3    H256268   1.923   2.923   5.247  1.2072  0.1747  0.6884
11593TIP3   OH256269   1.727   3.620   5.957 -0.0491 -0.4040  0.2022
11593TIP3    H156270   1.764   3.552   5.901  0.3617 -0.9436  1.1137
11593TIP3    H256271   1.761   3.702   5.921  1.3081 -0.8306  0.4594
11594TIP3   OH256272   6.389   5.715   1.245  0.1695  0.1373  0.0430
11594TIP3    H156273   6.294   5.707   1.251  0.0675  1.6067  1.3491
11594TIP3    H256274   6.405   5.759   1.161 -0.2978 -0.1038 -0.1721
11595TIP3   OH256275   4.701   2.292   5.490  0.4946 -0.3550 -0.2225
11595TIP3    H156276   4.732   2.295   5.399  0.5565  0.7503 -0.1834
11595TIP3    H256277   4.621   2.240   5.486 -0.4493  1.0578 -1.2367
11596TIP3   OH256278   2.434   5.132  11.985 -0.8816  0.1786 -0.2993
11596TIP3    H156279   2.348   5.165  12.011 -1.6045 -0.1527 -2.1230
11596TIP3    H256280   2.477   5.207  11.943 -0.2599  0.3434  0.6082
11597TIP3   OH256281   5.606   0.294  17.392  0.4357  0.0129 -0.3539
11597TIP3    H156282   5.572   0.383  17.400 -0.6237 -0.4611  0.9560
11597TIP3    H256283   5.687   0.303  17.342  0.0108  1.6154 -0.8063
11598TIP3   OH256284   3.072   6.395  15.623  0.3617 -0.1488 -0.4254
11598TIP3    H156285   3.118   6.334  15.681 -0.2482 -1.1380 -0.9559
11598TIP3    H256286   3.130   6.405  15.548  0.0855 -0.7719 -0.7315
11599TIP3   OH256287   4.438   3.946  12.063  0.3755  0.2533 -0.6458
11599TIP3    H156288   4.475   3.859  12.047 -0.0016  0.3837 -2.5090
11599TIP3    H256289   4.360   3.930  12.115  1.5949 -0.2586  1.1372
11600TIP3   OH256290   4.205   0.696   5.145  0.2511 -0.6495  0.3472
11600TIP3    H156291   4.129   0.651   5.110 -0.5100 -0.4343  1.6411
11600TIP3    H256292   4.257   0.721   5.068 -0.9089 -0.9205 -0.5454
11601TIP3   OH256293   2.054   4.331  13.218 -0.0271 -0.2192 -0.0671
11601TIP3    H156294   2.150   4.336  13.216 -0.0851  1.3365 -0.5267
11601TIP3    H256295   2.031   4.269  13.149  0.6102  0.6655 -1.1023
11602TIP3   OH256296   4.718   1.739   1.030  0.6238 -0.2074 -0.0006
11602TIP3    H156297   4.713   1.699   1.117  1.5264 -2.5156 -0.9330
11602TIP3    H256298   4.635   1.716   0.989  0.9511 -0.7666 -0.3701
11603TIP3   OH256299   0.494   4.846  17.352  0.6482 -0.3916  0.4190
11603TIP3    H156300   0.519   4.899  17.427  1.5917  2.2380 -1.6265
11603TIP3    H256301   0.406   4.814  17.373  1.2636 -0.5532  2.9956
11604TIP3   OH256302   1.146   3.767   2.014  0.0814  0.4249  0.5272
11604TIP3    H156303   1.174   3.814   2.092 -0.4477  0.9991  0.3734
11604TIP3    H256304   1.063   3.726   2.039  0.0773  0.3346  0.3701
11605TIP3   OH256305   1.951   5.925  16.549  0.5066 -0.1819  0.5721
11605TIP3    H156306   1.966   5.916  16.455  0.2290  0.6923  0.4357
11605TIP3    H256307   2.012   5.992  16.577 -0.4099  0.6106  0.7313
11606TIP3   OH256308   6.603   3.925   0.463  0.4569  0.0069 -0.3854
11606TIP3    H156309   6.576   3.834   0.455 -2.6000  0.7215  0.6372
11606TIP3    H256310   6.679   3.932   0.405  0.9727 -3.2052 -0.3005
11607TIP3   OH256311   1.742   6.581   2.747 -0.6406  1.1070  0.7382
11607TIP3    H156312   1.793   6.636   2.806 -2.5055  1.0580  2.4814
11607TIP3    H256313   1.670   6.548   2.801 -0.7953 -1.3160 -0.8040
11608TIP3   OH256314   5.482   5.670  14.875 -0.0434  0.6708 -0.2186
11608TIP3    H156315   5.510   5.706  14.791  1.0241  1.5107  0.4688
11608TIP3    H256316   5.493   5.743  14.936  1.0573 -0.4802  1.0099
11609TIP3   OH256317   2.224   6.363  14.626  0.4698  0.7509 -0.2541
11609TIP3    H156318   2.190   6.449  14.649  0.7053  0.5930  0.7522
11609TIP3    H256319   2.304   6.380  14.577  2.5224  1.1821  2.9541
11610TIP3   OH256320   4.979   1.935   0.483  0.0784  0.1131 -0.2034
11610TIP3    H156321   4.944   1.923   0.394  0.9991 -1.6501 -0.3638
11610TIP3    H256322   5.009   2.026   0.484 -0.4617  0.3326 -1.5087
11611TIP3   OH256323   6.312   4.132  13.946 -0.1453  0.3916 -0.1743
11611TIP3    H156324   6.277   4.054  13.990  0.0201  0.0514 -0.6366
11611TIP3    H256325   6.333   4.192  14.018 -0.2294 -0.0083  0.1921
11612TIP3   OH256326   6.072   4.654  16.681  0.0410  0.1639 -0.4005
11612TIP3    H156327   5.985   4.650  16.721  0.0559  1.0002 -0.2617
11612TIP3    H256328   6.055   4.667  16.588  0.0065 -1.7691 -0.7001
11613TIP3   OH256329   5.517   3.634  16.696  0.4090 -0.0377  0.2124
11613TIP3    H156330   5.491   3.583  16.619  0.0109  1.6618 -0.8285
11613TIP3    H256331   5.591   3.585  16.732  0.5961 -0.8974 -1.2356
11614TIP3   OH256332   4.641   2.812   1.919 -0.0257 -0.0839  0.5298
11614TIP3    H156333   4.643   2.722   1.885  2.0304 -0.2802  1.0076
11614TIP3    H256334   4.588   2.806   1.999  0.1615 -0.9134  0.6099
11615TIP3   OH256335   2.758   4.651   3.758 -0.3230 -0.5505  0.0616
11615TIP3    H156336   2.704   4.721   3.794  1.2884  1.1538 -0.6300
11615TIP3    H256337   2.839   4.655   3.808  0.0709 -1.4646 -0.4691
11616TIP3   OH256338   0.661   0.967  12.247 -0.3183 -0.1490 -0.1914
11616TIP3    H156339   0.694   1.022  12.318 -0.7806 -0.3786  0.2088
11616TIP3    H256340   0.718   0.986  12.173  0.4665 -0.2619  0.3805
11617TIP3   OH256341   1.146   4.838  14.431 -0.4307  0.3356 -0.0245
11617TIP3    H156342   1.228   4.842  14.481  0.3121 -3.5703 -0.5996
11617TIP3    H256343   1.168   4.877  14.346 -0.4761  3.0573  1.0958
11618TIP3   OH256344   2.042   4.512  14.958  0.0943  0.3969 -0.0642
11618TIP3    H156345   2.069   4.539  15.046  0.3518  0.3000 -0.1110
11618TIP3    H256346   1.946   4.515  14.960  0.0999  0.4167  0.2130
11619TIP3   OH256347   1.270   5.667  15.701  0.7212  0.0672 -0.5384
11619TIP3    H156348   1.350   5.715  15.722  1.0577 -1.2321  1.4515
11619TIP3    H256349   1.293   5.613  15.626  1.7890 -0.3673  0.0753
11620TIP3   OH256350   6.603   5.835  14.643  0.1909 -0.6541  0.0357
11620TIP3    H156351   6.558   5.773  14.585 -0.1924 -0.4128  0.0737
11620TIP3    H256352   6.644   5.780  14.709 -1.7977 -0.7906  1.2400
11621TIP3   OH256353   1.399   6.687  17.066 -0.5613 -0.3512 -0.3973
11621TIP3    H156354   1.361   6.740  16.996  1.3755  0.5661 -0.8355
11621TIP3    H256355   1.475   6.644  17.025  0.1242 -0.4522  0.9264
11622TIP3   OH256356   1.461   1.484   3.316 -0.1360  0.5390 -0.2251
11622TIP3    H156357   1.470   1.396   3.280  0.6731 -0.0976  1.4602
11622TIP3    H256358   1.367   1.497   3.325 -0.2507 -0.2083 -0.3245
11623TIP3   OH256359   3.011   6.364  13.131 -0.6423  0.2898 -0.0758
11623TIP3    H156360   3.016   6.271  13.108 -0.8666  0.6070 -1.5006
11623TIP3    H256361   3.035   6.409  13.050  0.7720  1.4758  0.9520
11624TIP3   OH256362   2.375   5.379   4.622 -0.0629 -0.0324 -0.7802
11624TIP3    H156363   2.328   5.298   4.641 -0.8870  0.3149 -1.2540
11624TIP3    H256364   2.380   5.424   4.707  2.4920 -1.5908 -0.0023
11625TIP3   OH256365   4.833   5.872   3.088  0.2249 -0.5239  0.2319
11625TIP3    H156366   4.860   5.798   3.142 -1.3302 -1.8787 -0.7439
11625TIP3    H256367   4.908   5.890   3.031  0.2632 -2.1118 -0.2662
11626TIP3   OH256368   3.312   4.969  13.085 -0.4779  0.2707  0.7591
11626TIP3    H156369   3.308   5.058  13.049 -0.4724  0.1885  0.5528
11626TIP3    H256370   3.315   4.912  13.008 -0.3301  0.0975  0.8912
11627TIP3   OH256371   3.210   5.656  10.975  0.1911 -0.7640 -1.1968
11627TIP3    H156372   3.128   5.607  10.971  0.0426 -0.4299 -3.9883
11627TIP3    H256373   3.182   5.748  10.983  0.4032 -0.8187  0.5652
11628TIP3   OH256374   1.863   2.193   0.807  0.3503 -0.2275  0.5394
11628TIP3    H156375   1.813   2.122   0.847  0.3006 -0.9027 -0.6651
11628TIP3    H256376   1.798   2.261   0.790  0.2683 -0.1722  1.0529
11629TIP3   OH256377   5.748   6.211  12.297 -0.1383  0.0886  0.7012
11629TIP3    H156378   5.803   6.138  12.324 -0.6124  0.0032  1.4813
11629TIP3    H256379   5.738   6.200  12.202  1.3821  0.2560  0.4892
11630TIP3   OH256380   3.889   5.737  14.590  0.3593  0.0402  0.1141
11630TIP3    H156381   3.812   5.792  14.599  0.2809  0.0066 -0.3535
11630TIP3    H256382   3.934   5.770  14.512  0.1948 -0.6896 -0.3050
11631TIP3   OH256383   3.829   4.566   3.379  0.0801 -0.4482 -0.1907
11631TIP3    H156384   3.839   4.541   3.471  1.9237  1.4144  0.2084
11631TIP3    H256385   3.912   4.609   3.357 -0.5978 -0.1932 -2.5152
11632TIP3   OH256386   6.149   6.439   4.157 -0.2181 -0.4150 -0.5312
11632TIP3    H156387   6.055   6.424   4.169  0.0245 -2.4714 -0.7551
11632TIP3    H256388   6.155   6.501   4.085 -1.4069  0.3029 -0.0410
11633TIP3   OH256389   2.847   1.973   4.246 -0.2513 -0.0942  0.6475
11633TIP3    H156390   2.935   2.007   4.266 -0.0227 -1.1585  1.5717
11633TIP3    H256391   2.789   2.022   4.304 -0.7288  2.6624 -1.9237
11634TIP3   OH256392   0.623   2.440   4.103 -0.2580 -0.8906  0.0872
11634TIP3    H156393   0.603   2.377   4.171 -2.2551  0.5491  0.9441
11634TIP3    H256394   0.717   2.434   4.090  0.2410 -1.0344  3.1987
11635TIP3   OH256395   0.562   6.337  16.581  0.0117  0.1120 -0.2358
11635TIP3    H156396   0.609   6.280  16.642 -0.7938 -0.1952  0.1145
11635TIP3    H256397   0.621   6.412  16.568  0.4743 -0.1238  0.4099
11636TIP3   OH256398   1.323   3.336   6.714  0.2968 -0.1135 -0.4258
11636TIP3    H156399   1.304   3.429   6.723  1.8664  0.2143 -0.1849
11636TIP3    H256400   1.259   3.292   6.770 -0.9311  0.7572 -1.1204
11637TIP3   OH256401   5.757   0.340   0.704  0.0910  0.4052  0.9421
11637TIP3    H156402   5.818   0.267   0.702  2.6479  2.3505  2.3838
11637TIP3    H256403   5.680   0.306   0.750  1.2294 -1.3284  1.6448
11638TIP3   OH256404   0.400   6.605  14.564  0.2202 -0.0059 -0.1448
11638TIP3    H156405   0.350   6.545  14.509  0.3029  0.4264 -0.6945
11638TIP3    H256406   0.334   6.666  14.599  0.5954  2.0744 -2.7788
11639TIP3   OH256407   3.656   5.519   1.079  0.5110 -0.3322 -0.9765
11639TIP3    H156408   3.730   5.574   1.104 -0.3701 -0.1098  1.3775
11639TIP3    H256409   3.583   5.580   1.066 -0.4548 -0.7901  1.5817
11640TIP3   OH256410   5.097   1.931  12.633 -0.1730  0.3627  0.2325
11640TIP3    H156411   5.095   2.025  12.649  0.2559  0.1053  2.0501
11640TIP3    H256412   5.191   1.910  12.629 -0.2536  0.1911 -1.5598
11641TIP3   OH256413   3.941   5.542  15.067 -0.7370 -0.3938  0.1132
11641TIP3    H156414   3.957   5.484  14.993  0.4700  1.2679 -1.0121
11641TIP3    H256415   4.022   5.538  15.118 -0.2531  0.9314 -0.4847
11642TIP3   OH256416   1.980   6.020  16.288 -0.4549  0.1255 -0.2455
11642TIP3    H156417   1.930   6.058  16.217  1.7545 -0.1041 -2.0406
11642TIP3    H256418   2.030   6.093  16.324 -2.0308  0.3808  1.6145
11643TIP3   OH256419   4.541   6.325   5.668 -0.5131 -0.1949  0.0828
11643TIP3    H156420   4.586   6.251   5.709  0.1886  0.3536  0.3213
11643TIP3    H256421   4.474   6.350   5.731  1.1267  1.2150  1.3924
11644TIP3   OH256422   5.355   5.879  17.114 -0.1629  0.0110 -0.0015
11644TIP3    H156423   5.399   5.808  17.161  0.1360  1.1522  1.5209
11644TIP3    H256424   5.415   5.902  17.044  0.9310  0.4310  1.0318
11645TIP3   OH256425   0.944   0.693  13.465  0.0495 -0.3897  0.2345
11645TIP3    H156426   0.959   0.784  13.490  2.6784 -1.0845  1.5327
11645TIP3    H256427   0.909   0.698  13.376 -1.0010  1.8989  0.7135
11646TIP3   OH256428   2.433   5.703  15.785  0.0633  0.0639 -0.0353
11646TIP3    H156429   2.362   5.730  15.843  1.0659  0.5451  1.0064
11646TIP3    H256430   2.510   5.699  15.841  0.8852 -0.3858 -1.1494
11647TIP3   OH256431   1.560   4.464  16.182 -0.1979  0.4604 -0.7517
11647TIP3    H156432   1.570   4.533  16.116 -0.6708  0.3095 -0.9877
11647TIP3    H256433   1.466   4.449  16.187 -0.2687  1.1852  0.7119
11648TIP3   OH256434   6.425   2.982   6.576 -0.2144  0.5658 -0.5752
11648TIP3    H156435   6.453   2.993   6.666  0.7880  0.7787 -0.9047
11648TIP3    H256436   6.330   2.967   6.582 -0.0586 -0.0710  0.5493
11649TIP3   OH256437   4.532   1.795   3.368  0.0062 -0.8528  0.4480
11649TIP3    H156438   4.604   1.731   3.365  1.4097  0.6393  0.7325
11649TIP3    H256439   4.545   1.849   3.289  0.4624  0.6883  1.5277
11650TIP3   OH256440   5.475   6.230   5.353  0.1609  0.4065 -0.1365
11650TIP3    H156441   5.397   6.209   5.302  0.2486 -1.6452  0.4943
11650TIP3    H256442   5.497   6.320   5.328 -0.8168  0.0804 -2.3572
11651TIP3   OH256443   2.632   4.703  15.424  0.5314 -0.3889 -0.3347
11651TIP3    H156444   2.679   4.624  15.450  1.8643  0.4414 -0.1248
11651TIP3    H256445   2.639   4.707  15.329  0.6290 -0.4175 -0.3279
11652TIP3   OH256446   2.283   1.955   5.289 -0.2367 -0.2412 -0.3672
11652TIP3    H156447   2.270   1.960   5.383 -1.7237  0.2399 -0.5626
11652TIP3    H256448   2.319   2.040   5.265  0.0776 -0.3393 -0.2404
11653TIP3   OH256449   6.481   2.134   0.369  0.4140  0.0569  0.1127
11653TIP3    H156450   6.527   2.082   0.303  2.1013 -0.4669  1.6039
11653TIP3    H256451   6.542   2.204   0.392  0.0825 -0.0494  1.4257
11654TIP3   OH256452   1.841   6.122   5.493 -0.1368  0.2743  0.5038
11654TIP3    H156453   1.873   6.094   5.579  0.0210 -0.0319  0.3488
11654TIP3    H256454   1.765   6.177   5.513 -0.0879  0.2265  0.8410
11655TIP3   OH256455   5.364   2.345   4.934 -0.1882 -0.8036 -0.5833
11655TIP3    H156456   5.398   2.431   4.907 -0.3523 -0.1847  1.0321
11655TIP3    H256457   5.441   2.296   4.962 -0.2141 -0.7556 -0.4255
11656TIP3   OH256458   0.212   1.817  12.741  0.4930  0.4184 -0.8992
11656TIP3    H156459   0.128   1.858  12.718 -0.9145 -1.6391  0.1740
11656TIP3    H256460   0.197   1.779  12.828  1.7132 -2.0674 -1.6620
11657TIP3   OH256461   1.575   2.566  15.001 -0.3472 -0.3859 -0.3399
11657TIP3    H156462   1.653   2.512  15.008  0.8236  1.3682  0.8561
11657TIP3    H256463   1.529   2.555  15.084 -0.3427  0.0776 -0.2705
11658TIP3   OH256464   0.396   0.229   5.929 -0.5004 -0.3902 -0.0180
11658TIP3    H156465   0.362   0.252   6.016 -2.3371 -1.4415 -0.4003
11658TIP3    H256466   0.374   0.137   5.919  2.9775 -1.3442 -0.1660
11659TIP3   OH256467   5.059   4.955   5.172  0.3577 -0.7898 -0.1499
11659TIP3    H156468   5.032   5.031   5.223 -1.6110 -0.7357 -1.1789
11659TIP3    H256469   5.000   4.886   5.199  0.1690 -1.1235 -1.3727
11660TIP3   OH256470   6.047   6.583  13.599 -0.6031 -0.5026 -0.2624
11660TIP3    H156471   6.126   6.536  13.625 -2.1406 -3.3643 -0.3576
11660TIP3    H256472   6.030   6.643  13.672  1.0839 -0.5244  0.1976
11661TIP3   OH256473   5.677   0.126  13.684 -0.1542 -0.3446 -0.1772
11661TIP3    H156474   5.705   0.098  13.597  0.5341 -0.0216 -0.0661
11661TIP3    H256475   5.647   0.046  13.728 -1.1734 -0.4039 -0.9496
11662TIP3   OH256476   6.080   0.203   3.567 -0.1524 -0.4519 -0.2312
11662TIP3    H156477   6.149   0.154   3.613  0.2911  0.1814 -0.2171
11662TIP3    H256478   6.005   0.201   3.626  0.0237 -0.6781 -0.0133
11663TIP3   OH256479   4.550   4.757  14.685 -0.0583  0.0911  0.3227
11663TIP3    H156480   4.584   4.708  14.610  0.7684 -1.1194  1.4417
11663TIP3    H256481   4.506   4.690  14.739 -0.5454  0.9234  0.9750
11664TIP3   OH256482   3.520   0.290  12.676  0.0460  0.2600  0.4037
11664TIP3    H156483   3.531   0.197  12.657 -0.1589  0.2539  0.3107
11664TIP3    H256484   3.510   0.295  12.771 -1.9249 -0.0231  0.2523
11665TIP3   OH256485   4.336   2.502  13.225  0.3932  0.4777  0.7660
11665TIP3    H156486   4.291   2.448  13.290 -0.0992  0.7282  0.6377
11665TIP3    H256487   4.426   2.470  13.225  0.0561 -0.5029  0.5273
11666TIP3   OH256488   0.864   3.664   2.848 -0.5709  0.4385  0.3861
11666TIP3    H156489   0.831   3.597   2.908 -1.2080  0.6590  0.2880
11666TIP3    H256490   0.842   3.747   2.890  1.1291  0.6136  1.0111
11667TIP3   OH256491   2.235   4.151  14.286  0.2295  0.4649 -0.3329
11667TIP3    H156492   2.256   4.191  14.201 -1.0369  0.5316 -0.6285
11667TIP3    H256493   2.318   4.154  14.334  1.2815 -0.5990 -1.9553
11668TIP3   OH256494   4.748   2.810   5.245  0.0359  0.5576 -0.3165
11668TIP3    H156495   4.767   2.789   5.337 -0.9692  1.6794  0.1760
11668TIP3    H256496   4.808   2.754   5.195 -0.2915 -1.0333  0.9765
11669TIP3   OH256497   4.212   0.492  13.711 -0.1880 -0.1481  0.5422
11669TIP3    H156498   4.166   0.489  13.795 -0.4572 -0.8182  0.3824
11669TIP3    H256499   4.155   0.545  13.654  0.5579  1.2818  1.0966
11670TIP3   OH256500   4.664   6.042   1.739  0.0215 -0.1229 -0.3673
11670TIP3    H156501   4.613   5.982   1.793  1.4092  0.0813  1.2561
11670TIP3    H256502   4.713   6.095   1.802  2.4514 -0.5074 -1.8118
11671TIP3   OH256503   2.405   1.748   5.146  0.5207  0.1031 -0.2985
11671TIP3    H156504   2.387   1.832   5.104  0.4249  0.6452  0.7820
11671TIP3    H256505   2.388   1.764   5.239  1.2651 -0.8981  0.0249
11672TIP3   OH256506   0.864   1.389   6.421 -0.1811 -0.1712 -0.0648
11672TIP3    H156507   0.831   1.455   6.481  0.5488 -0.1972  0.3664
11672TIP3    H256508   0.824   1.412   6.337  0.7015  1.3029 -0.1097
11673TIP3   OH256509   1.272   2.700   5.233  0.0270 -0.1961 -0.7845
11673TIP3    H156510   1.363   2.697   5.202  0.3208  0.9107 -0.0833
11673TIP3    H256511   1.277   2.742   5.319 -0.9231 -2.0381  0.2316
11674TIP3   OH256512   1.728   3.816  13.152 -1.1531  0.2910 -0.0978
11674TIP3    H156513   1.707   3.760  13.226 -2.6122  0.0742 -0.6320
11674TIP3    H256514   1.806   3.776  13.112  0.0889  0.8128  1.6812
11675TIP3   OH256515   3.272   4.223  14.094 -0.2365 -0.0076 -0.1951
11675TIP3    H156516   3.294   4.225  14.187 -0.8793  0.0691 -0.0444
11675TIP3    H256517   3.177   4.220  14.091 -0.2096 -0.7156 -0.8402
11676TIP3   OH256518   3.525   4.167   2.733 -0.0810  0.1406  0.0897
11676TIP3    H156519   3.487   4.244   2.692  0.8246  0.0630 -0.9397
11676TIP3    H256520   3.587   4.203   2.797 -1.7645  0.2642  1.7230
11677TIP3   OH256521   0.600   3.146   5.455  0.3752 -0.2842  0.2071
11677TIP3    H156522   0.582   3.127   5.547 -0.1503 -0.4360  0.0771
11677TIP3    H256523   0.675   3.091   5.434 -0.3466 -1.2718  0.1788
11678TIP3   OH256524   2.590   0.906   6.274 -0.6002 -0.3466  0.2188
11678TIP3    H156525   2.587   0.924   6.368 -0.6225 -1.5011  0.4492
11678TIP3    H256526   2.506   0.938   6.241 -2.0689 -2.9268  1.1752
11679TIP3   OH256527   4.481   4.256  15.069  0.6786  0.0798  0.0130
11679TIP3    H156528   4.495   4.276  14.976 -0.4861  1.2559  0.0569
11679TIP3    H256529   4.568   4.239  15.104  1.2214  0.4579 -1.1097
11680TIP3   OH256530   1.182   6.670   2.317 -0.8654  0.1517  0.6497
11680TIP3    H156531   1.232   6.735   2.268 -1.0699  0.9283  1.4418
11680TIP3    H256532   1.155   6.716   2.397 -0.0074 -1.2579  1.8035
11681TIP3   OH256533   5.226   6.434   0.287 -0.1871  0.1943 -0.0125
11681TIP3    H156534   5.252   6.526   0.276  0.4541  0.0488  0.2705
11681TIP3    H256535   5.134   6.440   0.315  0.1031  0.7959  0.8762
11682TIP3   OH256536   3.537   4.713  15.326  0.1793 -0.1046  0.0051
11682TIP3    H156537   3.448   4.678  15.316  0.3256 -0.6053  0.4248
11682TIP3    H256538   3.592   4.654  15.275  0.3913 -0.3235  0.4839
11683TIP3   OH256539   0.520   0.977  12.734 -0.5014 -0.0020 -0.2738
11683TIP3    H156540   0.500   1.006  12.823 -1.2982  0.2274 -0.5172
11683TIP3    H256541   0.453   0.912  12.714  0.2013 -0.7000 -0.3939
11684TIP3   OH256542   1.606   2.651  14.056 -0.1157 -0.6903  0.3151
11684TIP3    H156543   1.537   2.716  14.041 -0.7006 -1.3233  0.2207
11684TIP3    H256544   1.594   2.587  13.987 -0.1668 -1.4191  0.9847
11685TIP3   OH256545   3.167   4.958  15.329  0.1059 -0.0759 -0.0355
11685TIP3    H156546   3.086   4.907  15.330 -1.1681  1.8167  0.2191
11685TIP3    H256547   3.186   4.974  15.422  0.4516 -0.0476 -0.1100
11686TIP3   OH256548   3.269   5.137  15.703  0.0851 -0.0880 -0.2966
11686TIP3    H156549   3.178   5.111  15.689  0.5624 -1.7577 -0.4822
11686TIP3    H256550   3.296   5.091  15.783  1.3535 -1.3200 -1.3714
11687TIP3   OH256551   5.078   2.172   1.831 -0.2285  0.0044 -0.0800
11687TIP3    H156552   5.089   2.079   1.810  0.5615  0.0328  0.1630
11687TIP3    H256553   5.088   2.176   1.926  1.4953  0.5509 -0.2477
11688TIP3   OH256554   2.726   6.633   5.174  0.4103  0.1437 -0.5508
11688TIP3    H156555   2.762   6.647   5.262  0.4301 -0.9672 -0.3596
11688TIP3    H256556   2.798   6.591   5.126  0.0908 -0.1050 -0.8140
11689TIP3   OH256557   5.382   2.156   0.589  0.3373 -0.5261 -0.0503
11689TIP3    H156558   5.369   2.124   0.500 -0.9330 -0.9420  0.2607
11689TIP3    H256559   5.302   2.131   0.635 -0.0340  1.6715  0.6292
11690TIP3   OH256560   3.242   2.671  16.700  0.3063  0.4779  0.1542
11690TIP3    H156561   3.174   2.607  16.680  0.8830  0.2889 -1.3693
11690TIP3    H256562   3.263   2.657  16.792 -1.6254  0.4818  0.6420
11691TIP3   OH256563   1.198   5.320  15.963 -0.3304 -0.0248  0.1343
11691TIP3    H156564   1.173   5.346  15.874 -0.6594  0.4338  0.3559
11691TIP3    H256565   1.118   5.333  16.014 -0.4756 -1.3664  0.2832
11692TIP3   OH256566   3.071   5.218   2.245 -0.0388  0.1978 -0.4694
11692TIP3    H156567   3.031   5.238   2.160  2.1537  0.5090 -1.5086
11692TIP3    H256568   3.138   5.287   2.256  1.3276 -1.1956  0.3485
11693TIP3   OH256569   6.319   4.763   6.078  0.0138  0.6401  0.1565
11693TIP3    H156570   6.350   4.760   6.168 -0.3703  0.5271  0.2873
11693TIP3    H256571   6.397   4.750   6.025  0.3086  1.1502  0.4637
11694TIP3   OH256572   4.558   5.034   0.449  0.2696  0.1429 -0.0792
11694TIP3    H156573   4.644   5.072   0.466 -0.2273  0.3181  2.3418
11694TIP3    H256574   4.497   5.107   0.462 -0.3136 -0.1740 -0.9647
11695TIP3   OH256575   3.655   4.461   2.016  0.4555 -0.5750 -0.1029
11695TIP3    H156576   3.603   4.424   2.087  2.4177 -0.6767  1.3527
11695TIP3    H256577   3.734   4.407   2.014  2.3603  2.0149  0.5081
11696TIP3   OH256578   4.629   0.155  12.649  0.4567 -0.8089  0.2792
11696TIP3    H156579   4.656   0.201  12.728  2.1768 -0.2000 -0.6074
11696TIP3    H256580   4.660   0.211  12.577  0.6727 -2.2881 -0.8359
11697TIP3   OH256581   3.159   5.606   2.008  0.1696  0.6637  0.6382
11697TIP3    H156582   3.132   5.646   1.925  0.1016  0.6884  0.6721
11697TIP3    H256583   3.185   5.517   1.984 -0.3572  0.4970  0.6717
11698TIP3   OH256584   0.577   3.195  16.015 -0.2333  0.5658 -0.4446
11698TIP3    H156585   0.643   3.146  15.967  0.4624  0.4910  0.5577
11698TIP3    H256586   0.502   3.136  16.019  0.4279 -0.2499  0.3358
11699TIP3   OH256587   2.825   5.084  15.105 -0.4421 -0.0177  0.4252
11699TIP3    H156588   2.794   5.107  15.193 -2.9133 -2.0406  0.1942
11699TIP3    H256589   2.770   5.136  15.046 -1.9679 -1.9191  0.0567
11700TIP3   OH256590   5.915   5.602  12.618  0.1662 -0.1301  0.0259
11700TIP3    H156591   5.907   5.533  12.684 -0.9844  0.3291  0.3990
11700TIP3    H256592   5.861   5.572  12.545 -2.0789  1.2466  1.0048
11701TIP3   OH256593   2.635   0.601   2.253 -0.3849 -0.0980  0.1640
11701TIP3    H156594   2.654   0.683   2.297  0.2599  0.8613 -1.7798
11701TIP3    H256595   2.539   0.594   2.255 -0.3397 -0.8493  2.9137
11702TIP3   OH256596   5.726   6.417   4.900  0.3558 -0.3253 -0.1102
11702TIP3    H156597   5.694   6.493   4.851 -2.1872 -0.8775  0.5567
11702TIP3    H256598   5.777   6.454   4.972 -0.4741  0.7416 -0.0501
11703TIP3   OH256599   4.497   4.221   1.536 -0.1799 -0.1223 -0.5202
11703TIP3    H156600   4.448   4.140   1.525 -0.6087 -0.0717  0.8054
11703TIP3    H256601   4.584   4.202   1.500 -0.4250 -0.9974 -0.6748
11704TIP3   OH256602   2.993   5.345  12.452  0.4012 -0.0955 -0.0899
11704TIP3    H156603   2.988   5.267  12.507  0.6642 -0.4162 -0.5059
11704TIP3    H256604   2.932   5.327  12.381  0.4396  0.0895 -0.1686
11705TIP3   OH256605   1.110   0.881   3.512  0.2346  0.0769  0.0528
11705TIP3    H156606   1.031   0.837   3.541 -0.7537  0.4284 -1.9009
11705TIP3    H256607   1.152   0.819   3.453 -0.0639  0.8943 -1.0651
11706TIP3   OH256608   3.597   5.750  10.987  0.0113  0.7753  0.7144
11706TIP3    H156609   3.554   5.695  10.922 -0.4662  2.2676 -0.2842
11706TIP3    H256610   3.532   5.816  11.010  1.4516  2.6803 -0.3277
11707TIP3   OH256611   0.375   4.700   4.442  0.0056  0.5871 -0.1718
11707TIP3    H156612   0.444   4.645   4.480 -0.4134  0.8555  1.0229
11707TIP3    H256613   0.362   4.666   4.354  1.5243  0.4000 -0.3434
11708TIP3   OH256614   3.404   5.668  11.224 -0.0440  0.5139 -0.2418
11708TIP3    H156615   3.466   5.673  11.152 -0.1408 -1.4282 -0.4934
11708TIP3    H256616   3.443   5.607  11.286 -1.5551 -0.5727 -0.2935
11709TIP3   OH256617   2.729   6.048   4.848 -0.4750  0.5224  0.6507
11709TIP3    H156618   2.674   5.977   4.882  0.3928 -0.6804 -0.3658
11709TIP3    H256619   2.680   6.082   4.773 -0.1465 -0.1202  0.1360
11710TIP3   OH256620   1.434   6.086   4.045 -0.5381 -0.2913  0.9056
11710TIP3    H156621   1.357   6.127   4.082 -0.9553 -0.7637  0.5731
11710TIP3    H256622   1.505   6.149   4.059 -0.9274  0.0194  1.4554
11711TIP3   OH256623   3.175   3.768   6.077 -0.0013 -0.6187 -0.5120
11711TIP3    H156624   3.170   3.695   6.016 -0.1139 -1.3865  0.3997
11711TIP3    H256625   3.170   3.728   6.164 -0.3040  0.4901  0.0016
11712TIP3   OH256626   4.796   3.609   3.108 -0.2529  0.2012 -0.0597
11712TIP3    H156627   4.839   3.614   3.022 -1.7792 -0.6203 -0.9098
11712TIP3    H256628   4.860   3.564   3.163  0.8312  0.9064 -0.6900
11713TIP3   OH256629   1.800   3.100  16.486  0.1850  0.0773  0.3861
11713TIP3    H156630   1.866   3.044  16.528 -0.2606  0.0331  1.0420
11713TIP3    H256631   1.830   3.189  16.503  0.6620  0.0553 -0.2819
11714TIP3   OH256632   5.553   1.034   5.894 -0.1052  0.6723  0.4221
11714TIP3    H156633   5.522   1.017   5.983  0.3903  0.3807  0.5446
11714TIP3    H256634   5.649   1.034   5.902 -0.0498  0.1440 -0.2015
11715TIP3   OH256635   1.158   3.917  14.645 -0.0461  0.4734 -0.3701
11715TIP3    H156636   1.174   3.946  14.735 -2.8910 -0.7839  0.6464
11715TIP3    H256637   1.123   3.995  14.601  1.4687  1.1259 -0.4900
11716TIP3   OH256638   2.259   6.588  15.347  0.3188 -0.0125 -0.2276
11716TIP3    H156639   2.247   6.678  15.379 -1.1977  0.6494 -2.3852
11716TIP3    H256640   2.176   6.567  15.305  0.8278 -2.2838 -0.2088
11717TIP3   OH256641   3.179   6.068   5.078  0.1551 -0.1571 -0.5100
11717TIP3    H156642   3.086   6.047   5.081  0.1333 -0.3551 -2.0153
11717TIP3    H256643   3.193   6.125   5.153 -1.4357  0.8577 -0.9403
11718TIP3   OH256644   5.067   5.742  13.075  0.1422 -0.2116  0.2848
11718TIP3    H156645   4.983   5.787  13.079  0.7054  0.9335 -0.1907
11718TIP3    H256646   5.110   5.764  13.157  0.5610  0.4318 -0.0985
11719TIP3   OH256647   5.179   1.404  11.190  0.2429 -0.2674  0.8869
11719TIP3    H156648   5.247   1.467  11.166 -0.3160 -0.2048 -0.6870
11719TIP3    H256649   5.224   1.320  11.195  0.4433 -0.2489 -0.2683
11720TIP3   OH256650   1.278   4.510  12.259 -0.0510  0.1848 -0.7025
11720TIP3    H156651   1.351   4.494  12.199 -0.2652 -1.9189 -0.4813
11720TIP3    H256652   1.204   4.530  12.202  0.1953  0.1690 -1.0320
11721TIP3   OH256653   3.937   3.495  11.179  0.3875  0.3908 -0.0660
11721TIP3    H156654   3.985   3.413  11.195  0.5161  0.8853  2.6167
11721TIP3    H256655   3.998   3.563  11.209  0.5636  1.5889 -2.9074
11722TIP3   OH256656   1.220   2.510  16.418 -0.3150 -0.2021  0.1939
11722TIP3    H156657   1.270   2.557  16.485  2.1184  2.1834 -2.9902
11722TIP3    H256658   1.132   2.547  16.424  0.6981  2.4816 -0.0016
11723TIP3   OH256659   0.116   5.217  14.018  0.2216 -0.5359  0.3583
11723TIP3    H156660   0.201   5.174  14.016  0.1941 -0.8431 -4.0716
11723TIP3    H256661   0.136   5.309  14.036  1.2433 -0.9021  1.1841
11724TIP3   OH256662   4.005   2.003  15.444 -0.3485  0.0811 -0.1382
11724TIP3    H156663   4.002   1.993  15.539 -0.5135  0.7318 -0.0648
11724TIP3    H256664   3.934   2.065  15.425 -0.2102  0.0804 -0.6658
11725TIP3   OH256665   6.336   6.480   1.407 -0.6691 -0.1881  0.1722
11725TIP3    H156666   6.372   6.569   1.399 -2.4770  0.7363  1.5182
11725TIP3    H256667   6.378   6.444   1.485 -0.0950 -0.4506 -0.2519
11726TIP3   OH256668   0.364   5.604   5.190 -0.7106  0.1003 -1.2177
11726TIP3    H156669   0.448   5.650   5.188 -0.1242 -0.6501  1.5763
11726TIP3    H256670   0.298   5.673   5.193  0.0111  0.7737  0.0503
11727TIP3   OH256671   3.095   3.312  14.008 -0.1429  0.2287 -0.3189
11727TIP3    H156672   3.140   3.233  14.038 -0.5611  0.9558  2.4132
11727TIP3    H256673   3.132   3.382  14.061 -2.3598  1.2988 -0.1204
11728TIP3   OH256674   2.610   3.496  16.749 -0.1371 -0.7384 -0.6371
11728TIP3    H156675   2.622   3.481  16.656 -3.5025  2.0055 -1.7372
11728TIP3    H256676   2.523   3.461  16.768 -0.3592  0.5596  0.9654
11729TIP3   OH256677   5.150   1.174  13.100  0.4333  0.2954  0.3578
11729TIP3    H156678   5.068   1.137  13.069  0.7331 -0.0101 -0.0804
11729TIP3    H256679   5.174   1.120  13.175 -0.0210  0.7024  0.8023
11730TIP3   OH256680   2.041   5.450   6.536 -0.1199  0.4517 -0.2356
11730TIP3    H156681   2.031   5.401   6.618  0.0535 -1.2673 -1.1954
11730TIP3    H256682   2.020   5.387   6.468  0.8720  1.5184 -1.5784
11731TIP3   OH256683   5.342   0.606  12.153 -0.2522 -0.2146  0.8068
11731TIP3    H156684   5.416   0.552  12.124 -1.0117 -0.7536 -0.2128
11731TIP3    H256685   5.381   0.670  12.212  1.1203 -0.1816 -0.0711
11732TIP3   OH256686   4.272   2.262  12.321 -0.2119 -0.2289 -0.8930
11732TIP3    H156687   4.310   2.275  12.408 -1.3232 -1.8088 -0.1159
11732TIP3    H256688   4.257   2.350  12.288  1.1331  0.4098  0.0905
11733TIP3   OH256689   5.861   5.089  16.867 -0.0884  0.3176 -0.0695
11733TIP3    H156690   5.922   5.100  16.794 -0.8135 -0.3789 -0.8046
11733TIP3    H256691   5.774   5.100  16.827 -0.5424 -1.0485  0.4854
11734TIP3   OH256692   1.387   1.881   6.870  0.3853  0.2197 -0.0666
11734TIP3    H156693   1.341   1.797   6.872 -0.7583  0.7733  2.9339
11734TIP3    H256694   1.480   1.858   6.869  0.0844 -1.0912  0.2635
11735TIP3   OH256695   1.308   5.811   2.542 -0.6798  0.2135  0.0008
11735TIP3    H156696   1.363   5.884   2.513 -2.3659  1.2185 -0.8784
11735TIP3    H256697   1.299   5.757   2.464  1.0573 -1.3366  0.8081
11736TIP3   OH256698   2.414   3.204  12.949  0.4161 -0.9927  0.1517
11736TIP3    H156699   2.364   3.124  12.937 -1.2142  0.1323 -0.9730
11736TIP3    H256700   2.486   3.197  12.886 -0.0378 -1.3274 -0.3298
11737TIP3   OH256701   4.586   3.343  15.368  0.0488 -0.1775  0.0305
11737TIP3    H156702   4.649   3.347  15.296 -0.3338 -3.8571 -0.7335
11737TIP3    H256703   4.640   3.345  15.447  0.7307  0.9677 -0.4467
11738TIP3   OH256704   2.653   6.775  10.796 -0.9237 -0.1885 -0.2897
11738TIP3    H156705   2.705   6.785  10.876  0.5533 -0.2613 -1.2101
11738TIP3    H256706   2.693   6.702  10.750 -1.9173 -0.3088 -0.9981
11739TIP3   OH256707   4.149   0.525   1.524  0.5670  0.0128  0.1648
11739TIP3    H156708   4.225   0.468   1.525  1.1255  0.6434 -1.7733
11739TIP3    H256709   4.083   0.477   1.475  0.9938  0.9210 -1.3566
11740TIP3   OH256710   0.194   5.748  11.317  0.1531  0.0886  0.3036
11740TIP3    H156711   0.265   5.802  11.282  0.6570 -0.8198 -0.1216
11740TIP3    H256712   0.219   5.659  11.295 -1.1843 -0.2494  0.0563
11741TIP3   OH256713   5.703   6.234   3.615  0.4069 -0.0598  0.3966
11741TIP3    H156714   5.631   6.297   3.619  0.7841  0.3228  2.4909
11741TIP3    H256715   5.758   6.265   3.544 -0.4049  0.8734  0.1488
11742TIP3   OH256716   3.723   4.157  13.546 -0.2948 -0.2882 -0.3419
11742TIP3    H156717   3.657   4.220  13.515 -0.6767 -1.5474 -2.2970
11742TIP3    H256718   3.690   4.128  13.631  0.3664  2.7601  1.0650
11743TIP3   OH256719   6.083   5.959  16.620 -0.5724 -0.5010 -0.2924
11743TIP3    H156720   6.030   5.926  16.692  1.4381 -0.0599  1.5052
11743TIP3    H256721   6.078   5.890  16.553 -2.6056 -0.8576  0.1670
11744TIP3   OH256722   5.738   4.117  14.809 -0.1107 -0.0831 -0.1364
11744TIP3    H156723   5.750   4.135  14.902 -0.4211 -1.0067  0.0878
11744TIP3    H256724   5.743   4.203  14.767  1.4877  0.1998  0.5670
11745TIP3   OH256725   1.200   0.382   4.994 -0.1711  0.1825  0.4330
11745TIP3    H156726   1.288   0.351   5.017 -0.2972 -1.8122 -1.4314
11745TIP3    H256727   1.143   0.306   5.011 -1.2278  0.8203 -0.1896
11746TIP3   OH256728   5.229   2.427   1.335  0.3101  0.0527  0.1108
11746TIP3    H156729   5.285   2.397   1.407  0.7185 -2.8512 -1.2978
11746TIP3    H256730   5.290   2.462   1.270 -0.0664  2.7770  1.0868
11747TIP3   OH256731   1.230   5.618  12.411 -0.1771  0.1238 -0.0990
11747TIP3    H156732   1.147   5.657  12.439 -0.0900 -1.9220  3.5452
11747TIP3    H256733   1.219   5.524  12.426  2.3959 -0.3306 -0.6617
11748TIP3   OH256734   4.523   1.486  12.003  0.3200 -0.6377 -0.1180
11748TIP3    H156735   4.518   1.582  12.004  1.6364 -0.5054 -1.7776
11748TIP3    H256736   4.609   1.466  12.041  0.0330 -1.1766  0.2619
11749TIP3   OH256737   0.276   2.717  16.002 -0.1982  0.6383  0.0048
11749TIP3    H156738   0.277   2.654  15.931 -1.8960  1.7774 -1.0997
11749TIP3    H256739   0.187   2.711  16.038  0.1230  1.2658  0.9420
11750TIP3   OH256740   3.236   1.302  14.614  0.0659 -0.3261  0.2078
11750TIP3    H156741   3.252   1.212  14.644 -0.6579 -0.5750 -0.1273
11750TIP3    H256742   3.163   1.333  14.667  1.2050  0.5834  1.3061
11751TIP3   OH256743   4.352   6.014   5.158  0.3295 -0.0019  0.3399
11751TIP3    H156744   4.375   5.928   5.192 -0.3798 -0.5742 -0.5663
11751TIP3    H256745   4.373   6.010   5.065  1.4887  1.2583  0.5163
11752TIP3   OH256746   0.771   3.471  12.519 -0.0303  0.0216  0.5432
11752TIP3    H156747   0.705   3.414  12.479  0.2020 -0.8269  1.3401
11752TIP3    H256748   0.853   3.424  12.507  0.4430  1.0362 -0.3752
11753TIP3   OH256749   4.483   4.570   5.860 -0.2417 -0.3660 -0.3124
11753TIP3    H156750   4.411   4.620   5.821 -1.2758 -0.8035  0.9464
11753TIP3    H256751   4.492   4.493   5.804 -0.7455 -0.2922 -0.4982
11754TIP3   OH256752   0.712   0.289   0.270 -0.3922  0.0967 -0.0062
11754TIP3    H156753   0.620   0.264   0.284 -0.4762 -2.0686 -3.3822
11754TIP3    H256754   0.709   0.358   0.204  0.3987 -1.3059 -1.5745
11755TIP3   OH256755   0.807   3.741  12.491  0.4274  0.0090  0.0538
11755TIP3    H156756   0.762   3.657  12.478  0.1000  0.1497  0.2837
11755TIP3    H256757   0.809   3.781  12.404  0.4373 -0.1597 -0.0247
11756TIP3   OH256758   5.290   5.095  15.367  0.0194  0.3533  0.2510
11756TIP3    H156759   5.289   5.185  15.399 -1.9597 -0.0820  1.5796
11756TIP3    H256760   5.348   5.049  15.428  0.7355  0.6338 -0.2069
11757TIP3   OH256761   0.149   3.071  16.305 -0.1646 -0.4834 -0.3454
11757TIP3    H156762   0.101   3.030  16.233 -1.1712 -1.4447  0.8150
11757TIP3    H256763   0.087   3.071  16.378 -0.3891  3.5644 -0.3576
11758TIP3   OH256764   2.215   5.699   2.417 -0.4137 -0.2263  0.4708
11758TIP3    H156765   2.197   5.761   2.346 -2.5712 -0.2981  0.9131
11758TIP3    H256766   2.183   5.742   2.496  1.1928 -0.5114  1.3317
11759TIP3   OH256767   4.121   4.720  14.948 -0.2479 -0.5365 -0.1668
11759TIP3    H156768   4.123   4.816  14.954  2.0343 -0.5868  0.6790
11759TIP3    H256769   4.139   4.691  15.037  0.4579 -1.7395 -0.6853
11760TIP3   OH256770   3.305   3.725   5.463  0.2992 -0.0309  0.4302
11760TIP3    H156771   3.327   3.762   5.377  2.3069  0.1948  1.0068
11760TIP3    H256772   3.210   3.734   5.468  0.3828  2.2339 -0.7476
11761TIP3   OH256773   3.515   3.684   0.734 -0.3429 -0.3166 -0.1736
11761TIP3    H156774   3.605   3.703   0.709 -0.2423  0.2840  0.6322
11761TIP3    H256775   3.472   3.661   0.651  0.6572 -1.0954 -0.4979
11762TIP3   OH256776   3.789   2.260  11.060 -0.0146  0.2122 -0.0729
11762TIP3    H156777   3.874   2.259  11.103  0.0534 -0.2028 -0.2113
11762TIP3    H256778   3.761   2.352  11.063  0.7178  0.4567 -0.5854
11763TIP3   OH256779   5.774   1.794   0.095  0.2895 -0.0779 -0.9007
11763TIP3    H156780   5.855   1.833   0.062  0.3039 -0.4698 -1.3467
11763TIP3    H256781   5.754   1.844   0.174  0.8917  0.1147 -0.8590
11764TIP3   OH256782   5.355   6.446  12.181 -0.1032  0.3255 -0.5617
11764TIP3    H156783   5.355   6.399  12.098 -0.3058 -0.6237 -0.0363
11764TIP3    H256784   5.271   6.424  12.221 -0.1757  1.0914 -0.2704
11765TIP3   OH256785   6.256   5.679   0.578 -0.0585 -0.4283  0.4480
11765TIP3    H156786   6.171   5.639   0.558 -0.7449  1.7028 -1.2286
11765TIP3    H256787   6.247   5.709   0.668 -0.5086 -1.5340  0.7933
11766TIP3   OH256788   3.554   1.166  10.870 -0.0401  0.3453  0.6238
11766TIP3    H156789   3.589   1.214  10.945  1.0559 -0.9823  0.9983
11766TIP3    H256790   3.501   1.231  10.823 -0.6967  1.2390  2.4826
11767TIP3   OH256791   4.776   1.038  11.737 -0.0364 -0.1911 -1.1303
11767TIP3    H156792   4.757   1.131  11.748  2.5918  0.2775  0.1800
11767TIP3    H256793   4.748   0.997  11.819 -0.7849 -0.5154 -1.5344
11768TIP3   OH256794   6.430   5.625   2.738  0.3363  0.4377  0.7940
11768TIP3    H156795   6.446   5.559   2.671  1.6900  0.9133  0.6167
11768TIP3    H256796   6.457   5.585   2.820  0.0671  0.3695  0.8503
11769TIP3   OH256797   3.257   0.573  16.664 -0.2393 -0.5966  0.9512
11769TIP3    H156798   3.290   0.613  16.583 -2.1917 -0.1451  0.3307
11769TIP3    H256799   3.243   0.647  16.723 -0.6241 -0.7318  1.0283
11770TIP3   OH256800   3.820   0.465   3.972 -0.0740  0.2346  0.1556
11770TIP3    H156801   3.785   0.452   4.060  2.2835  0.4947  1.2113
11770TIP3    H256802   3.912   0.438   3.978 -0.0907 -0.8116 -2.5254
11771TIP3   OH256803   0.504   4.987   3.123 -0.4217  0.3632 -0.2930
11771TIP3    H156804   0.447   4.991   3.200 -1.8444  1.4861 -1.3535
11771TIP3    H256805   0.494   5.072   3.080  0.3677 -0.2077 -1.7000
11772TIP3   OH256806   5.271   5.803   3.092 -0.3294 -0.1829 -0.8204
11772TIP3    H156807   5.286   5.855   3.013  2.0510 -1.3726 -1.2728
11772TIP3    H256808   5.359   5.783   3.124 -1.2141 -1.1913  1.1744
11773TIP3   OH256809   4.531   3.681  12.007  0.2720  0.5657  0.4460
11773TIP3    H156810   4.452   3.634  11.980  0.2483  0.6202  0.4212
11773TIP3    H256811   4.581   3.692  11.926  0.3283  0.4865  0.4706
11774TIP3   OH256812   2.843   2.996   1.007 -0.4659  0.1243  0.5649
11774TIP3    H156813   2.916   2.937   0.989 -0.7675 -0.2201  0.4364
11774TIP3    H256814   2.861   3.074   0.955 -0.2506 -0.0098  0.4362
11775TIP3   OH256815   6.155   4.047   3.343  0.2795  0.5257  0.0431
11775TIP3    H156816   6.250   4.055   3.350  0.3430  0.4311 -0.6438
11775TIP3    H256817   6.141   3.971   3.287 -0.2236 -0.0947  0.9848
11776TIP3   OH256818   3.760   4.525  14.627  0.4474  0.1846 -0.9247
11776TIP3    H156819   3.785   4.579  14.702  0.9501 -0.1516 -0.8422
11776TIP3    H256820   3.716   4.585  14.567  0.3084  0.5176 -0.4938
11777TIP3   OH256821   2.371   1.959   0.220 -0.4173 -0.6212  0.4267
11777TIP3    H156822   2.287   1.964   0.266 -0.3672  0.6228  0.4040
11777TIP3    H256823   2.404   1.871   0.240 -1.1750 -0.6976  1.3913
11778TIP3   OH256824   4.251   3.006   0.641 -0.3975 -0.0849 -0.8957
11778TIP3    H156825   4.249   2.917   0.675  0.2107  0.0207 -0.5590
11778TIP3    H256826   4.265   2.995   0.547 -0.4892 -0.3492 -0.8791
11779TIP3   OH256827   4.206   6.573  13.222  0.0794 -0.2803 -0.3826
11779TIP3    H156828   4.202   6.624  13.141 -0.2947  2.1771  1.0960
11779TIP3    H256829   4.179   6.485  13.196  1.2814  0.0685 -3.1601
11780TIP3   OH256830   5.912   6.198   6.303 -0.3951  0.2517 -0.0372
11780TIP3    H156831   5.988   6.236   6.346 -1.0194  1.1520  0.2911
11780TIP3    H256832   5.877   6.136   6.367 -1.1702  1.4008  0.6845
11781TIP3   OH256833   0.251   2.945   1.336  0.5853  0.3408 -0.0503
11781TIP3    H156834   0.337   2.909   1.314 -0.0659  0.2226 -2.6941
11781TIP3    H256835   0.268   3.038   1.353  1.2882  0.2369 -0.1637
11782TIP3   OH256836   5.965   1.966  15.395  0.5139  0.1395 -0.2057
11782TIP3    H156837   5.975   1.884  15.347 -1.5134 -0.0492 -0.3787
11782TIP3    H256838   5.889   1.952  15.451  0.3909  1.7567  0.0765
11783TIP3   OH256839   1.002   5.902   6.142  0.2162 -0.5293 -0.2568
11783TIP3    H156840   0.936   5.947   6.090 -0.3751  0.1807  1.0650
11783TIP3    H256841   0.958   5.881   6.225  0.9403 -2.1894 -0.2481
11784TIP3   OH256842   2.619   2.661  15.224  0.4224  0.2072 -0.0113
11784TIP3    H156843   2.558   2.697  15.289  0.1170 -0.2909 -0.0202
11784TIP3    H256844   2.706   2.674  15.263  0.1678 -1.8709  1.4297
11785TIP3   OH256845   4.059   2.171  15.985  0.2154  0.2984 -0.2702
11785TIP3    H156846   4.040   2.260  16.015  0.8705  0.7618 -1.2012
11785TIP3    H256847   4.154   2.162  15.994 -0.1089 -1.4495  2.8344
11786TIP3   OH256848   1.639   1.155  14.659 -0.1629  0.2628  0.4443
11786TIP3    H156849   1.641   1.072  14.611  0.5322 -0.2283  1.2997
11786TIP3    H256850   1.666   1.221  14.595  1.9898 -0.5476  0.4536
11787TIP3   OH256851   1.662   4.805   1.316 -0.0884 -0.6086 -0.2407
11787TIP3    H156852   1.727   4.845   1.374  0.4053  0.3426 -1.4106
11787TIP3    H256853   1.685   4.712   1.315  0.0993 -0.5842  0.7991
11788TIP3   OH256854   0.986   2.514  14.156  0.7493  0.3190  0.6150
11788TIP3    H156855   1.068   2.501  14.109  0.2151  1.1507 -0.6086
11788TIP3    H256856   0.961   2.426  14.185  1.0311 -0.2642 -0.8115
11789TIP3   OH256857   2.904   6.612  14.204 -0.7612 -0.3281  0.4479
11789TIP3    H156858   2.863   6.528  14.224  0.5669 -1.2032 -0.3103
11789TIP3    H256859   2.857   6.644  14.127  1.3673 -2.5358 -2.0161
11790TIP3   OH256860   4.066   0.606  11.314  0.4907 -0.2382  0.0836
11790TIP3    H156861   3.995   0.543  11.308  1.7968 -1.6282 -2.1131
11790TIP3    H256862   4.041   0.663  11.386 -2.0899 -1.5725  0.3666
11791TIP3   OH256863   0.946   5.390  13.910  0.1743  0.1248  0.5705
11791TIP3    H156864   0.963   5.416  13.819 -1.7658  1.8556  0.6258
11791TIP3    H256865   0.869   5.334  13.904 -0.3419  0.7524  1.1659
11792TIP3   OH256866   2.816   6.344   2.663  0.3727  0.4209 -0.5231
11792TIP3    H156867   2.897   6.335   2.713 -0.0144  2.1130  0.4894
11792TIP3    H256868   2.758   6.277   2.699  1.2509 -0.7027 -1.1535
11793TIP3   OH256869   2.650   2.638   3.733  0.5322  0.3992 -0.1453
11793TIP3    H156870   2.634   2.725   3.695  1.0622  0.3710 -0.4457
11793TIP3    H256871   2.735   2.613   3.698  1.2501  0.5611  1.4080
11794TIP3   OH256872   5.200   5.049  13.619  0.0354  0.2196 -0.2975
11794TIP3    H156873   5.279   4.996  13.620 -1.7001 -2.5704 -0.1408
11794TIP3    H256874   5.136   4.998  13.670 -0.8327  4.1462  3.1037
11795TIP3   OH256875   0.647   1.071  10.925  0.3693  0.2120 -0.6789
11795TIP3    H156876   0.562   1.092  10.884 -0.0132 -1.3480 -0.7249
11795TIP3    H256877   0.625   1.014  10.999  1.4266 -0.8810 -1.1738
11796TIP3   OH256878   5.074   4.732   1.993 -0.1796  0.2212 -0.3637
11796TIP3    H156879   5.169   4.734   1.979  0.0305  3.1245  0.7044
11796TIP3    H256880   5.052   4.639   1.998  2.2538 -0.5956 -2.6663
11797TIP3   OH256881   3.912   5.907   6.407 -0.2553 -0.1251 -0.4772
11797TIP3    H156882   3.884   5.815   6.405 -1.4814  0.1968  0.3104
11797TIP3    H256883   3.994   5.908   6.359  1.6490 -2.2699  2.3570
11798TIP3   OH256884   3.700   4.247   1.336 -0.8355 -0.5215 -0.1628
11798TIP3    H156885   3.699   4.313   1.405  1.2019 -1.0890  0.4992
11798TIP3    H256886   3.649   4.285   1.264 -0.1081  1.5645  0.3677
11799TIP3   OH256887   1.469   1.677   3.507  0.0788 -0.3983  0.3949
11799TIP3    H156888   1.473   1.595   3.457 -1.6407  0.4253 -1.1831
11799TIP3    H256889   1.379   1.680   3.540  0.8322 -0.3327  2.6257
11800TIP3   OH256890   3.423   1.390  12.388 -0.8153  0.0760  0.0074
11800TIP3    H156891   3.467   1.376  12.303 -1.1881 -0.3260 -0.1222
11800TIP3    H256892   3.411   1.485  12.393  1.2727  0.3554  0.6509
11801TIP3   OH256893   0.389   1.454  16.749  0.1350 -0.3074 -0.0030
11801TIP3    H156894   0.475   1.484  16.776  0.0622  1.8534 -1.8469
11801TIP3    H256895   0.342   1.534  16.724 -1.1358 -1.6915 -2.4817
11802TIP3   OH256896   4.647   3.443   5.363  0.1730 -0.5524 -0.0563
11802TIP3    H156897   4.639   3.377   5.295 -1.2361 -3.4289  2.6486
11802TIP3    H256898   4.740   3.466   5.363  0.3976 -1.2616 -2.1674
11803TIP3   OH256899   2.999   0.714   6.091 -0.3832  0.0630 -0.1220
11803TIP3    H156900   3.022   0.744   6.003  0.6816  2.6043  0.9365
11803TIP3    H256901   3.076   0.666   6.121  0.3883  1.5504  0.3824
11804TIP3   OH256902   0.126   2.886  13.396 -0.3323  0.1474 -0.0195
11804TIP3    H156903   0.104   2.857  13.485  0.9272  0.5565  0.4543
11804TIP3    H256904   0.199   2.831  13.370  0.9562  1.6675  0.2137
11805TIP3   OH256905   6.123   0.928  12.773  0.2400  0.1738 -0.3262
11805TIP3    H156906   6.054   0.986  12.740  1.3435  1.6296 -0.1841
11805TIP3    H256907   6.177   0.909  12.697  0.4941  0.2158 -0.1577
11806TIP3   OH256908   4.298   4.269  15.364 -0.0347  0.3218  0.0074
11806TIP3    H156909   4.320   4.273  15.271  0.8230  0.9382  0.2278
11806TIP3    H256910   4.365   4.322  15.407  0.5824 -1.3489  1.1622
11807TIP3   OH256911   4.561   1.363   4.446  0.1172  0.0833  0.4125
11807TIP3    H156912   4.560   1.283   4.499  0.9441  0.1621  0.5640
11807TIP3    H256913   4.475   1.365   4.404  0.1874 -1.0503  0.1629
11808TIP3   OH256914   4.271   2.375  17.382 -0.7382 -0.2713  0.4503
11808TIP3    H156915   4.294   2.289  17.346 -0.3798  0.2284 -0.5791
11808TIP3    H256916   4.344   2.398  17.439  0.6142  0.5602 -1.4799
11809TIP3   OH256917   1.165   4.274   4.869 -0.2725 -0.0841  0.3694
11809TIP3    H156918   1.203   4.361   4.882 -0.8785  0.4522 -1.1116
11809TIP3    H256919   1.091   4.290   4.810  0.2731 -1.7493 -0.8337
11810TIP3   OH256920   0.499   5.723  13.698  0.7433  0.4287 -0.6025
11810TIP3    H156921   0.406   5.745  13.689  0.1427 -2.4072 -3.1048
11810TIP3    H256922   0.525   5.763  13.781 -3.1709 -0.0071  1.0831
11811TIP3   OH256923   3.886   4.547  12.508  0.2165  0.0971  0.0089
11811TIP3    H156924   3.933   4.628  12.521 -1.2609  0.9074  0.5606
11811TIP3    H256925   3.924   4.486  12.571  1.1748  0.4158 -0.2497
11812TIP3   OH256926   5.422   4.584   5.800  0.2390 -1.0333  0.2574
11812TIP3    H156927   5.367   4.644   5.749  1.2501 -1.6518 -1.6786
11812TIP3    H256928   5.510   4.598   5.766  0.6951 -2.6969  0.6573
11813TIP3   OH256929   1.786   0.936   5.752  0.1781 -0.5610  0.5397
11813TIP3    H156930   1.690   0.939   5.747  0.2359  0.3893 -0.2255
11813TIP3    H256931   1.814   1.026   5.736  1.1448 -0.4572  2.5450
11814TIP3   OH256932   2.350   2.324  12.379 -0.2161 -0.7536  0.3353
11814TIP3    H156933   2.385   2.285  12.299  0.3272 -1.2150  0.7943
11814TIP3    H256934   2.285   2.261  12.410 -1.8402  0.2970 -0.7513
11815TIP3   OH256935   2.250   5.644  13.705 -0.1873  0.4368  0.1919
11815TIP3    H156936   2.292   5.612  13.625  1.4363  0.8423  0.8349
11815TIP3    H256937   2.280   5.584  13.773  0.4007  1.4892  0.8874
11816TIP3   OH256938   5.431   2.264   2.937  0.0746  0.3089  0.5327
11816TIP3    H156939   5.384   2.332   2.985  0.3828 -0.3241  1.7808
11816TIP3    H256940   5.467   2.309   2.860 -0.2279  1.4149  1.0160
11817TIP3   OH256941   3.251   4.539   5.100  0.9230 -0.1528  0.2169
11817TIP3    H156942   3.177   4.527   5.158 -1.2932 -1.9634 -2.7000
11817TIP3    H256943   3.286   4.626   5.123 -1.2857  0.2456  2.5105
11818TIP3   OH256944   3.199   1.133  17.383 -0.2875  0.0441  0.1233
11818TIP3    H156945   3.144   1.147  17.306 -1.2215  1.1309  0.9623
11818TIP3    H256946   3.248   1.214  17.393  1.5553 -0.8974 -0.6088
11819TIP3   OH256947   3.036   5.412  16.584  0.1656  0.2391  0.4998
11819TIP3    H156948   3.122   5.370  16.578  0.3488  0.7332 -0.8352
11819TIP3    H256949   2.997   5.397  16.497 -0.5074  1.2461  0.6206
11820TIP3   OH256950   2.273   5.426  13.026  0.3430  0.3351  0.6550
11820TIP3    H156951   2.315   5.503  12.988 -0.0067  1.1215  1.8453
11820TIP3    H256952   2.259   5.448  13.118 -0.2772 -0.9340  0.8893
11821TIP3   OH256953   4.062   4.478  14.659  0.1815 -0.2239 -0.5351
11821TIP3    H156954   3.968   4.485  14.669 -0.0638 -1.9907 -1.1447
11821TIP3    H256955   4.093   4.448  14.744  0.4655  2.0720  0.2242
11822TIP3   OH256956   4.953   6.544   0.918 -0.1287 -0.1810  0.1073
11822TIP3    H156957   4.997   6.461   0.900 -0.6882 -0.1240 -1.7547
11822TIP3    H256958   5.012   6.590   0.978  1.4730 -0.8793 -0.8457
11823TIP3   OH256959   3.670   2.529   5.014 -0.8535  0.2994  0.8914
11823TIP3    H156960   3.583   2.500   4.986 -0.3021 -0.3654 -0.1802
11823TIP3    H256961   3.704   2.576   4.938  0.4085 -0.9472  0.6553
11824TIP3   OH256962   5.813   1.035  16.951  0.5441 -0.4434 -0.1104
11824TIP3    H156963   5.753   1.106  16.929 -0.0262 -0.4681  1.2703
11824TIP3    H256964   5.853   1.062  17.034 -0.3179 -2.0798  0.8971
11825TIP3   OH256965   1.425   6.635  16.729 -0.7135 -0.1283 -0.2784
11825TIP3    H156966   1.428   6.552  16.682 -0.5376  0.7589 -1.9341
11825TIP3    H256967   1.504   6.635  16.782 -0.0203 -0.4873 -1.2663
11826TIP3   OH256968   0.376   6.535   3.942  0.1620 -0.3549  0.2151
11826TIP3    H156969   0.426   6.568   3.867 -1.9763  0.3851 -0.9824
11826TIP3    H256970   0.429   6.464   3.977  3.0329  1.7220  0.4048
11827TIP3   OH256971   4.335   1.946  11.815 -0.6193  0.0217  0.0109
11827TIP3    H156972   4.346   2.023  11.870 -0.0243 -1.5885  2.3000
11827TIP3    H256973   4.254   1.962  11.766 -1.3164  1.4477  1.5435
11828TIP3   OH256974   1.461   3.171   5.342  0.2373  0.3226  0.0027
11828TIP3    H156975   1.418   3.086   5.351  1.9168 -0.4599  1.0801
11828TIP3    H256976   1.449   3.194   5.249 -1.5694 -0.3187  0.0329
11829TIP3   OH256977   1.102   2.602   2.870 -0.7998 -0.4956 -0.1053
11829TIP3    H156978   1.151   2.684   2.862 -2.0281  0.3010  0.2983
11829TIP3    H256979   1.130   2.566   2.954  0.6081 -1.1050 -0.7996
11830TIP3   OH256980   3.065   2.546   4.386  0.0061 -0.1462 -0.0967
11830TIP3    H156981   3.060   2.535   4.291  0.5779  1.1220 -0.2904
11830TIP3    H256982   3.142   2.600   4.400  0.9721 -1.7675  1.2461
11831TIP3   OH256983   2.970   0.080   5.742  0.2010 -0.3941  0.0839
11831TIP3    H156984   3.038   0.114   5.801  1.1120 -1.1255 -0.5140
11831TIP3    H256985   2.982  -0.015   5.744  0.5926 -0.4078 -1.6654
11832TIP3   OH256986   5.752   2.703   4.681 -0.0592 -0.1162  0.5632
11832TIP3    H156987   5.805   2.632   4.644  0.1629  0.7764 -0.9539
11832TIP3    H256988   5.784   2.714   4.770  1.4867 -0.4226  0.0765
11833TIP3   OH256989   5.552   4.017   5.653 -0.2314  0.2715 -0.1833
11833TIP3    H156990   5.522   4.086   5.594 -0.3784  0.8545  0.5564
11833TIP3    H256991   5.601   3.957   5.598 -0.4311  0.7681 -0.9084
11834TIP3   OH256992   4.691   0.049   4.755  0.4198 -0.0703  0.1527
11834TIP3    H156993   4.716   0.137   4.784 -0.3798 -0.2391  1.4503
11834TIP3    H256994   4.748   0.032   4.681 -0.0085  1.8942 -0.7084
11835TIP3   OH256995   2.243   3.413  13.636  0.3373  0.3620  0.4222
11835TIP3    H156996   2.330   3.414  13.677 -0.2691  0.6291  1.7633
11835TIP3    H256997   2.204   3.497  13.661 -1.8921 -1.3545  3.5517
11836TIP3   OH256998   2.654   4.990   2.927 -0.9231 -0.0903  0.1538
11836TIP3    H156999   2.689   5.075   2.898  1.4520 -0.9417  0.3215
11836TIP3    H257000   2.614   5.009   3.011  1.2681  0.6098  1.1272
11837TIP3   OH257001   0.437   2.286  12.685 -0.1716  0.1595 -0.2759
11837TIP3    H157002   0.514   2.231  12.672 -0.2169  0.1858 -0.6659
11837TIP3    H257003   0.410   2.311  12.597 -0.5750  0.2199 -0.1389
11838TIP3   OH257004   6.733   6.393  13.413  0.3591 -0.3141  0.2198
11838TIP3    H157005   6.687   6.384  13.330  0.1028  0.8765  0.2114
11838TIP3    H257006   6.688   6.332  13.472 -1.4833  1.0182  0.2867
11839TIP3   OH257007   4.801   3.799   5.184  0.7559 -0.4981  0.1521
11839TIP3    H157008   4.815   3.890   5.158  0.3985 -0.3583  0.4463
11839TIP3    H257009   4.730   3.803   5.247 -0.0635 -1.1122 -0.7083
11840TIP3   OH257010   4.345   2.492  12.014  0.4044  0.1896  0.2466
11840TIP3    H157011   4.277   2.547  11.976  0.6312  0.5952  0.4184
11840TIP3    H257012   4.307   2.459  12.096  0.1429 -0.1934 -0.0230
11841TIP3   OH257013   2.048   2.791  12.032  0.0083 -0.5844 -0.1134
11841TIP3    H157014   2.056   2.801  12.127 -0.5743  0.4388 -0.1534
11841TIP3    H257015   1.982   2.856  12.007  0.2526 -0.7501 -1.2329
11842TIP3   OH257016   5.555   5.349  14.299  0.2905 -0.2866 -0.1512
11842TIP3    H157017   5.507   5.368  14.380 -1.7220 -2.4548 -0.7159
11842TIP3    H257018   5.579   5.435  14.265  0.1174  0.7284  2.0955
11843TIP3   OH257019   5.913   2.602  11.441  0.2377  0.1932 -0.0386
11843TIP3    H157020   5.832   2.565  11.476  1.2763 -1.3814  0.8216
11843TIP3    H257021   5.939   2.669  11.504 -1.0860  1.7109 -1.0409
11844TIP3   OH257022   1.508   2.886  14.809  0.0917 -0.1905 -0.0081
11844TIP3    H157023   1.558   2.863  14.731  0.6601  0.2885  0.2069
11844TIP3    H257024   1.540   2.973  14.833  0.8103 -0.8029  1.4453
11845TIP3   OH257025   6.494   2.304  15.786  0.0891 -0.2607  0.1149
11845TIP3    H157026   6.512   2.220  15.743 -1.1982 -1.0450  1.0508
11845TIP3    H257027   6.517   2.290  15.878  0.0092  0.4664  0.2556
11846TIP3   OH257028   4.317   2.396  10.771 -0.0307  0.5354 -0.2282
11846TIP3    H157029   4.310   2.323  10.708  1.6529  0.6363 -0.5667
11846TIP3    H257030   4.240   2.450  10.753 -0.4752 -0.3331 -1.0483
11847TIP3   OH257031   1.416   6.037  16.622  0.1038 -0.3274 -0.4216
11847TIP3    H157032   1.506   6.004  16.625  0.9662  1.9030  0.7179
11847TIP3    H257033   1.379   6.014  16.707 -0.1629 -0.5192 -0.5832
11848TIP3   OH257034   5.529   3.502   2.394 -0.0681 -0.1233  0.4481
11848TIP3    H157035   5.608   3.457   2.425 -0.0569 -0.3820  0.0376
11848TIP3    H257036   5.474   3.433   2.357  0.4245  0.3214 -1.2021
11849TIP3   OH257037   2.691   1.853  14.595 -0.8189 -0.2026 -0.1143
11849TIP3    H157038   2.743   1.775  14.576  0.9660  0.8059  0.4031
11849TIP3    H257039   2.752   1.925  14.585 -2.0133  1.0185  1.0112
11850TIP3   OH257040   1.952   0.947  16.039  0.4038  0.3462  0.6152
11850TIP3    H157041   1.858   0.929  16.049  0.6346 -1.1322  0.3586
11850TIP3    H257042   1.971   0.921  15.948  1.2679 -0.4135  0.9977
11851TIP3   OH257043   1.146   6.631  10.349 -0.4885 -0.2224  0.6249
11851TIP3    H157044   1.114   6.631  10.439  1.0627  1.7195  1.2721
11851TIP3    H257045   1.143   6.723  10.323  1.9444 -0.2894 -0.1725
11852TIP3   OH257046   1.618   4.769  12.242  0.1146 -0.4067 -0.2712
11852TIP3    H157047   1.635   4.689  12.292  0.1573 -0.8118 -0.9246
11852TIP3    H257048   1.532   4.755  12.203  0.1704 -0.1803 -0.4778
11853TIP3   OH257049   2.587   4.913  17.358 -0.2052  0.6391 -0.1674
11853TIP3    H157050   2.638   4.991  17.376 -0.2859  0.6048  0.2295
11853TIP3    H257051   2.596   4.899  17.264  0.3454  0.7464 -0.1313
11854TIP3   OH257052   4.001   2.407  11.954 -0.2233 -0.6060  0.1441
11854TIP3    H157053   3.933   2.379  11.894 -0.5654 -0.1342  0.3064
11854TIP3    H257054   3.977   2.496  11.979 -0.1192 -0.8086  1.0205
11855TIP3   OH257055   3.050   0.864   0.631  0.0322 -0.1221  0.6495
11855TIP3    H157056   3.045   0.957   0.653  0.5389  0.1632 -0.3301
11855TIP3    H257057   3.098   0.824   0.704 -0.1731  0.3931  1.0670
11856TIP3   OH257058   4.609   6.172   0.863  0.5445  0.6392  0.1908
11856TIP3    H157059   4.679   6.161   0.800  0.3149  2.7254 -0.4985
11856TIP3    H257060   4.653   6.199   0.944  0.6778  0.0124  0.3295
11857TIP3   OH257061   6.278   5.635  13.999 -0.2163  0.0711 -0.2340
11857TIP3    H157062   6.259   5.541  14.001  1.1035 -0.2766 -1.6877
11857TIP3    H257063   6.194   5.677  14.012 -0.9306 -1.3272 -0.1643
11858TIP3   OH257064   1.792   3.819   5.376 -0.4427  0.5132  0.0537
11858TIP3    H157065   1.746   3.740   5.346 -0.2051 -0.0833  1.1970
11858TIP3    H257066   1.736   3.855   5.444  0.1255  0.5301  0.5225
11859TIP3   OH257067   2.004   2.053  17.387 -0.3113 -0.2871 -0.4662
11859TIP3    H157068   1.952   1.973  17.396  1.3024 -1.2870  0.5341
11859TIP3    H257069   2.053   2.040  17.305  0.1933 -0.5035 -0.1396
11860TIP3   OH257070   2.981   6.718  13.906  0.4207  0.3084  0.2258
11860TIP3    H157071   2.958   6.697  13.816  0.8100  1.7491 -0.2393
11860TIP3    H257072   2.900   6.752  13.944 -0.0550 -1.3744  0.8027
11861TIP3   OH257073   1.518   2.931  16.313 -0.7191  0.3882 -0.4737
11861TIP3    H157074   1.549   2.937  16.223 -0.3478 -0.1885 -0.3970
11861TIP3    H257075   1.430   2.895  16.305 -0.7018  0.3740 -0.6098
11862TIP3   OH257076   0.888   4.029   0.901  0.0455 -0.2764 -0.0439
11862TIP3    H157077   0.833   3.990   0.834  0.9064  0.7985 -1.4295
11862TIP3    H257078   0.973   3.986   0.891 -0.3331 -1.6165  1.7969
11863TIP3   OH257079   4.752   6.329  16.616 -0.2265  0.7911  0.2758
11863TIP3    H157080   4.799   6.336  16.699 -0.9813  0.2691  0.7596
11863TIP3    H257081   4.737   6.235  16.604 -1.5911  0.9750  0.3954
11864TIP3   OH257082   0.518   6.668  17.079  0.2093  0.0793 -0.8342
11864TIP3    H157083   0.519   6.764  17.085 -0.9070  0.0396  0.4542
11864TIP3    H257084   0.506   6.639  17.170  2.3639 -1.3540 -0.9486
11865TIP3   OH257085   0.433   2.717  17.114  0.3035  0.0541 -0.6307
11865TIP3    H157086   0.427   2.637  17.165 -1.2324 -0.9637 -2.2744
11865TIP3    H257087   0.342   2.743  17.099  0.7528  1.5621 -0.9738
11866TIP3   OH257088   3.131   5.835   4.388  0.5786 -0.3240  0.1853
11866TIP3    H157089   3.149   5.844   4.295 -0.6757  1.1644  0.0517
11866TIP3    H257090   3.052   5.887   4.403  1.3175  0.3061  2.2646
11867TIP3   OH257091   0.533   6.204  12.268  0.2412 -0.4566  0.0386
11867TIP3    H157092   0.481   6.205  12.349  0.1289 -0.0056 -0.0367
11867TIP3    H257093   0.615   6.248  12.292  0.5422 -1.0561  0.1223
11868TIP3   OH257094   1.361   3.281   0.871 -0.0731 -0.0805 -0.5673
11868TIP3    H157095   1.449   3.252   0.844  1.2249  1.5789  1.5740
11868TIP3    H257096   1.309   3.275   0.791  2.0950 -0.7007 -2.0335
11869TIP3   OH257097   3.888   4.827   2.155  0.2030  0.3704  0.3670
11869TIP3    H157098   3.823   4.757   2.159  0.8016 -0.1741  0.9983
11869TIP3    H257099   3.843   4.900   2.113 -1.0237  0.2348  1.3777
11870TIP3   OH257100   1.892   4.066  13.217 -0.7909 -0.4320 -0.2322
11870TIP3    H157101   1.875   3.979  13.252 -0.2890 -0.2063  0.6113
11870TIP3    H257102   1.859   4.126  13.285  0.7588  0.0124  0.1796
11871TIP3   OH257103   4.135   3.770   2.852 -0.5453  0.6329 -0.2813
11871TIP3    H157104   4.090   3.801   2.931 -0.3239  1.4564 -0.4701
11871TIP3    H257105   4.206   3.833   2.839  1.3295 -1.2195  0.6114
11872TIP3   OH257106   3.716   5.246  15.142  0.1650 -0.1716 -0.3304
11872TIP3    H157107   3.647   5.285  15.196  0.1805  1.2074 -1.2571
11872TIP3    H257108   3.698   5.152  15.145 -1.9407  0.1727 -0.7739
11873TIP3   OH257109   6.678   6.646   1.150  0.2963  0.4419 -0.4650
11873TIP3    H157110   6.715   6.700   1.219 -0.4052 -0.9569  1.0835
11873TIP3    H257111   6.745   6.581   1.130  0.1876  0.3396 -0.5039
11874TIP3   OH257112   4.228   3.503  16.150 -0.3866  0.2962  0.6294
11874TIP3    H157113   4.284   3.548  16.214 -3.0470  1.6350  2.1792
11874TIP3    H257114   4.147   3.484  16.198 -2.0140  0.0962 -1.9902
11875TIP3   OH257115   3.419   5.080   0.859 -0.3420 -0.3243 -0.0163
11875TIP3    H157116   3.351   5.017   0.885  0.0136 -0.6911  0.0251
11875TIP3    H257117   3.391   5.163   0.899 -0.7726 -0.4719 -0.0075
11876TIP3   OH257118   4.181   5.826  11.339 -0.3705 -0.1883  0.0138
11876TIP3    H157119   4.148   5.914  11.355  0.4164  0.3775 -1.3361
11876TIP3    H257120   4.255   5.817  11.400 -0.1687  0.2556 -0.1647
11877TIP3   OH257121   6.601   2.916  10.592  0.2854 -0.0516 -0.8724
11877TIP3    H157122   6.683   2.925  10.544 -0.3600  1.2517 -1.8040
11877TIP3    H257123   6.619   2.951  10.679  1.0722 -1.0660 -0.6136
11878TIP3   OH257124   5.652   4.486   3.528  0.4845 -0.3137 -0.8489
11878TIP3    H157125   5.685   4.478   3.617  0.6234 -0.3143 -0.9013
11878TIP3    H257126   5.726   4.517   3.477 -0.4294  3.1619 -0.3389
11879TIP3   OH257127   2.454   0.727  11.621  0.2330  0.3162  0.9828
11879TIP3    H157128   2.367   0.688  11.624 -0.5753  2.0286  1.2640
11879TIP3    H257129   2.498   0.695  11.700  0.1679 -1.1737  0.4427
11880TIP3   OH257130   6.135   1.690  15.299  0.2233  0.0771  0.0685
11880TIP3    H157131   6.199   1.624  15.328 -0.9290 -0.9168  0.4561
11880TIP3    H257132   6.171   1.724  15.217  0.5899 -1.4666 -0.4471
11881TIP3   OH257133   2.366   1.933   6.794  0.3065  0.2747 -0.2383
11881TIP3    H157134   2.290   1.980   6.828  0.9163  0.1811  1.2974
11881TIP3    H257135   2.340   1.841   6.794  0.0476  0.3429 -0.7545
11882TIP3   OH257136   1.370   4.696  15.401 -0.4653 -0.1451  0.2272
11882TIP3    H157137   1.299   4.694  15.337  0.3991 -0.5525 -0.7582
11882TIP3    H257138   1.332   4.736  15.479 -0.9523  2.6359 -1.3117
11883TIP3   OH257139   3.868   6.658   2.492  0.1168 -0.1394  0.0405
11883TIP3    H157140   3.831   6.666   2.579  0.8522 -0.8306  0.4265
11883TIP3    H257141   3.817   6.588   2.450 -0.0728  0.0231 -0.0019
11884TIP3   OH257142   4.851   5.577   2.994  0.2563 -0.2572  0.0481
11884TIP3    H157143   4.760   5.547   2.991 -0.4887  1.6077  1.9333
11884TIP3    H257144   4.852   5.654   2.937 -0.0191  1.2225  1.9670
11885TIP3   OH257145   1.069   5.247  12.703  0.1800  0.1318  0.2752
11885TIP3    H157146   1.109   5.161  12.690 -3.0641 -1.3671 -0.8896
11885TIP3    H257147   1.056   5.254  12.797 -0.6672 -1.2927  0.2947
11886TIP3   OH257148   0.258   2.028   4.327 -0.1776  0.6053  0.0634
11886TIP3    H157149   0.237   2.059   4.239 -0.4852  0.2740  0.0184
11886TIP3    H257150   0.336   1.974   4.316  0.8549  2.0182  0.2626
11887TIP3   OH257151   2.417   0.391   5.360  0.4892  0.4841 -0.1698
11887TIP3    H157152   2.333   0.346   5.354 -0.9656  2.9102  0.7351
11887TIP3    H257153   2.482   0.323   5.339 -1.5864 -1.7317  0.1434
11888TIP3   OH257154   5.230   1.482   5.242  0.0066 -0.5099  0.0385
11888TIP3    H157155   5.219   1.577   5.253  1.5092 -0.3374  0.1681
11888TIP3    H257156   5.324   1.469   5.234 -0.2355 -1.9103 -0.8882
11889TIP3   OH257157   6.651   3.516   2.478  0.5243  0.1645 -0.1254
11889TIP3    H157158   6.671   3.451   2.411 -0.8265 -0.4108 -0.0125
11889TIP3    H257159   6.640   3.598   2.429  2.8627  0.4877 -0.1972
11890TIP3   OH257160   4.247   4.329   5.728  0.3338  0.1350  1.0754
11890TIP3    H157161   4.156   4.306   5.709  0.2958  0.4438  0.8608
11890TIP3    H257162   4.269   4.278   5.805  0.3148 -0.7433  0.5164
11891TIP3   OH257163   0.603   3.811   0.871 -0.0517 -0.5007 -0.0643
11891TIP3    H157164   0.521   3.799   0.919  0.7723  0.8483  1.7812
11891TIP3    H257165   0.666   3.754   0.915  0.6798  0.6300  0.3926
11892TIP3   OH257166   1.788   0.237  15.516  0.5521  0.4160  0.5729
11892TIP3    H157167   1.751   0.201  15.596 -1.8469  1.1428 -0.1476
11892TIP3    H257168   1.813   0.327  15.538 -3.8150  2.0773 -0.3193
11893TIP3   OH257169   6.395   3.671  16.599 -0.1651  0.7655  0.6016
11893TIP3    H157170   6.433   3.626  16.523  0.6768 -0.4701  1.7163
11893TIP3    H257171   6.312   3.626  16.614 -0.1213  0.7183  0.6979
11894TIP3   OH257172   3.587   2.118   5.930 -0.2394 -0.1404  0.3910
11894TIP3    H157173   3.567   2.086   6.018  0.5426  1.9990  1.4189
11894TIP3    H257174   3.624   2.043   5.884 -1.7808 -1.6345  1.4587
11895TIP3   OH257175   2.921   2.217  12.104  0.0888 -0.3253  0.1321
11895TIP3    H157176   2.857   2.288  12.100  0.0528 -0.3265 -4.7888
11895TIP3    H257177   2.879   2.143  12.060  2.4408 -1.2486 -0.7330
11896TIP3   OH257178   1.709   2.415   1.442  0.0942 -0.2856 -0.5494
11896TIP3    H157179   1.769   2.385   1.373 -0.6421 -1.7340 -0.5990
11896TIP3    H257180   1.659   2.337   1.465  0.2918  0.1757  1.6181
11897TIP3   OH257181   5.057   5.013  10.497 -0.6470  0.0684  0.2269
11897TIP3    H157182   5.052   5.082  10.563 -0.2893  0.1984  0.1188
11897TIP3    H257183   5.048   5.058  10.414 -2.0603 -0.2000  0.2093
11898TIP3   OH257184   1.714   4.159  13.815 -0.0481 -0.0459  0.6861
11898TIP3    H157185   1.691   4.177  13.724 -0.3505  1.9829  1.1210
11898TIP3    H257186   1.809   4.174  13.820  0.1707 -1.2589  0.4875
11899TIP3   OH257187   3.238   5.746  11.433 -0.5356 -0.4990 -0.1294
11899TIP3    H157188   3.285   5.695  11.499 -0.2064  2.0818  1.7918
11899TIP3    H257189   3.296   5.748  11.358  0.3718 -1.1577  0.5304
11900TIP3   OH257190   4.050   0.396  14.908 -0.0160  0.0955  0.4257
11900TIP3    H157191   4.045   0.339  14.831 -1.6563 -0.0354  0.6025
11900TIP3    H257192   4.102   0.345  14.971  0.4359 -0.2467 -0.2085
11901TIP3   OH257193   5.608   0.333  15.047  0.1157 -0.4041  0.6889
11901TIP3    H157194   5.594   0.379  15.130 -1.1634  0.2597  0.1545
11901TIP3    H257195   5.611   0.241  15.070 -1.3055 -0.3056  1.3867
11902TIP3   OH257196   5.931   1.069  13.842 -0.5124  0.0861 -0.4339
11902TIP3    H157197   6.010   1.019  13.863 -0.7556 -0.3076 -0.4579
11902TIP3    H257198   5.899   1.099  13.927 -0.2457  0.3914 -0.4368
11903TIP3   OH257199   2.394   3.312   3.616  0.2368  0.9423  0.1781
11903TIP3    H157200   2.380   3.257   3.538  0.7540  2.4995 -1.0580
11903TIP3    H257201   2.343   3.391   3.599  0.1006  1.1800  1.5910
11904TIP3   OH257202   4.503   2.306   1.100 -0.6163  0.3962  0.4827
11904TIP3    H157203   4.537   2.394   1.084 -3.0709  1.4130  0.3626
11904TIP3    H257204   4.563   2.268   1.164  1.8946  1.2066 -1.2357
11905TIP3   OH257205   0.025   2.667   2.227 -0.2701 -0.5658 -0.5842
11905TIP3    H157206   0.106   2.626   2.255 -2.0131 -3.8249  0.2596
11905TIP3    H257207   0.038   2.686   2.134  1.8895  0.3224 -0.1516
11906TIP3   OH257208   0.679   4.794   3.456 -0.1553  0.3507 -0.2872
11906TIP3    H157209   0.695   4.701   3.468 -0.2025  0.4241  0.3709
11906TIP3    H257210   0.608   4.799   3.391 -1.1255 -0.1067  0.7121
11907TIP3   OH257211   4.428   5.073   2.792 -0.0154 -0.0066 -0.5123
11907TIP3    H157212   4.384   4.992   2.767 -0.3239  0.7448 -2.6098
11907TIP3    H257213   4.388   5.140   2.737 -0.5166  1.8014  1.9160
11908TIP3   OH257214   1.841   0.174  12.667 -0.3416  0.1674  0.6414
11908TIP3    H157215   1.846   0.131  12.752  0.0064  0.3590  0.7174
11908TIP3    H257216   1.846   0.102  12.604 -0.6304  0.0236  0.7799
11909TIP3   OH257217   6.656   2.623   0.163  0.1755 -0.2710 -0.0367
11909TIP3    H157218   6.580   2.645   0.109  0.1390 -1.3585 -0.4730
11909TIP3    H257219   6.627   2.547   0.214  0.4194  0.3655  1.0736
11910TIP3   OH257220   2.911   2.349   3.884 -0.5938 -0.3091 -0.3173
11910TIP3    H157221   2.930   2.410   3.956  2.2474  0.1520 -1.3327
11910TIP3    H257222   2.924   2.262   3.922  1.6356 -0.0578 -0.3244
11911TIP3   OH257223   4.298   3.302  14.831 -0.2407  0.1150 -0.2144
11911TIP3    H157224   4.391   3.282  14.818  0.1545  1.8571 -0.2391
11911TIP3    H257225   4.274   3.355  14.756 -0.9457  0.6455  0.3749
11912TIP3   OH257226   2.507   1.008   2.715  0.1078  0.2403 -0.1380
11912TIP3    H157227   2.527   1.019   2.622  0.7450 -0.2607 -0.0623
11912TIP3    H257228   2.572   1.061   2.760  0.2337 -0.0642  0.0427
11913TIP3   OH257229   5.770   1.097   3.336 -0.1670  0.2927  0.1896
11913TIP3    H157230   5.737   1.163   3.396 -1.0641  1.2828 -1.3082
11913TIP3    H257231   5.827   1.042   3.389  0.6736  2.2962  1.4998
11914TIP3   OH257232   5.667   1.480  11.548  0.1375  0.1729  0.1506
11914TIP3    H157233   5.576   1.506  11.535  0.9376  2.6636 -1.2252
11914TIP3    H257234   5.678   1.403  11.493 -0.8902  0.4387 -0.4673
11915TIP3   OH257235   1.082   6.637  17.014 -0.1498 -0.1416  0.7632
11915TIP3    H157236   1.062   6.654  17.106 -2.3164 -0.4033  0.3986
11915TIP3    H257237   1.121   6.718  16.982 -1.0055  0.5809  1.4990
11916TIP3   OH257238   3.346   3.999  12.685  0.1925 -0.0043  0.2547
11916TIP3    H157239   3.426   3.948  12.671 -1.1726 -2.0627 -0.6157
11916TIP3    H257240   3.316   4.021  12.597 -0.7841 -0.2599  0.5131
11917TIP3   OH257241   2.715   5.199   5.413  0.5216  0.0622 -0.6634
11917TIP3    H157242   2.720   5.180   5.319  1.3187 -1.5757 -0.3162
11917TIP3    H257243   2.806   5.207   5.441  0.3301  4.2651 -0.6608
11918TIP3   OH257244   5.126   4.018  13.179 -0.5049 -0.1587  0.0970
11918TIP3    H157245   5.181   4.075  13.233 -0.7187  0.6773 -0.5410
11918TIP3    H257246   5.115   4.066  13.097 -2.5194 -0.1098  0.3502
11919TIP3   OH257247   2.455   5.658  10.910 -0.3560 -0.9487 -0.4426
11919TIP3    H157248   2.535   5.640  10.959 -1.8532  0.2230  2.6580
11919TIP3    H257249   2.385   5.623  10.964 -2.3999  3.4187  0.1949
11920TIP3   OH257250   3.082   2.205   2.194  0.4864 -0.1389  0.5996
11920TIP3    H157251   3.007   2.254   2.162  1.1767  0.1028 -0.7181
11920TIP3    H257252   3.158   2.248   2.155  1.5665  1.0333  3.6594
11921TIP3   OH257253   0.459   6.127   3.804 -0.3292  0.5526 -0.3039
11921TIP3    H157254   0.550   6.123   3.774 -1.1483 -0.3482 -2.9150
11921TIP3    H257255   0.441   6.040   3.838 -0.4390  0.5016 -0.4926
11922TIP3   OH257256   6.591   2.716  13.890 -0.1558 -0.2093 -0.2358
11922TIP3    H157257   6.654   2.730  13.961 -1.3444  0.8816  0.6546
11922TIP3    H257258   6.618   2.634  13.849  1.4938 -0.0522  0.4813
11923TIP3   OH257259   0.567   3.841  16.001  0.2503  0.1051  0.2828
11923TIP3    H157260   0.500   3.894  16.042 -0.4023  0.9710 -1.7736
11923TIP3    H257261   0.556   3.754  16.039 -0.5890  0.7444  1.5636
11924TIP3   OH257262   1.941   4.660  11.903  0.6488  0.0337  0.4451
11924TIP3    H157263   1.955   4.679  11.996  1.9952 -0.2539  0.3232
11924TIP3    H257264   1.917   4.568  11.900  0.1011  0.1692  0.5404
11925TIP3   OH257265   3.281   1.271   6.646 -0.4090 -0.1125 -0.3072
11925TIP3    H157266   3.287   1.187   6.602 -0.2641  0.4155 -1.3442
11925TIP3    H257267   3.203   1.264   6.701 -1.7969 -0.1496 -2.1681
11926TIP3   OH257268   4.814   1.975  12.874  0.2494 -0.1985 -0.1530
11926TIP3    H157269   4.780   1.921  12.803  0.2209  0.5108 -0.6978
11926TIP3    H257270   4.866   1.916  12.927  3.1214 -0.1532 -2.6540
11927TIP3   OH257271   4.448   4.142  13.263  0.4133 -0.1220 -0.6228
11927TIP3    H157272   4.480   4.124  13.351  1.1096  0.0885 -0.8261
11927TIP3    H257273   4.358   4.172  13.275  1.2349  2.2244  0.2252
11928TIP3   OH257274   6.647   5.696   2.323  0.4405  0.0191 -0.3019
11928TIP3    H157275   6.570   5.726   2.274  0.2971  1.1073  0.5604
11928TIP3    H257276   6.612   5.643   2.394  0.6880 -2.2655 -1.7645
11929TIP3   OH257277   2.540   6.498   6.154  0.3028  0.4095  0.0184
11929TIP3    H157278   2.619   6.474   6.203 -0.1958 -0.1507  0.5582
11929TIP3    H257279   2.478   6.526   6.221  0.8109  3.1741 -0.5720
11930TIP3   OH257280   6.034   5.233   4.501  0.1528  0.2391 -0.4195
11930TIP3    H157281   6.125   5.237   4.533  0.2010 -0.2617 -0.4897
11930TIP3    H257282   6.000   5.322   4.516  1.9374  1.8068 -4.2501
11931TIP3   OH257283   1.945   1.507   0.269 -0.0707  0.0906 -0.1379
11931TIP3    H157284   1.950   1.508   0.174 -0.4719  0.4635 -0.1585
11931TIP3    H257285   1.918   1.595   0.293  1.5714  0.4769  0.4264
11932TIP3   OH257286   6.222   2.143   1.432 -0.4278  0.0330 -0.0150
11932TIP3    H157287   6.212   2.215   1.494 -1.1300 -0.0889  0.0286
11932TIP3    H257288   6.311   2.111   1.446 -1.2800 -1.5198  2.6238
11933TIP3   OH257289   6.164   2.860  13.534 -0.5892  0.4269  0.4422
11933TIP3    H157290   6.186   2.782  13.584 -0.4947  0.9974  1.3027
11933TIP3    H257291   6.174   2.933  13.596 -2.1800  0.9765  0.0869
11934TIP3   OH257292   4.587   5.407   4.853  0.1257  0.2108  0.3596
11934TIP3    H157293   4.573   5.501   4.866 -2.1476 -0.2379  1.6361
11934TIP3    H257294   4.509   5.377   4.807  0.6943 -1.1055  0.2153
11935TIP3   OH257295   0.858   0.970  12.048 -0.0801  0.3110  0.4622
11935TIP3    H157296   0.817   1.019  11.976 -1.4711  0.0124  1.0109
11935TIP3    H257297   0.922   1.030  12.085  0.7499  0.4228 -1.1010
11936TIP3   OH257298   3.672   1.660   4.671  0.5121 -0.6184 -0.4639
11936TIP3    H157299   3.648   1.709   4.593 -0.7575 -1.2624 -0.5104
11936TIP3    H257300   3.670   1.724   4.742  1.4813 -0.0726 -0.9218
11937TIP3   OH257301   0.588   3.331  11.848 -0.5382 -0.1959  0.4274
11937TIP3    H157302   0.577   3.289  11.763 -1.3201  1.1115 -0.1458
11937TIP3    H257303   0.527   3.404  11.847 -0.0671  0.2524  1.8538
11938TIP3   OH257304   5.921   2.866   0.453 -0.7071 -0.4002  0.1643
11938TIP3    H157305   6.013   2.844   0.439 -0.6196 -1.1347  1.6399
11938TIP3    H257306   5.878   2.848   0.370  0.5166  0.2393 -0.6351
11939TIP3   OH257307   6.076   3.397  15.999 -0.5238  0.5593  0.0131
11939TIP3    H157308   6.040   3.451  16.070 -1.6900 -0.2787  0.1037
11939TIP3    H257309   6.169   3.418  15.997 -0.7855  1.9016  0.6226
11940TIP3   OH257310   1.849   5.259  15.010  0.1972 -0.0546 -0.2168
11940TIP3    H157311   1.886   5.346  15.020 -0.9634  0.6129 -1.3647
11940TIP3    H257312   1.924   5.201  14.999  0.9365  1.1804 -2.0808
11941TIP3   OH257313   0.318   3.404   0.509 -0.3149  0.1384 -0.5097
11941TIP3    H157314   0.309   3.472   0.576  2.4992  2.0940 -1.8850
11941TIP3    H257315   0.248   3.422   0.446 -0.4032  0.9584 -0.1921
11942TIP3   OH257316   0.579   3.062   6.200  0.4678  0.0786 -0.3318
11942TIP3    H157317   0.485   3.059   6.215  0.4807  0.0752 -0.2471
11942TIP3    H257318   0.614   3.106   6.278  0.6001 -0.4820 -0.0744
11943TIP3   OH257319   0.130   1.216  17.392 -1.0358  0.2497  0.2505
11943TIP3    H157320   0.151   1.135  17.438  2.9247  0.6576 -0.4828
11943TIP3    H257321   0.099   1.276  17.461 -0.8563 -0.8880  1.3442
11944TIP3   OH257322   5.819   3.853  12.942 -0.2153  0.4708 -0.7795
11944TIP3    H157323   5.770   3.910  13.000 -1.3367 -0.6762 -0.5453
11944TIP3    H257324   5.898   3.831  12.991 -0.1364  1.2139 -0.5696
11945TIP3   OH257325   4.616   3.900  15.597 -0.2928 -0.7256 -0.0410
11945TIP3    H157326   4.670   3.975  15.622 -0.5056  0.0885 -1.8922
11945TIP3    H257327   4.635   3.886  15.505 -3.5889 -0.0723 -0.9433
11946TIP3   OH257328   1.285   5.988  13.261  0.7536  0.3401 -0.3094
11946TIP3    H157329   1.273   5.894  13.267 -2.1154  0.7106  2.2284
11946TIP3    H257330   1.222   6.016  13.194  0.1478  0.6117  0.3606
11947TIP3   OH257331   1.504   5.682  11.627  0.4599 -0.2181  0.4125
11947TIP3    H157332   1.588   5.637  11.635  0.1290 -1.0235 -0.3869
11947TIP3    H257333   1.526   5.775  11.628  1.3354 -0.4168  0.3947
11948TIP3   OH257334   3.701   2.706   4.823 -0.0475 -0.2135 -0.2310
11948TIP3    H157335   3.652   2.782   4.854  0.9117  1.0937 -1.7606
11948TIP3    H257336   3.638   2.657   4.769 -0.2693  0.2933 -0.4385
11949TIP3   OH257337   0.717   1.492  13.858  0.0631  0.7484 -0.2163
11949TIP3    H157338   0.639   1.446  13.889 -1.8515  4.1931  0.7130
11949TIP3    H257339   0.742   1.548  13.932  1.8401  1.5950 -1.3826
11950TIP3   OH257340   3.006   1.501  11.083 -0.0432 -0.2270 -0.4527
11950TIP3    H157341   2.932   1.525  11.028  0.5806  1.4435 -0.6237
11950TIP3    H257342   3.066   1.453  11.025 -0.1806 -0.0129 -0.7713
11951TIP3   OH257343   0.017   5.486   1.915  0.1417  0.3163  0.3853
11951TIP3    H157344  -0.066   5.524   1.885  0.1921  0.5941  0.5917
11951TIP3    H257345   0.075   5.489   1.839 -0.5441 -1.4172 -0.2663
11952TIP3   OH257346   3.076   0.278   0.376  0.0946 -0.7721 -0.1732
11952TIP3    H157347   2.998   0.332   0.388  1.5441  1.2730  0.6227
11952TIP3    H257348   3.146   0.328   0.418  2.3643 -1.2679 -3.0674
11953TIP3   OH257349   0.281   2.606   4.254  0.7244  0.0043  0.3807
11953TIP3    H157350   0.333   2.615   4.174 -1.9577  2.8507 -1.2583
11953TIP3    H257351   0.333   2.648   4.322  0.8187  2.5500 -1.1527
11954TIP3   OH257352   6.237   2.639   2.753 -0.1122  0.3845 -0.0132
11954TIP3    H157353   6.272   2.598   2.674  1.8865 -1.7341  1.8280
11954TIP3    H257354   6.142   2.626   2.746  0.1233 -0.8159 -1.5099
11955TIP3   OH257355   5.106   1.760  13.321 -0.2719  0.4916  0.6637
11955TIP3    H157356   5.186   1.797  13.282  0.5254 -1.4130  0.3781
11955TIP3    H257357   5.038   1.774  13.255  0.0142  1.3466  0.5370
11956TIP3   OH257358   2.738   0.790  17.135  0.1401  0.5712  0.6477
11956TIP3    H157359   2.824   0.802  17.177 -0.6080 -0.0141  2.4480
11956TIP3    H257360   2.723   0.695  17.138  0.3514  0.3897 -1.6945
11957TIP3   OH257361   6.115   1.542  16.720 -0.3563  0.0878  0.5070
11957TIP3    H157362   6.109   1.452  16.688  0.6209  0.2315 -0.1410
11957TIP3    H257363   6.074   1.594  16.651  0.2985  0.2493  0.2272
11958TIP3   OH257364   0.251   3.143   3.888  0.1371  0.8525 -0.0373
11958TIP3    H157365   0.231   3.053   3.864 -0.0501  0.9237 -0.1477
11958TIP3    H257366   0.194   3.162   3.962  0.0983  0.9179 -0.0842
11959TIP3   OH257367   0.283   5.675  16.635 -0.6357 -0.2576  0.1753
11959TIP3    H157368   0.359   5.724  16.603 -0.6253 -0.7461 -0.5611
11959TIP3    H257369   0.234   5.739  16.688  0.2994  0.0487  0.6971
11960TIP3   OH257370   2.242   3.951  11.461  0.4020 -0.0655 -0.0915
11960TIP3    H157371   2.264   3.925  11.371 -1.7899  0.9585 -0.9965
11960TIP3    H257372   2.205   4.039  11.452  2.6985  1.2817  2.2261
11961TIP3   OH257373   6.736   1.437  14.491 -0.2014  0.3779  0.4557
11961TIP3    H157374   6.805   1.482  14.541  0.2607  1.6529 -1.2314
11961TIP3    H257375   6.721   1.494  14.415 -2.6611 -0.2100  0.4219
11962TIP3   OH257376   2.506   4.177  13.338  0.0246  0.2788 -0.2520
11962TIP3    H157377   2.587   4.128  13.329  0.8817  1.1887  1.8334
11962TIP3    H257378   2.438   4.110  13.349  0.2942 -0.5086 -2.8027
11963TIP3   OH257379   6.755   2.332  15.050  0.0161 -0.1482 -0.2072
11963TIP3    H157380   6.824   2.321  15.116 -1.4734  0.4560  1.5634
11963TIP3    H257381   6.691   2.264  15.072  0.2297 -1.0111 -2.1167
11964TIP3   OH257382   4.172   1.816   0.629 -0.1984  0.2382  0.3976
11964TIP3    H157383   4.208   1.839   0.714  2.2327  0.1579 -0.5404
11964TIP3    H257384   4.213   1.733   0.606 -0.5305  0.4324 -1.0146
11965TIP3   OH257385   3.969   4.554   4.806  0.7283 -0.1644 -0.2433
11965TIP3    H157386   4.034   4.488   4.781  0.5081 -0.1113 -0.9604
11965TIP3    H257387   3.943   4.529   4.895  1.9753  0.0081  0.1939
11966TIP3   OH257388   5.519   4.403  15.018 -0.2719  0.2813 -0.0053
11966TIP3    H157389   5.546   4.491  14.993 -2.1626  1.5323  2.0191
11966TIP3    H257390   5.591   4.369  15.071  0.7286  0.3013 -1.2907
11967TIP3   OH257391   0.637   4.169  11.782  0.2406  0.1616 -0.3478
11967TIP3    H157392   0.545   4.183  11.760  0.3381 -0.1128 -0.9665
11967TIP3    H257393   0.658   4.239  11.844  0.3047  1.8683 -2.1870
11968TIP3   OH257394   5.372   5.301   4.211  0.9754  0.3437  0.1128
11968TIP3    H157395   5.336   5.388   4.196  0.5740  0.4371  1.4306
11968TIP3    H257396   5.338   5.276   4.298  0.2114 -1.5605 -0.6636
11969TIP3   OH257397   5.085   6.098  13.707 -0.0560  0.4219 -0.0477
11969TIP3    H157398   5.147   6.123  13.776 -0.0645  0.0826  0.0848
11969TIP3    H257399   5.063   6.007  13.726 -0.8874  0.6523  0.1171
11970TIP3   OH257400   5.398   3.686  11.041  0.0063 -0.0132 -0.2782
11970TIP3    H157401   5.402   3.600  10.999  0.9398  0.0809 -0.3905
11970TIP3    H257402   5.311   3.719  11.019 -0.6937 -1.2782  0.4670
11971TIP3   OH257403   0.051   3.428   3.927  0.3179  0.0090  0.3893
11971TIP3    H157404   0.022   3.498   3.985  0.0015  1.0607 -0.9914
11971TIP3    H257405   0.064   3.353   3.985  0.7221  1.2067  1.9178
11972TIP3   OH257406   1.872   2.975  11.543 -0.0616  0.2634 -0.1738
11972TIP3    H157407   1.874   2.924  11.462 -0.2577  0.7000 -0.4521
11972TIP3    H257408   1.802   3.039  11.530  0.0914  0.5149  0.2320
11973TIP3   OH257409   3.069   2.838  11.213 -0.1374  0.3577 -0.4763
11973TIP3    H157410   2.984   2.820  11.173  0.3964 -1.4940 -0.8915
11973TIP3    H257411   3.056   2.822  11.306 -0.4877  1.0730 -0.4020
11974TIP3   OH257412   6.558   4.645  15.135  0.1756 -0.0893 -0.0670
11974TIP3    H157413   6.633   4.657  15.076 -1.3888  1.2342 -1.9282
11974TIP3    H257414   6.529   4.555  15.120  1.0617 -0.4431  0.2887
11975TIP3   OH257415   6.345   2.407   5.528  0.1251 -0.3903  0.3310
11975TIP3    H157416   6.409   2.476   5.548 -3.1558  2.9570  0.3557
11975TIP3    H257417   6.319   2.425   5.438  0.7820 -3.1476 -0.4794
11976TIP3   OH257418   1.438   1.618   2.757  0.7356  0.4408  0.4055
11976TIP3    H157419   1.445   1.709   2.786 -0.0413  0.2889  1.0980
11976TIP3    H257420   1.422   1.568   2.837  0.5476 -0.2307 -0.0425
11977TIP3   OH257421   0.791   6.473  17.380 -0.0719  0.1712 -0.6309
11977TIP3    H157422   0.769   6.471  17.286  1.1371  0.5866 -0.9373
11977TIP3    H257423   0.738   6.402  17.418 -1.2589  0.5857 -1.4621
11978TIP3   OH257424   5.741   3.039  13.291 -0.3483 -0.3728  0.1242
11978TIP3    H157425   5.835   3.023  13.281 -0.6753 -2.0073 -0.6198
11978TIP3    H257426   5.726   3.042  13.385  0.6352  1.3051  0.2736
11979TIP3   OH257427   4.741   5.729  11.297 -0.3316 -0.2115 -0.0532
11979TIP3    H157428   4.758   5.781  11.376  0.0663 -1.3856  0.6802
11979TIP3    H257429   4.828   5.698  11.270 -0.3654  0.8686 -1.4731
11980TIP3   OH257430   6.251   2.363   0.689 -0.3441  0.1588 -0.6024
11980TIP3    H157431   6.159   2.359   0.665 -1.4075  0.7570  2.7975
11980TIP3    H257432   6.255   2.430   0.757  2.0244 -1.8830  1.4765
11981TIP3   OH257433   3.361   5.294   4.036  0.3412 -0.1452  0.1717
11981TIP3    H157434   3.418   5.346   3.979  1.0896  0.1435  1.1715
11981TIP3    H257435   3.322   5.357   4.096  0.6022 -0.6177  0.8520
11982TIP3   OH257436   3.398   5.369  15.729 -0.8092 -0.1924 -0.5307
11982TIP3    H157437   3.374   5.430  15.659 -1.7495 -0.3526 -0.3709
11982TIP3    H257438   3.338   5.295  15.718 -0.5604 -0.4943  0.0654
11983TIP3   OH257439   6.061   2.337  14.045  0.2211  0.2488  0.0463
11983TIP3    H157440   6.146   2.299  14.068 -0.0463 -1.3751 -1.4677
11983TIP3    H257441   6.002   2.304  14.112  0.0710 -1.8336 -1.0217
11984TIP3   OH257442   5.619   0.409   1.197  0.0026 -0.2434  0.7488
11984TIP3    H157443   5.688   0.343   1.205  1.1335  1.0941  2.9410
11984TIP3    H257444   5.656   0.476   1.141 -0.4832 -0.6365 -0.0591
11985TIP3   OH257445   3.521   4.456   1.602  0.0205  0.2411 -0.6013
11985TIP3    H157446   3.519   4.473   1.508 -0.0804  0.5406 -0.5455
11985TIP3    H257447   3.543   4.540   1.641 -0.5238  0.2569 -0.3179
11986TIP3   OH257448   3.064   1.682  16.560  0.0334 -0.1239 -0.6780
11986TIP3    H157449   3.060   1.766  16.515  1.0982  0.0832 -0.3982
11986TIP3    H257450   3.144   1.641  16.528  2.5191  1.2832  3.1042
11987TIP3   OH257451   2.287   4.461  13.536  0.0921 -0.0213 -0.0969
11987TIP3    H157452   2.261   4.371  13.514 -2.3316  0.9953 -1.8607
11987TIP3    H257453   2.327   4.453  13.623 -2.9383 -2.4230  1.2952
11988TIP3   OH257454   2.998   0.573   3.573  0.6287  0.2373 -0.2641
11988TIP3    H157455   3.034   0.511   3.637 -2.8030 -0.2654  1.4315
11988TIP3    H257456   2.989   0.655   3.621  1.5602  0.9990 -1.3348
11989TIP3   OH257457   6.739   1.348  12.932  0.4429 -0.0387 -0.2632
11989TIP3    H157458   6.722   1.259  12.899 -0.5330 -0.3436  0.9456
11989TIP3    H257459   6.833   1.351  12.945  0.6111 -0.5523 -1.2525
11990TIP3   OH257460   0.858   3.882  16.698  0.6582 -0.5851 -0.1643
11990TIP3    H157461   0.849   3.797  16.653  1.2408  0.1433 -1.7484
11990TIP3    H257462   0.951   3.886  16.722  0.3712 -0.9224  1.0633
11991TIP3   OH257463   5.245   5.068   2.746 -0.3342 -0.1504  0.2985
11991TIP3    H157464   5.240   4.976   2.773  2.0876 -0.2274  0.6322
11991TIP3    H257465   5.179   5.112   2.800  0.1534 -1.3128  1.9351
11992TIP3   OH257466   5.727   2.853   4.422  0.1039 -0.5826 -0.1581
11992TIP3    H157467   5.757   2.823   4.508  1.7599 -0.8966 -0.7999
11992TIP3    H257468   5.742   2.948   4.424  0.0556 -0.5768 -0.0601
11993TIP3   OH257469   3.977   1.012  16.585 -0.1519  0.8356 -0.2387
11993TIP3    H157470   4.046   0.967  16.635 -0.6958 -0.2302 -0.4250
11993TIP3    H257471   3.967   1.096  16.631  1.6264  1.2612 -0.5240
11994TIP3   OH257472   3.485   2.505   5.259  0.2423  0.5655 -0.0814
11994TIP3    H157473   3.527   2.438   5.312 -1.4753  0.0610  0.7257
11994TIP3    H257474   3.557   2.557   5.223  1.6044 -1.4599 -0.4223
11995TIP3   OH257475   3.606   1.658  15.714 -0.2973  0.4422  0.5201
11995TIP3    H157476   3.588   1.649  15.808 -2.9824  1.3937  0.1785
11995TIP3    H257477   3.652   1.577  15.691 -0.9363 -0.5059  2.3377
11996TIP3   OH257478   6.074   0.890  16.431 -0.1209 -0.4460  0.2597
11996TIP3    H157479   6.057   0.915  16.340  2.8004  0.4163 -0.1489
11996TIP3    H257480   6.035   0.803  16.440 -3.0320  0.6455 -0.8763
11997TIP3   OH257481   3.236   4.998  11.908 -0.1612  0.3090  0.0329
11997TIP3    H157482   3.158   5.031  11.864  0.1828  1.6641  0.3983
11997TIP3    H257483   3.300   4.987  11.837 -0.0208  1.2292  0.0096
11998TIP3   OH257484   3.705   1.398   4.554 -0.2992  0.8040 -0.6571
11998TIP3    H157485   3.626   1.348   4.575  1.1436 -1.3026  0.0775
11998TIP3    H257486   3.706   1.469   4.618 -1.3105  0.5381 -0.3288
11999TIP3   OH257487   3.902   3.405  15.146  0.2398 -0.2577  0.0335
11999TIP3    H157488   3.844   3.339  15.182 -0.8217  0.7388  0.2022
11999TIP3    H257489   3.973   3.412  15.209  1.0506 -2.0961 -0.5902
12000TIP3   OH257490   3.628   5.819  12.280  0.9094  0.0659 -0.2132
12000TIP3    H157491   3.606   5.869  12.358  0.5773  1.9160 -1.4376
12000TIP3    H257492   3.677   5.880  12.225  3.1188 -1.8578 -0.5416
12001TIP3   OH257493   0.536   4.350   5.824 -0.1533  0.5561  0.1341
12001TIP3    H157494   0.585   4.283   5.872  0.5130  0.4781 -0.6387
12001TIP3    H257495   0.444   4.329   5.841  0.0619  0.3221  1.0813
12002TIP3   OH257496   5.595   6.505   5.441 -0.5223  0.1413 -0.3916
12002TIP3    H157497   5.519   6.562   5.429 -0.5711 -0.1849 -1.7596
12002TIP3    H257498   5.661   6.540   5.382  0.5449  0.6316  1.0451
12003TIP3   OH257499   6.081   4.441   6.765  0.2000 -0.0432 -0.2557
12003TIP3    H157500   5.987   4.459   6.766  0.3179  0.9607 -2.4501
12003TIP3    H257501   6.088   4.347   6.748 -0.4032 -0.0497 -0.4765
12004TIP3   OH257502   6.099   2.876  16.810  0.8767  0.0700 -0.3252
12004TIP3    H157503   6.170   2.935  16.785  1.2307 -0.7302 -1.2903
12004TIP3    H257504   6.093   2.813  16.737 -0.2605 -0.3805  0.1292
12005TIP3   OH257505   3.294   3.052  14.976  0.5444  0.0185 -0.0031
12005TIP3    H157506   3.277   3.105  14.898 -1.3414 -0.2557  0.1845
12005TIP3    H257507   3.281   2.962  14.947 -0.0212 -0.0946  0.5758
12006TIP3   OH257508   1.039   6.565   5.768 -0.1943 -0.5193 -0.2905
12006TIP3    H157509   0.975   6.525   5.708 -0.6510 -1.7145  0.9367
12006TIP3    H257510   1.115   6.507   5.764  0.9775  1.0433 -1.9431
12007TIP3   OH257511   5.569   3.821   4.007  0.2545 -0.0347 -0.3047
12007TIP3    H157512   5.487   3.773   3.996 -0.6249  1.5947 -1.1567
12007TIP3    H257513   5.552   3.883   4.077  0.1942  1.4063 -1.5428
12008TIP3   OH257514   6.421   1.800   2.402 -0.3488  0.1576  0.6733
12008TIP3    H157515   6.471   1.729   2.362  3.2512  3.7929 -2.0770
12008TIP3    H257516   6.456   1.807   2.491 -0.4645 -1.1595  0.8425
12009TIP3   OH257517   4.480   0.155  12.108  0.4675  0.1848 -0.5191
12009TIP3    H157518   4.486   0.062  12.087 -0.7544  0.3141 -1.6040
12009TIP3    H257519   4.466   0.158  12.203  2.4364 -0.6112 -0.1513
12010TIP3   OH257520   3.275   1.603   4.376  0.4982 -0.3573 -0.0404
12010TIP3    H157521   3.212   1.674   4.393  1.1234 -0.1829  1.7627
12010TIP3    H257522   3.220   1.529   4.351 -0.2003  0.5813 -1.4756
12011TIP3   OH257523   0.883   0.379   5.343 -0.0872 -0.2477  0.1536
12011TIP3    H157524   0.811   0.345   5.396 -0.1641 -2.3180 -1.1674
12011TIP3    H257525   0.947   0.308   5.340  0.7736  0.5336 -0.9269
12012TIP3   OH257526   4.246   0.010  14.339 -0.2053  0.5809 -0.0420
12012TIP3    H157527   4.223   0.062  14.415 -1.0449 -0.2622  0.3092
12012TIP3    H257528   4.166   0.008  14.286 -1.0087 -2.2157  1.0746
12013TIP3   OH257529   0.870   2.110  12.238  0.2150 -0.0817  0.1234
12013TIP3    H157530   0.943   2.156  12.195  1.5376 -1.3865  0.8562
12013TIP3    H257531   0.843   2.044  12.174  0.4463 -0.3371  0.2877
12014TIP3   OH257532   3.532   5.427   2.575 -0.5042 -0.4958  0.1069
12014TIP3    H157533   3.494   5.347   2.539  1.8703 -1.7953  0.3083
12014TIP3    H257534   3.595   5.455   2.509 -2.8871  2.6772 -1.1017
12015TIP3   OH257535   5.622   3.564   4.210  0.6029  0.2722 -0.7902
12015TIP3    H157536   5.671   3.603   4.137 -0.8160 -0.0862 -1.9945
12015TIP3    H257537   5.549   3.625   4.224 -0.0234 -0.4762 -0.7531
12016TIP3   OH257538   1.424   1.740  16.888  0.3817 -0.6249  0.1548
12016TIP3    H157539   1.384   1.800  16.951 -0.6213 -1.9566  0.8311
12016TIP3    H257540   1.517   1.764  16.888  0.4194 -0.5501  2.1507
12017TIP3   OH257541   1.399   1.313   6.719  0.8057 -0.4800  0.2654
12017TIP3    H157542   1.408   1.342   6.810  0.5219 -4.0026  1.5733
12017TIP3    H257543   1.451   1.376   6.668  2.9094  0.2847  3.1097
12018TIP3   OH257544   3.784   1.124   0.648  0.2197 -0.2770  0.0637
12018TIP3    H157545   3.693   1.129   0.620 -0.4249 -0.4215  1.9841
12018TIP3    H257546   3.831   1.090   0.572 -0.5107  3.8407 -2.5638
12019TIP3   OH257547   6.377   2.625   6.395 -0.4959  0.0608 -0.8306
12019TIP3    H157548   6.432   2.642   6.472  0.4019 -0.6688 -1.2857
12019TIP3    H257549   6.401   2.537   6.368 -1.6395 -0.1239 -1.2757
12020TIP3   OH257550   4.551   0.363  14.489 -0.1506  0.0084  0.2712
12020TIP3    H157551   4.480   0.413  14.529 -1.1430 -0.1734 -1.1855
12020TIP3    H257552   4.541   0.275  14.524 -1.8615 -0.4913 -1.3061
12021TIP3   OH257553   1.887   0.232   3.812  0.4620 -0.1350 -0.3523
12021TIP3    H157554   1.828   0.162   3.840  0.3818  1.2153  3.3794
12021TIP3    H257555   1.829   0.308   3.800  1.1347  0.7615  1.6667
12022TIP3   OH257556   4.545   2.325   3.525  0.0140  0.1165  0.0149
12022TIP3    H157557   4.552   2.420   3.533 -2.3317  0.4050 -0.6926
12022TIP3    H257558   4.590   2.304   3.443  2.5737  0.2447  1.2838
12023TIP3   OH257559   5.918   2.160   2.140  0.1035  0.2980  0.4848
12023TIP3    H157560   6.008   2.169   2.108  0.5579 -2.5860  0.7164
12023TIP3    H257561   5.870   2.122   2.066 -0.4937  0.1613  0.9330
12024TIP3   OH257562   0.838   6.433  13.551  0.3126  0.2163 -0.0519
12024TIP3    H157563   0.919   6.461  13.508  0.9270 -0.3803  0.7007
12024TIP3    H257564   0.865   6.403  13.637 -0.6544 -0.4083  0.0491
12025TIP3   OH257565   4.957   2.117  16.025 -0.7580 -0.1485 -0.7876
12025TIP3    H157566   4.926   2.199  16.065 -2.4696 -1.0355 -0.1968
12025TIP3    H257567   4.878   2.064  16.016  0.2465 -1.5470 -1.6454
12026TIP3   OH257568   1.250   1.942   0.229  0.3375  0.1012 -0.3475
12026TIP3    H157569   1.323   1.900   0.274 -0.4115  0.3290  1.1393
12026TIP3    H257570   1.278   2.032   0.215  0.4749  0.0939 -0.1131
12027TIP3   OH257571   1.468   6.725   5.749 -0.1396  0.0845  0.1955
12027TIP3    H157572   1.469   6.815   5.717  0.5877  0.3373  0.8627
12027TIP3    H257573   1.460   6.734   5.844  0.6950 -0.5104  0.3412
12028TIP3   OH257574   1.742   5.743   0.437 -0.1325 -0.4810  0.7995
12028TIP3    H157575   1.781   5.722   0.352  1.3373 -0.8989  1.5372
12028TIP3    H257576   1.721   5.837   0.431  0.5712 -0.3530  0.2016
12029TIP3   OH257577   5.800   3.133  12.950 -0.4330 -0.2822  0.2172
12029TIP3    H157578   5.780   3.206  13.009 -0.7308 -0.8820  0.8655
12029TIP3    H257579   5.778   3.166  12.863  0.6950  0.8729  0.3295
12030TIP3   OH257580   1.662   2.887  15.627 -0.2629 -0.4429 -0.2269
12030TIP3    H157581   1.634   2.892  15.535  1.2994  0.1932 -0.6978
12030TIP3    H257582   1.631   2.969  15.666 -0.1922 -0.3293 -0.4061
12031TIP3   OH257583   2.158   0.734  17.207 -0.3211 -0.6151  0.0196
12031TIP3    H157584   2.123   0.743  17.295 -1.7033 -0.0063 -0.5760
12031TIP3    H257585   2.082   0.713  17.152  0.3240  0.1126 -1.2016
12032TIP3   OH257586   4.635   1.760   4.818  0.2668 -0.1113 -0.0852
12032TIP3    H157587   4.694   1.819   4.864 -1.5255  0.9619  0.9525
12032TIP3    H257588   4.603   1.810   4.743  1.4837 -1.0946 -1.3313
12033TIP3   OH257589   6.612   5.471   4.410 -0.4595  0.0422  0.6545
12033TIP3    H157590   6.682   5.436   4.355 -1.1040 -0.5236  0.1925
12033TIP3    H257591   6.553   5.398   4.426 -0.4814  0.2782  1.8168
12034TIP3   OH257592   1.599   2.096  17.210  0.7704  0.0690 -0.1839
12034TIP3    H157593   1.562   2.017  17.170  0.6742  0.4902 -0.9540
12034TIP3    H257594   1.585   2.085  17.304  1.9246 -1.4209 -0.1678
12035TIP3   OH257595   4.629   6.409  13.766  0.2430  0.5914  0.3546
12035TIP3    H157596   4.667   6.496  13.776 -0.1296  0.9391 -1.0661
12035TIP3    H257597   4.663   6.359  13.840  0.4353  1.9474  1.1991
12036TIP3   OH257598   5.887   1.158   0.855 -0.0072 -0.2681  0.0061
12036TIP3    H157599   5.818   1.224   0.862  1.3260  1.3617 -1.2220
12036TIP3    H257600   5.892   1.138   0.761  0.5871 -1.0171  0.1861
12037TIP3   OH257601   5.995   0.716   0.964  0.3338  0.1222 -0.0912
12037TIP3    H157602   6.024   0.684   0.878  0.5547 -0.1974  0.0978
12037TIP3    H257603   6.002   0.639   1.021  0.6184  0.4475  0.3138
12038TIP3   OH257604   3.385   5.620  16.667  0.2384  0.5061 -0.2007
12038TIP3    H157605   3.371   5.526  16.677 -0.4385  0.5209 -0.9254
12038TIP3    H257606   3.332   5.660  16.735 -1.3600  0.4526 -1.3662
12039TIP3   OH257607   2.395   5.641   0.692  0.5359  0.0669  0.3277
12039TIP3    H157608   2.364   5.552   0.674 -0.3811  0.8597 -2.6877
12039TIP3    H257609   2.346   5.668   0.770  2.4727 -2.7314  2.7276
12040TIP3   OH257610   4.290   1.106  15.872  0.3934  0.5219 -0.6733
12040TIP3    H157611   4.344   1.029  15.885  0.2898  0.6027  0.2939
12040TIP3    H257612   4.349   1.170  15.831  0.7359  0.2617 -0.5915
12041TIP3   OH257613   2.622   3.976  14.250  0.2059 -0.1404 -0.5109
12041TIP3    H157614   2.564   4.020  14.188  0.6556  1.4809  0.1805
12041TIP3    H257615   2.582   3.890  14.263 -0.8751  0.1558 -1.6555
12042TIP3   OH257616   4.118   5.877  15.463 -0.6555  0.1677  0.1242
12042TIP3    H157617   4.074   5.962  15.464  1.5551  1.3715  0.9277
12042TIP3    H257618   4.200   5.893  15.416 -0.4255 -1.6640 -0.1824
12043TIP3   OH257619   4.039   5.422   5.432  0.3907  0.4716 -0.3658
12043TIP3    H157620   4.101   5.377   5.489 -0.3625  0.0212  0.1092
12043TIP3    H257621   4.006   5.495   5.485  0.5164  0.7228 -0.6245
12044TIP3   OH257622   3.175   6.110  17.340  0.2244 -0.0534  0.3989
12044TIP3    H157623   3.107   6.162  17.383 -1.6636  0.4521 -2.8862
12044TIP3    H257624   3.252   6.120  17.396 -0.9280  3.6904  1.6009
12045TIP3   OH257625   4.551   6.567  17.165 -0.2657 -0.0506  0.3965
12045TIP3    H157626   4.507   6.651  17.171 -0.1781  0.3092 -2.4572
12045TIP3    H257627   4.488   6.504  17.201 -1.6289  0.9011 -0.2309
12046TIP3   OH257628   3.364   3.626   1.602  0.3861 -0.5729  0.6556
12046TIP3    H157629   3.374   3.542   1.646 -1.2511 -0.5162  1.2027
12046TIP3    H257630   3.358   3.690   1.673 -2.8294 -0.5430  0.4713
12047TIP3   OH257631   1.362   0.865   0.004 -0.3402 -0.6677  0.1654
12047TIP3    H157632   1.421   0.836  -0.066 -1.1443 -0.9663 -0.4017
12047TIP3    H257633   1.292   0.911  -0.041  0.3885  1.3539  0.9848
12048TIP3   OH257634   2.542   2.404   2.612 -0.1692 -0.4933  0.1769
12048TIP3    H157635   2.549   2.361   2.697 -0.6057  1.4860  1.2797
12048TIP3    H257636   2.624   2.383   2.567  1.1138  0.2904  2.0334
12049TIP3   OH257637   6.236   4.200  15.526  0.6620  0.0615 -0.4065
12049TIP3    H157638   6.316   4.236  15.487  0.2861  0.8825 -0.4403
12049TIP3    H257639   6.189   4.276  15.560  0.6594 -0.5537  1.0847
12050TIP3   OH257640   1.796   1.342   5.948  0.0989  0.1391 -0.5449
12050TIP3    H157641   1.859   1.370   6.014  1.8142 -2.8544 -0.7510
12050TIP3    H257642   1.747   1.270   5.989 -1.0578  0.3540 -1.4681
12051TIP3   OH257643   4.601   1.332   5.383 -0.2992  0.3655 -0.3132
12051TIP3    H157644   4.580   1.424   5.370  0.3381  0.3269 -1.8391
12051TIP3    H257645   4.660   1.310   5.311 -0.1353 -1.1384  0.2370
12052TIP3   OH257646   0.697   2.934   1.517  0.3628  0.7133 -0.1100
12052TIP3    H157647   0.789   2.953   1.532  0.5251  1.0142 -1.3645
12052TIP3    H257648   0.694   2.894   1.431 -0.5280 -0.6896  0.5318
12053TIP3   OH257649   1.654   0.090   3.546  0.3714  0.4597 -0.3221
12053TIP3    H157650   1.685   0.033   3.616  1.3743 -1.6553 -2.3524
12053TIP3    H257651   1.559   0.094   3.558  0.7023  2.1739  2.5098
12054TIP3   OH257652   3.273   0.867  17.364  0.4402  0.2554  0.3900
12054TIP3    H157653   3.226   0.949  17.371 -0.4122 -0.0062 -1.7161
12054TIP3    H257654   3.364   0.893  17.349  0.4416  0.7763  1.2232
12055TIP3   OH257655   5.345   4.614   1.364 -0.2929  0.1327  0.1128
12055TIP3    H157656   5.290   4.629   1.287 -0.7617 -1.3789  0.1188
12055TIP3    H257657   5.353   4.701   1.405 -1.9073  0.5681 -0.3974
12056TIP3   OH257658   5.468   0.247   0.603  0.6703  0.1388  0.3311
12056TIP3    H157659   5.441   0.219   0.515 -2.3422  2.4858  0.3387
12056TIP3    H257660   5.421   0.189   0.662 -0.3253  0.9240  0.3389
12057TIP3   OH257661   2.796   5.155  12.673 -0.1434 -0.0550 -0.0588
12057TIP3    H157662   2.803   5.106  12.591  1.0369  1.3260 -0.8174
12057TIP3    H257663   2.879   5.140  12.718 -0.3045  0.1860  0.3293
12058TIP3   OH257664   4.155   6.233  13.919  0.2380  0.1469  0.8623
12058TIP3    H157665   4.156   6.154  13.864  0.1457 -0.1000  1.2123
12058TIP3    H257666   4.062   6.251  13.932  0.2230  1.1844 -0.4427
12059TIP3   OH257667   0.769   5.075   5.551  0.2141  0.1809  0.0689
12059TIP3    H157668   0.827   5.047   5.623  1.9558  1.8203 -0.6025
12059TIP3    H257669   0.826   5.076   5.474 -1.7245 -1.9796 -1.5180
12060TIP3   OH257670   4.379   4.498   3.328  0.8284 -0.6021  0.1226
12060TIP3    H157671   4.410   4.569   3.272 -1.1211  0.1435 -0.1004
12060TIP3    H257672   4.303   4.534   3.373  0.5300 -2.1693  0.9613
12061TIP3   OH257673   1.290   2.003  14.121 -0.3802  0.0785  0.0311
12061TIP3    H157674   1.354   2.051  14.069 -0.8958 -0.0998 -0.7905
12061TIP3    H257675   1.205   2.037  14.091 -0.7365 -1.0282 -0.2515
12062TIP3   OH257676   4.929   5.883  12.829  0.0156 -0.5002  0.3049
12062TIP3    H157677   4.981   5.832  12.766 -0.7652 -0.5186 -0.3350
12062TIP3    H257678   4.838   5.865  12.806 -0.3632 -2.1728  2.7550
12063TIP3   OH257679   6.220   4.956   5.151  0.0864 -0.6369 -0.2186
12063TIP3    H157680   6.141   4.909   5.177  0.9124 -2.3722 -0.7311
12063TIP3    H257681   6.288   4.924   5.211  0.1630  1.9319  1.2296
12064TIP3   OH257682   3.089   4.838   1.787 -0.5585 -0.1735 -0.2960
12064TIP3    H157683   3.074   4.872   1.699  0.5376  0.6844 -0.1674
12064TIP3    H257684   3.174   4.794   1.782  1.0805  2.5898  1.0288
12065TIP3   OH257685   1.903   5.930   5.195 -0.1769  0.1161 -0.1311
12065TIP3    H157686   1.950   5.886   5.124 -0.6626 -1.3845  0.4318
12065TIP3    H257687   1.967   5.991   5.232  1.1193 -1.3711  0.1727
12066TIP3   OH257688   3.069   5.103  16.219 -0.4079 -0.5251  0.1114
12066TIP3    H157689   2.999   5.037  16.217  0.0175 -0.9684 -0.5442
12066TIP3    H257690   3.125   5.080  16.145  0.5189 -0.2619  0.7206
12067TIP3   OH257691   6.731   0.561   4.493  0.5587 -0.4129 -0.2057
12067TIP3    H157692   6.730   0.475   4.451  1.3068 -1.3611  1.5942
12067TIP3    H257693   6.795   0.553   4.563 -0.3273  1.1933  0.8654
12068TIP3   OH257694   6.255   0.610   5.778  0.1190 -0.4532 -0.0097
12068TIP3    H157695   6.332   0.632   5.830  0.6286 -1.0023 -0.5233
12068TIP3    H257696   6.278   0.634   5.688 -1.2679  1.8246  0.1552
12069TIP3   OH257697   3.911   1.504  16.801 -0.7237 -0.0783  0.3861
12069TIP3    H157698   3.853   1.517  16.876 -2.6475  0.8623 -1.1648
12069TIP3    H257699   3.945   1.592  16.782 -0.4661 -0.2629 -0.0122
12070TIP3   OH257700   0.363   3.123  15.092 -0.2029 -0.1274  0.8752
12070TIP3    H157701   0.321   3.068  15.159 -1.0055  0.2068  0.6628
12070TIP3    H257702   0.311   3.107  15.013 -1.0602  1.6303  1.0228
12071TIP3   OH257703   4.238   1.520  11.464 -0.4379 -0.7114  0.3912
12071TIP3    H157704   4.333   1.509  11.466 -0.3864 -0.6342 -0.9002
12071TIP3    H257705   4.204   1.440  11.504  0.1790  0.3463  3.2854
12072TIP3   OH257706   6.776   3.219   4.490  0.3965 -0.3162  0.6025
12072TIP3    H157707   6.869   3.236   4.473  0.6342 -0.4450  1.7195
12072TIP3    H257708   6.751   3.285   4.554 -0.6877  0.6627 -0.7487
12073TIP3   OH257709   4.830   6.792  11.226  0.3046 -0.2074 -0.3151
12073TIP3    H157710   4.872   6.877  11.235 -0.2087  0.0329 -0.1661
12073TIP3    H257711   4.887   6.744  11.165  0.5967  0.2379 -0.4010
12074TIP3   OH257712   1.582   0.580   0.429  0.6478  0.1694 -0.4845
12074TIP3    H157713   1.522   0.506   0.442 -0.1836  1.0077  0.6233
12074TIP3    H257714   1.562   0.612   0.341  1.0855 -0.9619 -1.0150
12075TIP3   OH257715   0.187   1.705   3.543 -0.3629  0.0629 -0.4141
12075TIP3    H157716   0.235   1.731   3.621  0.3657 -0.8460 -0.5414
12075TIP3    H257717   0.229   1.754   3.471  1.1965 -1.5979 -0.6953
12076TIP3   OH257718   6.251   3.357   3.034  0.1971 -0.7171 -0.1626
12076TIP3    H157719   6.238   3.432   2.976 -0.4533 -0.6692  0.0480
12076TIP3    H257720   6.264   3.283   2.974  0.7642 -0.4551 -0.3701
12077TIP3   OH257721   5.877   5.974  12.725  0.1517 -0.0621 -0.1765
12077TIP3    H157722   5.966   6.009  12.719 -0.1001  1.1298  1.8256
12077TIP3    H257723   5.888   5.889  12.768  0.2358  0.9444  1.9124
12078TIP3   OH257724   5.493   6.108   2.217 -0.3257  0.0394 -0.2307
12078TIP3    H157725   5.484   6.138   2.307 -3.2621 -0.0999 -0.3679
12078TIP3    H257726   5.539   6.179   2.172 -1.6139  1.5688  0.7502
12079TIP3   OH257727   5.164   5.942  14.537 -0.0643  0.4350  0.0519
12079TIP3    H157728   5.218   6.009  14.494 -1.7743  1.2313 -0.9652
12079TIP3    H257729   5.144   5.980  14.623  0.1425  0.5876  0.0354
12080TIP3   OH257730   6.049   1.088   2.798 -0.4676 -0.2180  0.4835
12080TIP3    H157731   6.032   1.182   2.803 -0.6458 -0.2825  1.1115
12080TIP3    H257732   5.962   1.049   2.782 -0.2610 -0.2090 -0.7962
12081TIP3   OH257733   0.418   4.343   1.023 -0.5335  0.2655 -0.1158
12081TIP3    H157734   0.385   4.301   1.103 -0.8508  1.6344  0.4918
12081TIP3    H257735   0.512   4.324   1.024 -1.0745 -3.5852 -1.8117
12082TIP3   OH257736   1.245   3.454  11.347 -0.4756  0.0050 -0.6577
12082TIP3    H157737   1.314   3.408  11.299 -1.3814  0.1731 -2.1769
12082TIP3    H257738   1.257   3.546  11.324 -1.2430  0.0255 -0.9999
12083TIP3   OH257739   5.012   5.808  13.717  0.0114 -0.0718  0.9415
12083TIP3    H157740   5.003   5.717  13.688  0.1886  0.5015 -1.0352
12083TIP3    H257741   4.969   5.810  13.802 -1.1875 -1.7103  0.4290
12084TIP3   OH257742   3.012   2.053   4.857  0.5213  0.1469  0.2698
12084TIP3    H157743   3.027   2.085   4.946  1.8375  1.1830 -0.2856
12084TIP3    H257744   2.945   2.110   4.821 -0.9637 -1.0808  0.9814
12085TIP3   OH257745   2.468   3.272  17.296 -0.1436  0.0428 -0.6508
12085TIP3    H157746   2.375   3.296  17.292 -0.4722 -1.0057  0.1593
12085TIP3    H257747   2.484   3.251  17.388  0.8926  0.1836 -0.7894
12086TIP3   OH257748   4.671   0.126  16.305 -0.3263  0.3710 -0.0232
12086TIP3    H157749   4.755   0.080  16.301  0.3927  1.6929 -2.0094
12086TIP3    H257750   4.677   0.192  16.235 -1.9838  2.2652  1.4916
12087TIP3   OH257751   1.871   6.094   3.302 -0.5815 -0.3380 -0.2216
12087TIP3    H157752   1.910   6.154   3.239 -0.1258 -0.4067 -0.0100
12087TIP3    H257753   1.892   6.007   3.268 -1.3998 -0.3903 -0.6278
12088TIP3   OH257754   2.112   4.496   1.186  0.2040 -0.5412  0.5399
12088TIP3    H157755   2.197   4.474   1.147 -0.0943 -1.0852  0.1712
12088TIP3    H257756   2.110   4.448   1.269  1.4508  1.7664  2.0167
12089TIP3   OH257757   2.255   6.196  11.113  0.1373 -0.3737 -0.9259
12089TIP3    H157758   2.318   6.123  11.115  0.2014 -0.3339  1.2853
12089TIP3    H257759   2.180   6.161  11.065  0.1631 -1.9543  0.0825
12090TIP3   OH257760   0.192   3.432  14.380 -0.1193  0.0015  0.3839
12090TIP3    H157761   0.112   3.481  14.400  0.6091  1.2765  0.2577
12090TIP3    H257762   0.181   3.402  14.290 -0.3542  0.4135  0.2719
12091TIP3   OH257763   6.280   4.784   1.095  0.0937 -0.3104  0.1993
12091TIP3    H157764   6.189   4.762   1.115  0.0989 -0.6411 -0.1176
12091TIP3    H257765   6.283   4.879   1.098 -0.4619 -0.2611 -0.6284
12092TIP3   OH257766   1.959   3.427   3.984 -0.1156  0.6051  0.1705
12092TIP3    H157767   1.976   3.457   3.894 -1.5213  1.0938  0.0470
12092TIP3    H257768   2.008   3.345   3.991 -0.2577  0.3724 -1.1640
12093TIP3   OH257769   3.420   3.266  17.378  0.3114  0.9652  0.1715
12093TIP3    H157770   3.341   3.239  17.330  0.4112  1.4042 -0.2434
12093TIP3    H257771   3.400   3.245  17.469 -0.4762  1.4883  0.1378
12094TIP3   OH257772   4.076   6.182   6.241  0.5273  0.2849  0.0930
12094TIP3    H157773   4.065   6.094   6.203  0.8312  0.4647 -0.4200
12094TIP3    H257774   4.160   6.213   6.207  0.4387  0.7608  0.2992
12095TIP3   OH257775   6.193   4.472   5.733 -0.1470  0.0995 -0.1017
12095TIP3    H157776   6.204   4.487   5.827 -0.5536  1.4522 -0.2517
12095TIP3    H257777   6.261   4.526   5.692 -0.0646 -0.3712 -0.5984
12096TIP3   OH257778   1.372   6.654   1.777  0.0080 -0.1563  0.0721
12096TIP3    H157779   1.443   6.629   1.836 -0.6584 -1.7545  0.2474
12096TIP3    H257780   1.310   6.582   1.782 -1.4499  1.0153 -0.3952
12097TIP3   OH257781   0.522   3.764  12.893  0.0717 -0.0563  0.0143
12097TIP3    H157782   0.613   3.739  12.911 -0.5534 -1.1015  1.9652
12097TIP3    H257783   0.529   3.853  12.857  1.8361  0.0061  0.4150
12098TIP3   OH257784   0.799   1.148  13.376 -0.0415  0.3537  0.7414
12098TIP3    H157785   0.879   1.146  13.323  0.1751 -1.1389  1.0897
12098TIP3    H257786   0.753   1.227  13.346  0.3481 -0.1295 -1.2643
12099TIP3   OH257787   6.568   5.094  15.718  0.0625  0.0787 -0.0873
12099TIP3    H157788   6.628   5.025  15.747 -0.8473 -0.2850  0.9914
12099TIP3    H257789   6.521   5.054  15.644 -0.2021 -0.3264  0.2953
12100TIP3   OH257790   3.814   4.549  12.148 -0.5474  0.1266  0.0188
12100TIP3    H157791   3.742   4.498  12.111 -0.0483 -0.6417  0.0840
12100TIP3    H257792   3.890   4.523  12.096  0.0262 -0.4340  1.1050
12101TIP3   OH257793   1.947   2.695   2.314 -0.0687 -0.2773  0.0397
12101TIP3    H157794   1.984   2.608   2.298  0.3152 -0.2119  0.5608
12101TIP3    H257795   2.020   2.755   2.295  0.0896 -0.1443  1.0379
12102TIP3   OH257796   3.646   2.436  13.906  0.7373 -0.3362  0.3366
12102TIP3    H157797   3.617   2.517  13.864  0.3854  1.0608  3.0485
12102TIP3    H257798   3.574   2.411  13.963  1.6537 -1.4622  1.0507
12103TIP3   OH257799   2.710   5.016   3.410  0.7625  0.2285  0.0183
12103TIP3    H157800   2.702   4.934   3.457  0.3751  0.7858  0.9402
12103TIP3    H257801   2.733   5.081   3.477  1.5872  0.7858 -0.7712
12104TIP3   OH257802   2.454   1.747  11.003  0.1781  0.2990 -0.3877
12104TIP3    H157803   2.542   1.714  11.021  0.6130  1.2578 -0.7158
12104TIP3    H257804   2.467   1.838  10.976 -0.8985  0.3983 -0.6201
12105TIP3   OH257805   4.501   5.717  15.065  0.4898  0.1289  0.1573
12105TIP3    H157806   4.551   5.653  15.014  0.5052  0.2833 -0.0234
12105TIP3    H257807   4.540   5.801  15.042  1.2479  0.1155  1.2682
12106TIP3   OH257808   0.396   4.387  13.040  0.2493 -0.5132  0.0289
12106TIP3    H157809   0.458   4.459  13.049  0.0776 -0.5110  1.3873
12106TIP3    H257810   0.314   4.428  13.015 -0.1353 -0.0596  1.8543
12107TIP3   OH257811   0.549   0.494  14.449 -0.4795 -0.6334 -0.7551
12107TIP3    H157812   0.546   0.515  14.542  0.0346 -1.2794 -0.5844
12107TIP3    H257813   0.549   0.398  14.446 -2.5106 -0.6691 -1.4990
12108TIP3   OH257814   3.037   4.300   3.907  0.6330 -0.1792  0.0350
12108TIP3    H157815   2.945   4.310   3.881  0.9272  0.3791 -0.8506
12108TIP3    H257816   3.040   4.328   3.998  0.0392  0.4628 -0.1377
12109TIP3   OH257817   0.484   4.863  16.018 -0.4601  0.4967  0.2864
12109TIP3    H157818   0.432   4.805  16.075  1.5922 -0.0962  1.6633
12109TIP3    H257819   0.508   4.936  16.075  3.1393 -0.9547  0.9160
12110TIP3   OH257820   6.015   0.071  15.168 -0.6579 -0.6158  0.6156
12110TIP3    H157821   5.931   0.074  15.123 -0.6867  0.8103  0.7215
12110TIP3    H257822   6.059  -0.006  15.132 -1.2024 -0.2450 -0.9064
12111TIP3   OH257823   0.498   5.667   6.174 -0.4471 -0.0274 -0.3930
12111TIP3    H157824   0.424   5.727   6.184 -0.2654  0.2176 -0.4927
12111TIP3    H257825   0.566   5.704   6.230  1.0755  2.1481 -3.4068
12112TIP3   OH257826   1.916   2.672  15.309  0.2003 -0.3192 -0.7353
12112TIP3    H157827   1.896   2.707  15.396  2.7771 -1.3248  0.4050
12112TIP3    H257828   1.858   2.596  15.300  0.3735 -0.6209  0.4647
12113TIP3   OH257829   5.419   3.239  13.771 -0.5239 -0.2599  0.0405
12113TIP3    H157830   5.354   3.171  13.790 -2.2328  1.1564 -0.5148
12113TIP3    H257831   5.389   3.280  13.690  1.1093  0.4271 -0.2718
12114TIP3   OH257832   3.470   0.022   4.149  0.0464 -0.0040  0.3849
12114TIP3    H157833   3.532  -0.042   4.113 -2.3560 -2.5068  0.4097
12114TIP3    H257834   3.477   0.098   4.090  1.9533 -0.8029 -0.5099
12115TIP3   OH257835   2.504   0.047   3.118 -0.0745 -0.4020 -0.0593
12115TIP3    H157836   2.593   0.046   3.082 -0.7411 -0.1884 -1.8492
12115TIP3    H257837   2.514   0.087   3.204  1.3288  1.4709 -1.0033
12116TIP3   OH257838   5.342   2.991  14.906 -0.1895  0.5762  0.0032
12116TIP3    H157839   5.253   3.016  14.929 -0.6917 -0.5371 -0.5980
12116TIP3    H257840   5.378   3.067  14.860 -1.5700  0.3259 -1.5976
12117TIP3   OH257841   3.458   1.938   2.929 -0.0122  0.6831 -0.1362
12117TIP3    H157842   3.472   1.885   2.851  0.9275  0.1121  0.3940
12117TIP3    H257843   3.531   2.001   2.929 -0.3166  1.0387 -0.0154
12118TIP3   OH257844   2.068   6.499  17.070  0.1479  0.9002 -0.1492
12118TIP3    H157845   1.995   6.487  17.131  1.0481  1.6285  1.1419
12118TIP3    H257846   2.143   6.462  17.117  1.1571  2.8223 -0.1630
12119TIP3   OH257847   1.350   0.328  11.168 -0.7697  0.0306  0.2831
12119TIP3    H157848   1.345   0.348  11.075 -1.0185 -1.3770 -0.0370
12119TIP3    H257849   1.259   0.315  11.195 -0.5927 -2.8548 -0.1162
12120TIP3   OH257850   4.294   0.270  12.826 -0.4712  0.1071  0.1561
12120TIP3    H157851   4.313   0.283  12.918  1.8039  0.5740 -0.3262
12120TIP3    H257852   4.284   0.358  12.790  0.7934  0.0367 -0.4206
12121TIP3   OH257853   5.131   4.476  14.718 -0.2020  0.0398 -0.5124
12121TIP3    H157854   5.117   4.563  14.756  0.1448 -0.4279  0.7270
12121TIP3    H257855   5.210   4.443  14.761 -0.8517 -1.2604 -0.2584
12122TIP3   OH257856   4.403   5.824  12.644  0.6467 -0.3161 -0.1016
12122TIP3    H157857   4.425   5.762  12.574 -1.0971 -0.0062 -0.9966
12122TIP3    H257858   4.470   5.891  12.639 -0.3034  0.5873 -2.6630
12123TIP3   OH257859   2.745   5.241   2.816 -0.3596 -0.3218 -0.7432
12123TIP3    H157860   2.719   5.331   2.796 -1.8344 -0.8408 -1.2871
12123TIP3    H257861   2.774   5.205   2.733 -0.2717 -0.5111 -0.6318
12124TIP3   OH257862   1.564   2.060   3.995 -0.0209  0.1032 -0.3338
12124TIP3    H157863   1.540   1.972   3.965 -2.4874  0.2857  0.8348
12124TIP3    H257864   1.638   2.047   4.053  0.7056 -0.9895 -1.4578
12125TIP3   OH257865   3.676   3.882   4.300 -0.1333 -0.4021 -0.2328
12125TIP3    H157866   3.635   3.915   4.220 -2.6144 -2.4351  0.0548
12125TIP3    H257867   3.722   3.803   4.271 -0.5963 -0.8509  0.2433
12126TIP3   OH257868   6.014   5.110  15.635  0.0963 -0.2227 -0.0929
12126TIP3    H157869   5.980   5.050  15.569 -0.7562 -0.6296  0.6984
12126TIP3    H257870   6.043   5.053  15.706 -0.7750  0.2920  0.6958
12127TIP3   OH257871   3.912   2.037  14.739 -0.0687 -0.6020 -0.4473
12127TIP3    H157872   3.912   1.945  14.767 -0.3167  0.0594  2.0417
12127TIP3    H257873   3.999   2.052  14.702  0.8703 -1.2774  1.3717
12128TIP3   OH257874   6.070   1.178   0.658 -0.0555  0.1422 -0.5337
12128TIP3    H157875   6.103   1.131   0.581 -1.4709 -1.5810 -0.1537
12128TIP3    H257876   6.138   1.168   0.724 -0.0514 -0.8711 -0.6761
12129TIP3   OH257877   4.110   3.604  13.613  0.4945  0.5253 -0.1843
12129TIP3    H157878   4.039   3.662  13.641 -0.4016 -0.2242 -0.8303
12129TIP3    H257879   4.097   3.524  13.663  2.1529  1.0657  1.2417
12130TIP3   OH257880   0.595   1.658  17.275  0.0054  0.1647  0.6785
12130TIP3    H157881   0.531   1.609  17.224 -2.1740  0.5711  2.8491
12130TIP3    H257882   0.544   1.723  17.322  2.2332  1.4656  1.4538
12131TIP3   OH257883   0.480   1.698   3.678 -0.7567  0.6261  0.1178
12131TIP3    H157884   0.498   1.784   3.640 -3.3951  1.4344  0.5095
12131TIP3    H257885   0.505   1.707   3.770  0.9859  0.2424 -0.2878
12132TIP3   OH257886   0.215   0.347   5.535 -0.0980  0.1496 -0.2137
12132TIP3    H157887   0.266   0.343   5.453  1.8086 -1.2784  0.9562
12132TIP3    H257888   0.215   0.440   5.558  3.5628  0.1224  0.5653
12133TIP3   OH257889   5.477   3.166  17.124 -0.0460 -0.1643 -0.1440
12133TIP3    H157890   5.477   3.073  17.105  2.1077 -0.1876 -0.2949
12133TIP3    H257891   5.507   3.172  17.215 -3.8300  0.2649  1.2506
12134TIP3   OH257892   1.972   3.144  12.651  0.3863  0.2027  0.1814
12134TIP3    H157893   1.950   3.051  12.643 -0.9139  0.3845  1.3447
12134TIP3    H257894   2.045   3.156  12.590  0.2535 -1.4639 -0.3663
12135TIP3   OH257895   0.054   5.485   3.749  0.3248  0.0498 -0.0503
12135TIP3    H157896   0.146   5.459   3.757 -0.3220 -1.8648  3.5710
12135TIP3    H257897   0.046   5.561   3.807 -0.8764 -1.7897  2.3476
12136TIP3   OH257898   2.753   5.261   3.558  0.5505  0.3017 -0.6274
12136TIP3    H157899   2.831   5.315   3.545  0.2097  1.0817  0.4802
12136TIP3    H257900   2.759   5.231   3.649  1.4178 -2.6670 -1.5347
12137TIP3   OH257901   3.838   3.434  11.517 -0.2641 -0.1067  0.1978
12137TIP3    H157902   3.795   3.511  11.480  2.1881  0.5180 -1.6602
12137TIP3    H257903   3.833   3.368  11.447 -0.2838 -0.8338  0.8671
12138TIP3   OH257904   1.469   4.854  14.448 -0.2580 -0.0076  0.3457
12138TIP3    H157905   1.562   4.838  14.462  0.2106  0.5767 -1.6890
12138TIP3    H257906   1.432   4.862  14.535  1.2881 -1.9038  1.2265
12139TIP3   OH257907   3.488   1.764   2.158  0.1868 -0.2089  1.0162
12139TIP3    H157908   3.525   1.807   2.081 -0.0980 -0.9397  0.4619
12139TIP3    H257909   3.512   1.821   2.231 -1.7391  1.8570  0.1294
12140TIP3   OH257910   0.620   4.953  12.572  0.9734  0.4475 -0.3130
12140TIP3    H157911   0.649   5.018  12.508  0.5200 -1.0335 -2.0981
12140TIP3    H257912   0.674   4.876  12.556 -2.6337 -1.8985 -2.8038
12141TIP3   OH257913   4.458   5.726  12.894  0.4170 -0.5630 -0.2264
12141TIP3    H157914   4.431   5.756  12.807  1.5886 -1.3700 -0.8938
12141TIP3    H257915   4.434   5.633  12.896  0.3329 -0.5330  0.3436
12142TIP3   OH257916   6.284   2.502   0.927  0.1601  0.4538  0.0659
12142TIP3    H157917   6.371   2.529   0.955 -0.5837  1.6966  1.3382
12142TIP3    H257918   6.228   2.578   0.946 -1.2067 -0.3237 -0.6847
12143TIP3   OH257919   5.850   5.655   4.146  0.0608 -0.0772  0.0743
12143TIP3    H157920   5.834   5.572   4.191  2.6185  0.1105  1.5186
12143TIP3    H257921   5.861   5.631   4.054  1.0985 -1.4181  0.5208
12144TIP3   OH257922   2.735   2.278  14.942  0.2660  0.5259 -0.5946
12144TIP3    H157923   2.665   2.261  14.879  0.2977  2.4675 -1.2283
12144TIP3    H257924   2.808   2.309  14.889  0.6564  1.1635  0.3009
12145TIP3   OH257925   3.530   2.068  13.554 -0.3792 -0.1511 -0.1087
12145TIP3    H157926   3.599   2.132  13.536  0.3368 -0.5359  1.1647
12145TIP3    H257927   3.515   2.026  13.469  2.0488 -1.0991 -0.1529
12146TIP3   OH257928   1.977   4.038   3.116  0.4330 -0.2439  0.2249
12146TIP3    H157929   2.044   4.095   3.155  0.1631 -0.4488  1.0016
12146TIP3    H257930   1.922   4.097   3.065  2.2944 -0.3075 -2.0145
12147TIP3   OH257931   6.193   6.206  16.482  0.2080  0.0571  0.3423
12147TIP3    H157932   6.185   6.113  16.503  1.9337  0.1043  1.4069
12147TIP3    H257933   6.151   6.251  16.556 -0.7679  0.1595 -0.2481
12148TIP3   OH257934   1.042   0.263  15.799  0.4834 -0.0326  0.0672
12148TIP3    H157935   1.048   0.352  15.764 -1.7133  0.7032  1.3170
12148TIP3    H257936   1.132   0.236  15.812  1.2420  2.5247  0.7872
12149TIP3   OH257937   6.800   6.713  12.476  0.0195 -0.3880 -1.2222
12149TIP3    H157938   6.838   6.766  12.407 -1.0588  0.8352 -0.9209
12149TIP3    H257939   6.716   6.683  12.440 -1.2918  1.5140 -0.0050
12150TIP3   OH257940   5.435   1.089  12.797  0.7083 -0.0260  0.1351
12150TIP3    H157941   5.516   1.073  12.749  0.5400 -0.7402  0.0759
12150TIP3    H257942   5.393   1.003  12.802  0.4649  0.1359  1.0964
12151TIP3   OH257943   3.452   0.919   5.395 -0.0943 -0.0674 -0.6294
12151TIP3    H157944   3.519   0.986   5.383 -0.2419 -0.0662 -1.5599
12151TIP3    H257945   3.493   0.839   5.364 -0.8744  0.1403 -2.3511
12152TIP3   OH257946   0.023   0.157  15.868 -0.0841 -0.0942  0.4430
12152TIP3    H157947  -0.031   0.183  15.793 -1.2636  0.7656  1.5450
12152TIP3    H257948  -0.025   0.085  15.908  1.6278 -2.0368 -0.8066
12153TIP3   OH257949   3.857   5.555  11.020  0.4978 -0.0250  0.5303
12153TIP3    H157950   3.769   5.526  11.046  0.2374 -0.2864 -0.5856
12153TIP3    H257951   3.848   5.649  11.005 -0.0861 -0.3487 -1.4077
12154TIP3   OH257952   3.818   4.862   4.737 -0.8394  0.0150  0.7379
12154TIP3    H157953   3.783   4.909   4.812  0.1387 -0.3555  1.4367
12154TIP3    H257954   3.847   4.778   4.772  0.1116  0.0346  0.0453
12155TIP3   OH257955   3.558   3.418  12.339 -0.8536 -0.0450  0.1163
12155TIP3    H157956   3.579   3.413  12.246 -2.1479 -2.7275 -0.1320
12155TIP3    H257957   3.643   3.423  12.383 -0.1926  0.4052 -1.1722
12156TIP3   OH257958   3.092   5.449   5.792 -0.6195 -0.4219 -0.0984
12156TIP3    H157959   2.999   5.433   5.806 -0.8965 -0.2849 -1.6184
12156TIP3    H257960   3.100   5.462   5.698  0.9178 -0.2564  0.0329
12157TIP3   OH257961   4.779   5.754  13.889  0.9262 -0.5216 -0.1456
12157TIP3    H157962   4.709   5.806  13.848 -0.4045  0.5296  3.0657
12157TIP3    H257963   4.748   5.664  13.885  0.3304 -0.3078 -0.4916
12158TIP3   OH257964   3.173   6.017  14.328  0.0900  0.0739  0.2778
12158TIP3    H157965   3.165   6.100  14.281  0.7642  0.3656  0.6564
12158TIP3    H257966   3.244   6.032  14.390  0.3244 -0.8462  0.2377
12159TIP3   OH257967   6.692   3.508   5.092 -0.3874  0.1955 -0.2352
12159TIP3    H157968   6.758   3.445   5.123 -2.0896 -1.3227  0.4402
12159TIP3    H257969   6.668   3.557   5.171 -0.0942  0.7440 -0.4806
12160TIP3   OH257970   0.866   2.680  14.990  0.2018  0.8343 -0.1554
12160TIP3    H157971   0.912   2.608  15.034 -1.6901  0.4832  1.4015
12160TIP3    H257972   0.895   2.759  15.035 -0.7272  0.6061  0.8777
12161TIP3   OH257973   2.192   4.626  14.326  0.2842  0.3523 -0.1045
12161TIP3    H157974   2.132   4.656  14.257  0.9511 -0.0495 -0.8785
12161TIP3    H257975   2.141   4.563  14.376  0.6755 -1.7655 -2.1558
12162TIP3   OH257976   0.821   1.754  13.659  0.1514  0.5138  0.5571
12162TIP3    H157977   0.793   1.824  13.718 -0.4566 -0.6305  1.6968
12162TIP3    H257978   0.762   1.681  13.681  1.8321 -0.8818  0.5967
12163TIP3   OH257979   4.180   3.478  14.981  0.0920  0.1180  0.3014
12163TIP3    H157980   4.104   3.428  15.008 -0.3410  0.8963  0.5725
12163TIP3    H257981   4.228   3.420  14.921 -0.4498 -0.5550  0.5125
12164TIP3   OH257982   1.733   3.232   0.478  0.2166 -0.1678  0.7758
12164TIP3    H157983   1.728   3.168   0.406  0.8363  0.9582 -0.3134
12164TIP3    H257984   1.681   3.193   0.548 -0.2461 -1.4050 -0.2061
12165TIP3   OH257985   3.631   0.551  13.042  0.6576  0.1509  0.4159
12165TIP3    H157986   3.667   0.592  13.121 -0.3219  0.9180  0.4913
12165TIP3    H257987   3.576   0.620  13.003  1.2353 -0.1639 -1.0133
12166TIP3   OH257988   5.425   0.774   5.837 -0.0499  0.5072 -0.8242
12166TIP3    H157989   5.448   0.686   5.805  0.3156  0.0519  0.5800
12166TIP3    H257990   5.505   0.825   5.826 -0.3960  0.8068 -2.0565
12167TIP3   OH257991   1.186   3.832   0.078 -0.3300  0.0179  0.2249
12167TIP3    H157992   1.242   3.783   0.017  0.2788  0.1642  0.6488
12167TIP3    H257993   1.160   3.767   0.144 -0.7080 -0.0607  0.0026
12168TIP3   OH257994   5.753   0.284   2.131 -0.2709  0.0545  0.5244
12168TIP3    H157995   5.831   0.230   2.138  1.0344  1.8916  1.0051
12168TIP3    H257996   5.682   0.222   2.115  0.9553 -1.8741  2.0666
12169TIP3   OH257997   0.749   0.179  12.245 -0.1824  0.3041  0.2786
12169TIP3    H157998   0.829   0.177  12.298 -0.6906 -0.9979  1.0556
12169TIP3    H257999   0.716   0.089  12.248 -1.0867  0.5700 -0.9560
12170TIP3   OH258000   2.586   3.630   5.991  0.5188  0.8201  0.5156
12170TIP3    H158001   2.511   3.685   6.016  1.1645  1.2917  1.4861
12170TIP3    H258002   2.661   3.688   5.996  0.8397  0.6806 -1.6710
12171TIP3   OH258003   5.628   6.181  14.748 -0.1344  0.5468 -0.6287
12171TIP3    H158004   5.694   6.113  14.734 -0.2818  0.7665 -2.6179
12171TIP3    H258005   5.572   6.177  14.671 -1.5766  1.3630  0.3345
12172TIP3   OH258006   6.399   0.064  15.422  0.0569  0.2179 -0.1216
12172TIP3    H158007   6.352  -0.017  15.402  0.3800  0.4440 -1.9922
12172TIP3    H258008   6.349   0.133  15.378  0.2759  0.9220  0.7025
12173TIP3   OH258009   0.104   0.512  15.866 -0.5188 -0.2083  0.0384
12173TIP3    H158010   0.108   0.455  15.789  1.0505 -1.2971  0.8525
12173TIP3    H258011   0.079   0.453  15.937 -2.2239  0.8367  0.3606
12174TIP3   OH258012   6.284   5.169  12.964  0.8512 -0.2918 -0.5432
12174TIP3    H158013   6.197   5.166  13.005  1.3992  0.3363  0.7224
12174TIP3    H258014   6.333   5.100  13.009  1.1832 -0.2343 -0.8182
12175TIP3   OH258015   5.299   0.686  11.478  0.1804 -0.0772  0.1930
12175TIP3    H158016   5.259   0.602  11.454  2.5397 -0.3688 -3.4668
12175TIP3    H258017   5.340   0.669  11.563 -1.6023 -1.7448  0.8009
12176TIP3   OH258018   6.380   2.480  13.892 -0.1326  0.1111  0.4521
12176TIP3    H158019   6.374   2.449  13.802 -2.4283 -0.3491  0.7145
12176TIP3    H258020   6.420   2.407  13.940 -1.9221 -1.0069  0.3514
12177TIP3   OH258021   4.592   5.407   0.039  0.3147  0.4626  0.0549
12177TIP3    H158022   4.620   5.345   0.107 -1.3937 -3.1524 -2.2013
12177TIP3    H258023   4.654   5.394  -0.032 -0.7133  0.5116 -0.8763
12178TIP3   OH258024   5.762   4.884   6.235  0.3774  0.4447  1.2063
12178TIP3    H158025   5.774   4.923   6.321 -1.5038  0.7002  1.3966
12178TIP3    H258026   5.669   4.859   6.232 -0.4080  2.9797 -1.6945
12179TIP3   OH258027   0.847   3.485  12.134  0.5190  0.0537 -0.1817
12179TIP3    H158028   0.870   3.414  12.074  2.3384 -1.6073  2.3099
12179TIP3    H258029   0.928   3.506  12.180 -0.9215  0.6979  2.2488
12180TIP3   OH258030   2.268   4.390  16.751 -0.7408  0.3287  0.1499
12180TIP3    H158031   2.189   4.438  16.724 -0.0146  1.4701  0.0095
12180TIP3    H258032   2.336   4.418  16.690  0.0974  0.3517  1.0705
12181TIP3   OH258033   3.470   6.140  15.620  0.1203 -0.3475 -0.0272
12181TIP3    H158034   3.541   6.079  15.602 -0.1834 -0.6654 -0.1413
12181TIP3    H258035   3.431   6.109  15.702 -0.6288 -0.8593 -0.5681
12182TIP3   OH258036   6.722   2.778   0.974 -0.1678 -0.2301 -0.5313
12182TIP3    H158037   6.798   2.808   1.024 -1.1056  0.6872  0.4040
12182TIP3    H258038   6.653   2.766   1.039 -0.6685 -1.6628 -1.2762
12183TIP3   OH258039   1.884   0.983  11.163  0.1326  0.2542  1.2571
12183TIP3    H158040   1.835   1.021  11.091 -1.1015  0.0830  1.9736
12183TIP3    H258041   1.883   0.889  11.146  0.3707  0.2650  1.1805
12184TIP3   OH258042   6.212   4.452  12.044  0.1079  0.1824 -0.3718
12184TIP3    H158043   6.174   4.372  12.006  0.3226  0.3164 -0.8896
12184TIP3    H258044   6.256   4.422  12.123 -1.5978  0.1271  0.5976
12185TIP3   OH258045   6.327   1.985  14.870  0.3500  0.3676 -0.3027
12185TIP3    H158046   6.250   2.024  14.911  0.8742 -0.5008  1.6292
12185TIP3    H258047   6.338   2.033  14.788 -1.0368  1.8700  0.3458
12186TIP3   OH258048   6.042   0.976  11.562 -0.0684  0.5241  0.2442
12186TIP3    H158049   6.086   1.061  11.563  0.4764  0.2658 -0.3364
12186TIP3    H258050   6.061   0.941  11.475  0.8785 -0.7822  0.9335
12187TIP3   OH258051   3.795   2.770   0.164 -0.3884  0.1348  0.6689
12187TIP3    H158052   3.849   2.805   0.235  0.0513  0.3818  0.2256
12187TIP3    H258053   3.759   2.848   0.122 -1.9782 -0.0542  1.6157
12188TIP3   OH258054   2.669   4.866  15.183  0.4227 -0.3097  0.0365
12188TIP3    H158055   2.731   4.939  15.176  0.6717 -0.5334 -0.1133
12188TIP3    H258056   2.718   4.790  15.152  0.1160 -0.5151  0.0514
12189TIP3   OH258057   4.228   2.685   0.888 -0.2337  0.0232  0.0132
12189TIP3    H158058   4.314   2.718   0.913 -0.6160  0.6721  0.5235
12189TIP3    H258059   4.229   2.593   0.915  0.8807 -0.4393 -1.5232
12190TIP3   OH258060   1.092   1.805  14.401 -0.3225  0.3781  0.1564
12190TIP3    H158061   0.999   1.828  14.405 -0.1381  1.2260 -0.0741
12190TIP3    H258062   1.137   1.889  14.415  0.3966  0.1397 -0.6735
12191TIP3   OH258063   1.216   6.044   2.357  0.2756  0.1093 -0.0671
12191TIP3    H158064   1.188   6.116   2.300 -0.4299 -0.5331 -0.5518
12191TIP3    H258065   1.173   5.967   2.321  1.4030 -0.6496  0.1569
12192TIP3   OH258066   2.939   1.884  16.776  0.1989 -0.1736 -0.2567
12192TIP3    H158067   2.946   1.847  16.688  1.5582  0.4257 -0.4262
12192TIP3    H258068   2.951   1.810  16.835  0.4369 -0.3964 -0.5844
12193TIP3   OH258069   1.403   5.308   2.675  0.1939  0.1149  0.2041
12193TIP3    H158070   1.435   5.393   2.705 -0.3187 -0.3317  2.1830
12193TIP3    H258071   1.309   5.320   2.664  0.2782  0.0845 -0.6264
12194TIP3   OH258072   6.337   5.392  13.105  0.6255 -0.9606  0.3132
12194TIP3    H158073   6.342   5.339  13.026 -1.0992 -0.6147 -0.0726
12194TIP3    H258074   6.428   5.407  13.130  1.4068  1.0574 -3.0447
12195TIP3   OH258075   0.719   2.417   3.698 -0.2428 -0.0237 -0.2237
12195TIP3    H158076   0.739   2.498   3.652 -1.0713  0.2981 -0.0308
12195TIP3    H258077   0.626   2.423   3.718 -0.1122 -0.6113  0.6105
12196TIP3   OH258078   0.679   5.490   0.187 -0.0142 -1.1698 -0.0056
12196TIP3    H158079   0.621   5.481   0.111  1.2254  1.9886 -1.5053
12196TIP3    H258080   0.622   5.523   0.257 -0.4003  0.4531 -1.0153
12197TIP3   OH258081   4.995   2.338   1.272 -0.4188  0.5071 -0.0972
12197TIP3    H158082   4.961   2.322   1.360 -0.6791  1.0028 -0.1095
12197TIP3    H258083   5.085   2.368   1.286  0.1767 -1.1339 -0.0771
12198TIP3   OH258084   0.850   1.151  16.583 -0.1013 -0.4205 -0.0597
12198TIP3    H158085   0.794   1.082  16.548 -0.0956  0.2170 -1.4038
12198TIP3    H258086   0.796   1.230  16.582  0.1946 -0.2011  0.5259
12199TIP3   OH258087   5.574   4.839   5.926 -0.1309  0.2118  0.6442
12199TIP3    H158088   5.480   4.824   5.916 -0.1403  0.9504 -0.4601
12199TIP3    H258089   5.605   4.762   5.974 -0.8679 -1.2979 -1.1915
12200TIP3   OH258090   0.733   0.692  12.245  0.5325  0.1814  0.2005
12200TIP3    H158091   0.694   0.669  12.161  0.4168 -0.0312  0.3110
12200TIP3    H258092   0.726   0.787  12.251  1.4383  0.3019 -0.4750
12201TIP3   OH258093   0.753   6.168   5.156 -0.5809  0.2738 -0.1983
12201TIP3    H158094   0.747   6.237   5.089 -0.0733 -0.0636 -0.5971
12201TIP3    H258095   0.696   6.199   5.227  0.8094  1.8744  0.3002
12202TIP3   OH258096   6.085   0.771  16.747  0.3547 -0.3689 -0.4432
12202TIP3    H158097   6.113   0.853  16.789  1.2729 -1.4853  1.2756
12202TIP3    H258098   6.148   0.706  16.778 -0.9823 -1.9415 -0.8846
12203TIP3   OH258099   6.660   5.350   2.790  0.3730 -0.0171 -0.1805
12203TIP3    H158100   6.651   5.256   2.775  2.3416 -0.2510 -0.0871
12203TIP3    H258101   6.572   5.378   2.815 -0.9863 -1.2469 -3.1087
12204TIP3   OH258102   1.995   0.687   0.095  0.0501  0.0487 -0.3841
12204TIP3    H158103   1.972   0.779   0.108  0.9723  0.4135 -1.2776
12204TIP3    H258104   2.085   0.680   0.127 -0.1112 -0.6114 -0.0569
12205TIP3   OH258105   4.983   0.789  15.995 -0.0180 -0.8154 -0.1338
12205TIP3    H158106   5.053   0.778  15.931 -1.0236 -1.5079 -1.1380
12205TIP3    H258107   4.983   0.883  16.014  0.3691 -0.6178 -1.0615
12206TIP3   OH258108   5.498   5.304   4.672  0.0229  0.2166 -0.1352
12206TIP3    H158109   5.546   5.328   4.593  0.6468  0.4905  0.3220
12206TIP3    H258110   5.561   5.314   4.743 -0.7436  0.7249  0.4956
12207TIP3   OH258111   3.658   2.109  16.048 -0.6327 -0.0290 -0.6141
12207TIP3    H158112   3.694   2.147  16.128  0.4300  2.1796 -2.0571
12207TIP3    H258113   3.566   2.095  16.068 -0.6587  1.6167  0.6416
12208TIP3   OH258114   0.498   5.009  16.828  0.4810  0.0573 -0.2077
12208TIP3    H158115   0.467   5.064  16.900 -1.0667 -0.4162 -0.4853
12208TIP3    H258116   0.500   4.921  16.865 -1.2500 -0.3418 -0.9818
12209TIP3   OH258117   4.196   0.168  15.013  0.5089 -0.2746 -0.6231
12209TIP3    H158118   4.188   0.130  15.100 -0.0342 -1.4572 -1.1550
12209TIP3    H258119   4.280   0.213  15.014  0.4526 -0.1606  0.5409
12210TIP3   OH258120   4.494   6.791  15.876  0.1127 -0.2502 -0.0564
12210TIP3    H158121   4.414   6.797  15.928  0.4838  1.1370  0.3909
12210TIP3    H258122   4.502   6.877  15.834  0.5743 -0.8745 -1.3103
12211TIP3   OH258123   3.053   1.129   4.489  0.4360 -0.3365  0.1717
12211TIP3    H158124   3.062   1.206   4.433 -1.2395 -0.3002 -0.0827
12211TIP3    H258125   3.106   1.150   4.566 -0.0136  1.0973  0.1205
12212TIP3   OH258126   3.817   2.197  14.939  0.5131 -0.3056 -0.3621
12212TIP3    H158127   3.851   2.139  14.870  2.3672 -1.4256  1.3908
12212TIP3    H258128   3.784   2.137  15.006 -1.1181  0.7714 -0.1388
12213TIP3   OH258129   2.879   1.826   1.527  0.0294  0.4463  0.0083
12213TIP3    H158130   2.922   1.786   1.603 -0.0528  0.4743  0.0689
12213TIP3    H258131   2.946   1.824   1.459 -0.8485 -2.4572 -0.9095
12214TIP3   OH258132   6.364   1.957  15.742  0.2639 -0.3318  0.2382
12214TIP3    H158133   6.416   2.016  15.688  0.5997  0.6634  1.5809
12214TIP3    H258134   6.274   1.975  15.717  0.3370  1.0359  0.8590
12215TIP3   OH258135   1.036   4.383  13.944  0.0490  0.1387 -0.2400
12215TIP3    H158136   0.991   4.459  13.906 -0.9924 -1.2794 -2.0286
12215TIP3    H258137   0.966   4.318  13.956  1.0123 -0.7715  0.6483
12216TIP3   OH258138   4.307   2.112   0.194  0.0132  0.0025  0.0109
12216TIP3    H158139   4.378   2.173   0.175 -0.2572  0.2758 -0.1348
12216TIP3    H258140   4.310   2.099   0.288 -1.0370  1.6287  0.3043
12217TIP3   OH258141   2.368   6.327   1.609 -0.1514  0.1677 -0.1947
12217TIP3    H158142   2.350   6.403   1.664  0.8300  0.2207  0.0698
12217TIP3    H258143   2.385   6.256   1.671  0.5919  0.1383 -0.4239
12218TIP3   OH258144   5.369   0.394  14.462 -0.5396  0.0287 -0.2069
12218TIP3    H158145   5.292   0.433  14.505 -0.3360  0.6486 -0.3897
12218TIP3    H258146   5.443   0.445  14.496 -0.2788 -0.1337 -0.5335
12219TIP3   OH258147   4.075   0.676  13.271  0.1364  0.0491 -0.3570
12219TIP3    H158148   4.103   0.593  13.231  1.6906 -0.0297  0.7946
12219TIP3    H258149   4.157   0.718  13.299 -0.7396  1.1959  0.6115
12220TIP3   OH258150   1.272   1.632   6.894 -0.1768 -0.3332 -0.5378
12220TIP3    H158151   1.340   1.569   6.917 -2.0767 -2.3134 -0.0767
12220TIP3    H258152   1.198   1.579   6.865 -2.4515  1.5491  1.3476
12221TIP3   OH258153   4.355   5.857   2.658 -0.1420  1.2663 -0.1921
12221TIP3    H158154   4.300   5.882   2.584  1.1792  2.5161 -0.8072
12221TIP3    H258155   4.294   5.845   2.731 -1.6364 -1.2982 -1.7081
12222TIP3   OH258156   0.150   5.443  10.711 -0.2211 -0.0538 -0.2267
12222TIP3    H158157   0.174   5.447  10.804 -0.0098  1.8874 -0.3306
12222TIP3    H258158   0.056   5.429  10.711 -0.5543  1.9235  0.3492
12223TIP3   OH258159   0.360   6.472  12.136 -0.2955 -0.1607 -0.2685
12223TIP3    H158160   0.424   6.488  12.205 -0.3412 -1.1783  0.0361
12223TIP3    H258161   0.390   6.391  12.094 -1.4766 -0.7836  0.0294
12224TIP3   OH258162   1.415   6.646  13.779  0.6198 -0.2798 -0.0378
12224TIP3    H158163   1.468   6.714  13.822 -1.1223  0.7821  0.5549
12224TIP3    H258164   1.474   6.606  13.716  2.2534  0.5203  0.9076
12225TIP3   OH258165   0.062   0.596  13.506 -0.0485 -0.1496 -0.0265
12225TIP3    H158166   0.071   0.685  13.540 -0.1357  0.9582 -2.6004
12225TIP3    H258167   0.095   0.602  13.416  2.0771 -3.2862  0.4110
12226TIP3   OH258168   1.041   1.235   0.814 -0.1442  0.0827  0.0279
12226TIP3    H158169   1.104   1.281   0.759  1.1957 -0.6972  0.8681
12226TIP3    H258170   1.019   1.156   0.765  0.8835 -0.5045  0.4869
12227TIP3   OH258171   2.751   4.740   2.997  0.1951 -0.0695 -0.1484
12227TIP3    H158172   2.724   4.827   2.967  0.8101  0.0571 -0.3399
12227TIP3    H258173   2.679   4.712   3.054 -0.7605 -0.1162 -1.3484
12228TIP3   OH258174   2.115   1.769   2.321  0.1555  0.1877  0.6117
12228TIP3    H158175   2.046   1.829   2.293  1.1112  1.2675  0.4825
12228TIP3    H258176   2.073   1.683   2.323 -1.3302  0.8824  1.0555
12229TIP3   OH258177   2.843   2.278   1.050  0.3704 -0.2564  0.0704
12229TIP3    H158178   2.906   2.346   1.075  1.3697 -0.6706 -1.1842
12229TIP3    H258179   2.803   2.312   0.970  1.7324 -1.6087 -1.2490
12230TIP3   OH258180   4.351   3.975  14.607  0.4213  0.3830  0.2303
12230TIP3    H158181   4.306   3.998  14.688 -0.8368 -1.0814 -0.0002
12230TIP3    H258182   4.326   3.884  14.591  2.5296 -0.1090 -0.5687
12231TIP3   OH258183   5.859   6.106   2.194  0.1536  0.2743 -0.2627
12231TIP3    H158184   5.906   6.093   2.277 -0.4307  2.1335  0.4159
12231TIP3    H258185   5.784   6.047   2.199  0.9456 -0.7472 -0.1649
12232TIP3   OH258186   1.331   5.392  13.088  0.0295  0.5915  0.0519
12232TIP3    H158187   1.306   5.316  13.140 -0.2941  0.5806 -0.1149
12232TIP3    H258188   1.421   5.375  13.060 -0.4867 -0.3572 -1.1028
12233TIP3   OH258189   3.169   1.752   0.682 -0.4407 -0.0600 -0.0526
12233TIP3    H158190   3.109   1.699   0.629 -1.1137  0.6713 -0.0409
12233TIP3    H258191   3.142   1.736   0.772  0.0568 -0.5285  0.0164
12234TIP3   OH258192   1.464   6.390   2.050  0.6025 -0.5518  0.3407
12234TIP3    H158193   1.456   6.385   2.145 -0.5737  0.4825  0.3236
12234TIP3    H258194   1.499   6.477   2.033 -1.1086  0.0730 -0.2223
12235TIP3   OH258195   5.290   3.683   0.719  0.0784 -0.5244  0.0275
12235TIP3    H158196   5.382   3.655   0.718 -0.2989 -1.8436 -0.7081
12235TIP3    H258197   5.278   3.728   0.635  0.3840  0.9081  0.7182
12236TIP3   OH258198   0.586   4.253   1.518  0.0460  0.3440 -0.3203
12236TIP3    H158199   0.522   4.292   1.578  1.1623  1.2720  0.2865
12236TIP3    H258200   0.556   4.162   1.508 -1.0271  0.5923  0.4223
12237TIP3   OH258201   3.952   3.170   0.321 -0.1649 -0.4787 -0.4714
12237TIP3    H158202   3.938   3.076   0.331  1.9401 -0.6019  4.4241
12237TIP3    H258203   4.027   3.176   0.261  2.5928 -2.4914  2.4069
12238TIP3   OH258204   1.702   1.292  15.201  0.1239 -0.3975  0.5094
12238TIP3    H158205   1.696   1.286  15.105  2.4901 -1.7447  0.3508
12238TIP3    H258206   1.733   1.381  15.218  2.6106 -1.0260 -0.2849
12239TIP3   OH258207   6.630   3.561   1.234  0.3262 -0.4684 -0.3502
12239TIP3    H158208   6.610   3.551   1.141  0.8714 -1.3576 -0.3787
12239TIP3    H258209   6.704   3.622   1.236  0.6380 -0.8351 -0.5374
12240TIP3   OH258210   1.177   0.096   4.313 -0.1859 -0.5281  0.0324
12240TIP3    H158211   1.238   0.131   4.378  0.3351 -0.8801 -0.2640
12240TIP3    H258212   1.100   0.153   4.319  0.1848 -0.0623  0.3857
12241TIP3   OH258213   4.931   6.720   5.563 -0.5681  0.0405  0.0173
12241TIP3    H158214   5.015   6.737   5.520 -0.8095  0.7750 -0.1839
12241TIP3    H258215   4.941   6.633   5.602  0.2930  0.1286  0.0189
12242TIP3   OH258216   3.198   2.119   1.934 -0.3229  0.3483 -0.2856
12242TIP3    H158217   3.243   2.074   1.863 -0.0247 -1.3348  0.9032
12242TIP3    H258218   3.180   2.050   1.998 -1.0855  1.7035  1.0163
12243TIP3   OH258219   3.423   4.181  11.713 -0.2598 -0.0393 -0.3340
12243TIP3    H158220   3.343   4.148  11.753 -1.4785  1.4230 -1.4697
12243TIP3    H258221   3.401   4.269  11.683  2.5972  1.6472  1.8948
12244TIP3   OH258222   5.477   2.149   0.842  0.2757  0.3076 -0.3433
12244TIP3    H158223   5.437   2.071   0.881  0.0147 -0.7420 -2.5742
12244TIP3    H258224   5.456   2.143   0.749  4.4792  0.3774 -1.4898
12245TIP3   OH258225   3.336   5.655  14.643 -0.0292 -1.1777 -0.2312
12245TIP3    H158226   3.319   5.610  14.560  0.5150 -0.6984 -0.6072
12245TIP3    H258227   3.374   5.587  14.700  1.5132 -1.0403 -1.0433
12246TIP3   OH258228   2.780   2.546  12.380 -0.1210 -0.4238 -0.4860
12246TIP3    H158229   2.685   2.557  12.376 -0.0481  0.4953  0.1912
12246TIP3    H258230   2.803   2.568  12.470  0.9027  0.7587 -1.0089
12247TIP3   OH258231   1.773   0.417  10.703  0.1707  0.1389 -0.1083
12247TIP3    H158232   1.770   0.331  10.746  0.4247 -0.0279 -0.4193
12247TIP3    H258233   1.866   0.437  10.695  0.1074  0.6817  0.4231
12248TIP3   OH258234   1.447   0.741  10.525 -0.0529 -0.9964  0.7412
12248TIP3    H158235   1.516   0.675  10.527 -0.1704 -1.2102 -0.8359
12248TIP3    H258236   1.365   0.692  10.522 -0.1340 -0.8404 -0.7060
12249TIP3   OH258237   4.413   6.290  12.657  0.4954  0.3918  0.3734
12249TIP3    H158238   4.403   6.385  12.662 -0.7417  0.2136  3.2180
12249TIP3    H258239   4.340   6.261  12.602 -1.8613  0.8579  3.0308
12250TIP3   OH258240   6.508   0.544   3.239 -0.3028 -0.6164  0.3467
12250TIP3    H158241   6.543   0.595   3.312  0.7501  1.1632 -1.3135
12250TIP3    H258242   6.500   0.455   3.274  0.9819 -0.0105  2.3551
12251TIP3   OH258243   2.232   3.805   4.979 -0.2066 -0.5628  0.1398
12251TIP3    H158244   2.254   3.718   5.012 -1.5427 -1.0704 -0.2299
12251TIP3    H258245   2.139   3.815   4.999 -0.7529 -0.3577 -2.2097
12252TIP3   OH258246   0.250   6.512   4.909  0.1921 -0.1879 -0.1666
12252TIP3    H158247   0.167   6.519   4.956 -0.4057 -1.2420 -1.0469
12252TIP3    H258248   0.248   6.584   4.846 -0.9492 -1.3683 -1.5297
12253TIP3   OH258249   0.697   0.998  15.836  0.3472 -0.1910 -0.4166
12253TIP3    H158250   0.714   1.030  15.748  1.3694  0.3786 -0.0309
12253TIP3    H258251   0.616   1.043  15.862  0.1555 -0.2013 -0.9818
12254TIP3   OH258252   2.812   3.255   4.019 -0.1402 -0.1098  0.5888
12254TIP3    H158253   2.784   3.174   4.060 -0.6615 -0.7067 -0.8867
12254TIP3    H258254   2.758   3.323   4.061 -2.0120 -0.9265 -0.3926
12255TIP3   OH258255   0.467   1.336  12.572 -0.3571 -0.1579 -0.3999
12255TIP3    H158256   0.417   1.360  12.650 -0.7427 -1.2341 -0.2962
12255TIP3    H258257   0.548   1.386  12.579 -0.7766  0.4577  0.2116
12256TIP3   OH258258   4.151   5.729  16.136 -0.0864  0.2253 -0.0059
12256TIP3    H158259   4.098   5.711  16.058  0.8254  0.4119 -0.6941
12256TIP3    H258260   4.180   5.820  16.125  0.0692  0.2471  0.5387
12257TIP3   OH258261   4.750   3.564   4.467  0.2184  0.1536  0.3540
12257TIP3    H158262   4.752   3.469   4.473 -1.8091  0.0822  0.9785
12257TIP3    H258263   4.837   3.592   4.494  0.5155 -1.4986  1.2658
12258TIP3   OH258264   1.893   1.416   6.216  0.1211  0.2172 -0.4557
12258TIP3    H158265   1.959   1.410   6.286  0.1765 -2.1813 -0.6304
12258TIP3    H258266   1.809   1.420   6.262  0.1983 -0.5887 -0.2379
12259TIP3   OH258267   4.270   3.874  13.732 -0.7443  0.3836 -0.3283
12259TIP3    H158268   4.276   3.915  13.818 -0.3816  2.3841 -1.2426
12259TIP3    H258269   4.328   3.798  13.737  0.3272  1.2340  0.8052
12260TIP3   OH258270   6.090   1.413   4.009  0.2259  0.4636 -0.9481
12260TIP3    H158271   6.135   1.331   4.030  0.3701  0.9615  0.8225
12260TIP3    H258272   6.079   1.457   4.093  1.6382  3.0560 -1.9966
12261TIP3   OH258273   3.099   4.869   2.726  0.7782 -0.6055 -0.0387
12261TIP3    H158274   3.054   4.885   2.809 -0.5414 -0.4519 -0.7571
12261TIP3    H258275   3.045   4.803   2.682  0.4068  0.6271 -1.5349
12262TIP3   OH258276   6.024   3.886   3.668 -0.1531 -0.1773 -0.3061
12262TIP3    H158277   5.941   3.900   3.622  0.2455 -0.6873 -1.2104
12262TIP3    H258278   6.038   3.967   3.718 -0.8168  0.2158 -0.7441
12263TIP3   OH258279   6.176   0.527  10.955  0.3864  0.3887 -0.2252
12263TIP3    H158280   6.215   0.554  11.038 -0.2266 -0.8956  0.5117
12263TIP3    H258281   6.206   0.592  10.892  1.3973  1.0209  0.8715
12264TIP3   OH258282   1.514   5.002  13.149  0.3642  0.3317 -0.4877
12264TIP3    H158283   1.547   4.916  13.121  2.1091  1.2358 -1.3984
12264TIP3    H258284   1.445   5.023  13.086 -0.6527 -0.7411  0.2381
12265TIP3   OH258285   5.509   0.441   3.500  0.4797 -0.3199  0.2190
12265TIP3    H158286   5.585   0.493   3.526 -0.4330  0.8178  0.6993
12265TIP3    H258287   5.499   0.458   3.406 -0.2264  0.9766  0.5049
12266TIP3   OH258288   4.505   0.964  13.220 -0.2729 -0.1115 -0.0674
12266TIP3    H158289   4.551   1.048  13.220  0.3075 -0.4175 -0.7003
12266TIP3    H258290   4.423   0.981  13.175  0.5953 -0.2615 -1.7697
12267TIP3   OH258291   6.248   5.049   1.066  0.4228  0.2034  0.2319
12267TIP3    H158292   6.275   5.119   1.126  0.4114 -0.0648  0.5505
12267TIP3    H258293   6.153   5.053   1.065  0.4020 -0.1139  0.6215
12268TIP3   OH258294   3.399   5.952  11.020 -0.4435 -0.1158  0.4799
12268TIP3    H158295   3.393   6.045  10.998 -0.8027 -0.4859 -1.1325
12268TIP3    H258296   3.308   5.922  11.023 -0.4157 -0.1437  2.4420
12269TIP3   OH258297   0.669   4.623   3.004 -0.2049  0.9160 -0.1527
12269TIP3    H158298   0.617   4.683   2.950 -0.6361  0.2838 -0.4516
12269TIP3    H258299   0.617   4.543   3.007  1.5255 -0.3696 -1.9131
12270TIP3   OH258300   4.730   3.963   6.281  0.3048 -0.0290  0.0762
12270TIP3    H158301   4.687   3.927   6.359  0.3678 -1.8410 -0.6667
12270TIP3    H258302   4.809   4.006   6.314  0.3166 -0.7582  1.0367
12271TIP3   OH258303   2.627   0.531  11.526 -0.3724  0.2506 -0.2842
12271TIP3    H158304   2.585   0.592  11.465 -0.1569  0.9540  0.2503
12271TIP3    H258305   2.554   0.491  11.573 -0.4927  1.7755  0.9362
12272TIP3   OH258306   5.186   2.757  13.806  0.6764  0.8661  0.6381
12272TIP3    H158307   5.281   2.759  13.822  0.9305 -0.9110 -0.4281
12272TIP3    H258308   5.168   2.668  13.776 -1.3704  1.1309  0.9243
12273TIP3   OH258309   1.501   1.193  13.514  0.9119  0.3719  0.1257
12273TIP3    H158310   1.528   1.112  13.470  1.8569  0.0260  1.3112
12273TIP3    H258311   1.518   1.178  13.606 -1.0753  1.0818  0.6633
12274TIP3   OH258312   4.573   5.697   4.967 -0.1542 -0.4920  0.2381
12274TIP3    H158313   4.562   5.727   5.057 -1.0252  2.5732 -0.7823
12274TIP3    H258314   4.489   5.715   4.925  0.2263 -1.8727 -1.2161
12275TIP3   OH258315   6.070   1.511   4.275 -0.1229 -0.5811  0.0972
12275TIP3    H158316   5.995   1.460   4.308 -0.1251  0.1667  1.3173
12275TIP3    H258317   6.092   1.569   4.347 -0.3934  1.4749 -1.3955
12276TIP3   OH258318   2.021   1.908   5.231 -0.4124  0.4012 -0.4989
12276TIP3    H158319   2.009   1.960   5.152  1.1810  1.9960  0.2234
12276TIP3    H258320   2.114   1.918   5.252 -0.5486 -0.9532  0.9151
12277TIP3   OH258321   1.406   4.744   4.790 -0.0249 -0.0585  0.6323
12277TIP3    H158322   1.462   4.668   4.807 -0.6890 -0.4295  1.1950
12277TIP3    H258323   1.463   4.820   4.806  0.9836 -0.4044 -1.0381
12278TIP3   OH258324   0.237   5.989  11.733  0.4625 -0.1245  0.1834
12278TIP3    H158325   0.238   6.067  11.676 -1.2096 -1.5787 -2.0272
12278TIP3    H258326   0.320   5.993  11.780  1.2564  2.0420 -1.2191
12279TIP3   OH258327   6.744   6.219  12.842  0.3260 -0.6785  0.1961
12279TIP3    H158328   6.813   6.235  12.906  2.9537  0.1180 -2.6469
12279TIP3    H258329   6.687   6.296  12.847  1.2769  0.0010  0.6195
12280TIP3   OH258330   2.258   3.796  10.494  0.0688 -0.9915  0.4569
12280TIP3    H158331   2.351   3.811  10.514  0.3974  0.9395 -2.0045
12280TIP3    H258332   2.213   3.874  10.526 -0.0897 -0.1725 -1.6262
12281TIP3   OH258333   1.588   3.822  15.501 -0.2597 -1.0702 -0.3235
12281TIP3    H158334   1.511   3.823  15.445  0.4804  0.5775 -1.3737
12281TIP3    H258335   1.574   3.894  15.563 -1.0465 -2.8298  1.6627
12282TIP3   OH258336   1.098   1.670   1.069  0.7612 -0.2401  0.5213
12282TIP3    H158337   1.116   1.733   0.999 -0.9985 -2.6285 -2.3236
12282TIP3    H258338   1.093   1.723   1.149 -1.2507  3.3329 -1.7040
12283TIP3   OH258339   5.070   6.284  12.654  0.2162  0.1113 -0.3172
12283TIP3    H158340   5.082   6.356  12.716 -0.3852 -0.0247 -0.0330
12283TIP3    H258341   4.980   6.296  12.622  0.6352  0.4018 -1.4448
12284TIP3   OH258342   3.717   2.870   0.675 -0.2569 -0.0011  0.3153
12284TIP3    H158343   3.666   2.854   0.754  0.3869  2.2586  1.2537
12284TIP3    H258344   3.665   2.831   0.605 -1.1381 -1.5069  1.7516
12285TIP3   OH258345   0.354   6.039   5.999 -0.2485 -0.4346 -0.1398
12285TIP3    H158346   0.346   6.072   5.909  0.1399  0.3825  0.1175
12285TIP3    H258347   0.267   6.005   6.019 -0.2529 -0.9285 -0.9416
12286TIP3   OH258348   6.561   3.615   1.667 -0.1049 -0.4121 -0.1354
12286TIP3    H158349   6.473   3.578   1.655 -0.5379  1.2986 -3.3751
12286TIP3    H258350   6.549   3.685   1.731 -0.8150 -1.0341  0.4299
12287TIP3   OH258351   2.786   1.751   4.134 -0.3388 -0.5259  0.0887
12287TIP3    H158352   2.820   1.828   4.180  0.0042 -0.9502  0.5493
12287TIP3    H258353   2.721   1.787   4.073 -0.2672  0.1160  0.3790
12288TIP3   OH258354   4.505   6.776   4.296 -0.0422  0.1729 -0.3633
12288TIP3    H158355   4.465   6.852   4.337  1.0103 -0.2740  1.6287
12288TIP3    H258356   4.597   6.801   4.281  0.6377 -1.0444  1.4423
12289TIP3   OH258357   2.497   3.511   2.560 -0.2237 -0.3446  0.1945
12289TIP3    H158358   2.475   3.424   2.592  2.1301 -1.6273 -1.3872
12289TIP3    H258359   2.438   3.525   2.485 -0.2293 -0.8364  0.1069
12290TIP3   OH258360   3.210   4.566  15.676 -0.2564 -0.3860 -0.5379
12290TIP3    H158361   3.165   4.550  15.759  0.2884  1.1374  0.0891
12290TIP3    H258362   3.291   4.611  15.701 -1.0467  2.0433 -1.9826
12291TIP3   OH258363   2.369   0.760   6.563  0.4255  0.3173 -0.5077
12291TIP3    H158364   2.430   0.689   6.582  1.1640  0.8023 -1.0227
12291TIP3    H258365   2.312   0.724   6.494  1.5517  0.6065 -1.6276
12292TIP3   OH258366   0.035   0.131   4.739 -0.1810 -0.0329  0.2205
12292TIP3    H158367   0.061   0.200   4.801 -0.2975 -0.4247  0.7163
12292TIP3    H258368   0.115   0.113   4.690 -0.4733  1.3925 -0.8640
12293TIP3   OH258369   5.635   5.572   2.379 -0.6288 -1.3244 -0.4166
12293TIP3    H158370   5.593   5.509   2.437 -0.1067 -0.2582  1.1737
12293TIP3    H258371   5.578   5.649   2.382  0.9036 -0.1909  1.0634
12294TIP3   OH258372   6.221   5.126   1.622  0.3888  0.3188  0.4475
12294TIP3    H158373   6.261   5.051   1.665  1.4273  0.3948 -0.3480
12294TIP3    H258374   6.293   5.170   1.578 -0.7788 -0.5026 -2.4937
12295TIP3   OH258375   3.157   6.200   1.395  0.0310 -0.1008 -0.2965
12295TIP3    H158376   3.247   6.166   1.391 -0.0315 -0.7703  2.2486
12295TIP3    H258377   3.154   6.268   1.328  2.5332  0.1173 -0.2822
12296TIP3   OH258378   6.448   4.103  11.284  0.0945 -0.1979  0.0308
12296TIP3    H158379   6.367   4.072  11.243 -1.1847 -0.3343  2.4816
12296TIP3    H258380   6.427   4.191  11.315  1.1502  0.0589  0.0446
12297TIP3   OH258381   2.255   0.230   2.653 -0.0055  0.2401 -0.2711
12297TIP3    H158382   2.320   0.222   2.583  0.9848 -0.9065  0.7243
12297TIP3    H258383   2.255   0.323   2.675  1.4007  0.2605 -0.2281
12298TIP3   OH258384   1.491   4.762   3.499  0.5529 -0.4195 -0.0548
12298TIP3    H158385   1.504   4.813   3.579  0.3193 -3.6226  2.2295
12298TIP3    H258386   1.414   4.801   3.457 -2.0601 -1.0884  3.6077
12299TIP3   OH258387   1.167   2.087  12.357 -0.7254 -0.2742 -0.1362
12299TIP3    H158388   1.246   2.119  12.400  0.8448 -2.2257 -1.4242
12299TIP3    H258389   1.095   2.128  12.406  1.0257  0.5739  1.8755
12300TIP3   OH258390   3.871   1.351  10.964  0.2546  0.5297  0.5588
12300TIP3    H158391   3.815   1.402  10.906 -0.4115 -0.5749  0.2024
12300TIP3    H258392   3.852   1.260  10.942  1.0967  0.1106  1.4811
12301TIP3   OH258393   5.305   4.883  16.131 -0.1956  0.2341 -0.0004
12301TIP3    H158394   5.302   4.790  16.110 -1.5496  0.4258 -0.7255
12301TIP3    H258395   5.353   4.887  16.214 -1.4458 -1.2611  0.8438
12302TIP3   OH258396   1.021   0.151  12.798  0.7352 -0.3548  0.1289
12302TIP3    H158397   1.058   0.067  12.772 -0.1489 -0.9664  0.7503
12302TIP3    H258398   1.096   0.201  12.832  1.2938 -0.8347 -0.3791
12303TIP3   OH258399   1.845   6.467  11.723 -0.1534  0.4867 -0.0905
12303TIP3    H158400   1.827   6.419  11.642 -0.7650 -0.3571  0.5371
12303TIP3    H258401   1.811   6.555  11.706 -1.3373 -0.0020 -0.3496
12304TIP3   OH258402   4.462   4.352   3.956 -0.4998 -0.2584 -0.5539
12304TIP3    H158403   4.443   4.333   4.048  0.4491 -0.4597 -0.3920
12304TIP3    H258404   4.380   4.387   3.921 -1.0875 -0.8703  0.1788
12305TIP3   OH258405   0.239   6.770   4.058  0.0097  0.4409 -0.5419
12305TIP3    H158406   0.257   6.822   3.979  0.8055  2.2452  0.7716
12305TIP3    H258407   0.267   6.681   4.034  1.3148  1.1676 -1.9273
12306TIP3   OH258408   2.665   1.099  13.884 -0.4581  0.1210  0.0462
12306TIP3    H158409   2.690   1.066  13.970 -0.7110 -0.0570  0.0519
12306TIP3    H258410   2.605   1.034  13.849 -0.8572  0.5037  0.0033
12307TIP3   OH258411   1.335   1.944  16.682  0.4138  1.0506  0.3668
12307TIP3    H158412   1.428   1.929  16.671  0.7013  3.1186 -0.4762
12307TIP3    H258413   1.325   1.969  16.774  0.6393  0.5452  0.5279
12308TIP3   OH258414   2.181   0.819   5.816  0.0542 -0.4015 -0.1958
12308TIP3    H158415   2.164   0.874   5.739 -0.7911  0.7195  0.7534
12308TIP3    H258416   2.096   0.784   5.841  0.2179 -0.2806  0.5693
12309TIP3   OH258417   2.128   2.735  14.893  0.1340 -0.1593  0.1063
12309TIP3    H158418   2.168   2.660  14.937 -0.1437 -0.2321  0.2408
12309TIP3    H258419   2.186   2.754  14.819  0.8438  0.2340  0.7464
12310TIP3   OH258420   2.778   4.099   1.405  0.1638  0.5242  0.1793
12310TIP3    H158421   2.854   4.143   1.443  0.8721 -0.9982  0.6305
12310TIP3    H258422   2.804   4.006   1.402 -1.7091 -0.0475  0.4177
12311TIP3   OH258423   3.749   1.629  17.222 -0.3769 -0.3588 -0.2980
12311TIP3    H158424   3.829   1.582  17.248  0.5574  1.0026 -0.6003
12311TIP3    H258425   3.740   1.610  17.128  0.4519  0.6567 -0.6025
12312TIP3   OH258426   0.741   6.297   3.940  0.0155 -0.4811  0.1621
12312TIP3    H158427   0.780   6.236   3.877  0.0687  1.8115 -2.1691
12312TIP3    H258428   0.678   6.347   3.889  0.0609  1.5033  1.9227
12313TIP3   OH258429   1.463   5.317  15.381  0.2351  0.5687 -0.0580
12313TIP3    H158430   1.529   5.250  15.364  0.1072  0.5596 -0.5290
12313TIP3    H258431   1.441   5.352  15.294 -0.4219  0.5289  0.0890
12314TIP3   OH258432   3.577   3.684   4.731  0.1654  0.8462 -0.4125
12314TIP3    H158433   3.509   3.746   4.756 -0.6759  0.5542 -1.8413
12314TIP3    H258434   3.533   3.622   4.673  1.4316  0.0724 -0.5919
12315TIP3   OH258435   3.134   1.620   3.445  0.3950  0.3990  0.3133
12315TIP3    H158436   3.209   1.588   3.395  0.2914 -0.7632  0.8750
12315TIP3    H258437   3.168   1.695   3.494  0.9211  0.5061 -0.2052
12316TIP3   OH258438   0.022   2.076   3.497 -0.4434 -0.5443  0.0706
12316TIP3    H158439  -0.062   2.086   3.541  0.4303 -0.4838  1.7980
12316TIP3    H258440   0.045   2.165   3.470 -1.5766 -0.7453 -1.7561
12317TIP3   OH258441   6.719   2.743   1.808 -0.6103 -0.7534 -0.1401
12317TIP3    H158442   6.639   2.691   1.820 -0.4498 -0.9033  0.3017
12317TIP3    H258443   6.689   2.825   1.769 -1.3110  0.1784  2.1669
12318TIP3   OH258444   5.474   0.863   4.797  0.0119  0.4917 -0.0084
12318TIP3    H158445   5.388   0.889   4.764 -0.2453 -0.0757  0.1922
12318TIP3    H258446   5.468   0.767   4.805  1.1572  0.2712 -1.4215
12319TIP3   OH258447   3.875   0.724  16.247  0.0273 -0.3276 -0.0092
12319TIP3    H158448   3.905   0.662  16.313  3.4020 -0.3453 -1.3286
12319TIP3    H258449   3.804   0.679  16.202  0.4763 -2.0545  0.9078
12320TIP3   OH258450   1.852   3.565  15.591  0.6758  0.8219 -0.3283
12320TIP3    H158451   1.778   3.594  15.645 -1.2420 -3.0866 -0.5430
12320TIP3    H258452   1.838   3.607  15.507 -0.4014  1.3888  0.1051
12321TIP3   OH258453   0.977   2.008   5.942  0.7079 -0.4026 -0.1362
12321TIP3    H158454   1.050   1.949   5.956  0.7589 -0.2812  0.1074
12321TIP3    H258455   1.007   2.068   5.874  0.9512 -0.1574  0.1857
12322TIP3   OH258456   4.287   4.299  11.789  0.2385 -0.5388 -0.0331
12322TIP3    H158457   4.348   4.251  11.844  0.0624  0.0974  0.7331
12322TIP3    H258458   4.333   4.380  11.766 -0.8925  0.7817  1.9944
12323TIP3   OH258459   2.715   4.010   4.957  0.1828  0.5480  0.0032
12323TIP3    H158460   2.630   3.968   4.943 -0.8410  2.4624  0.0219
12323TIP3    H258461   2.707   4.094   4.912  2.3556  0.4709 -0.5898
12324TIP3   OH258462   5.918   1.875  12.720  0.1607  0.5761 -0.8824
12324TIP3    H158463   5.957   1.961  12.702  2.7896  0.2013  2.0497
12324TIP3    H258464   5.991   1.814  12.707 -0.8172 -0.8225  0.0515
12325TIP3   OH258465   2.262   6.397  15.609 -0.8264  0.2342  0.1792
12325TIP3    H158466   2.265   6.473  15.550  1.1255 -0.3947 -0.6051
12325TIP3    H258467   2.251   6.435  15.696  0.8952  1.5236 -0.1076
12326TIP3   OH258468   5.980   2.929   5.070 -0.5580  0.1829  0.0078
12326TIP3    H158469   6.029   2.918   5.151 -1.0899  2.2199  0.6741
12326TIP3    H258470   5.893   2.956   5.098 -0.6759  1.1561 -1.2288
12327TIP3   OH258471   0.886   1.815  14.795 -0.0783 -0.3873 -0.0199
12327TIP3    H158472   0.952   1.870  14.837 -0.9372  0.6027  0.0510
12327TIP3    H258473   0.802   1.848  14.826 -0.6316 -1.8827  0.2005
12328TIP3   OH258474   6.059   5.634  16.793 -0.8502  0.1008  0.4489
12328TIP3    H158475   6.087   5.570  16.857 -0.7671  0.0656  0.3776
12328TIP3    H258476   6.126   5.630  16.724 -0.9420  0.1319  0.3569
12329TIP3   OH258477   5.477   2.683   4.564  0.2839  0.2468  0.4441
12329TIP3    H158478   5.465   2.634   4.483  1.0457  2.2939 -0.9943
12329TIP3    H258479   5.572   2.686   4.576  0.1879 -2.6794  3.2206
12330TIP3   OH258480   1.692   3.085   2.515 -0.7371  0.2201 -0.2996
12330TIP3    H158481   1.712   3.019   2.448 -1.3444  1.5988 -1.9048
12330TIP3    H258482   1.745   3.161   2.490 -0.5828  0.6072  1.1119
12331TIP3   OH258483   3.047   4.826   1.501 -0.3599 -0.2193  0.2356
12331TIP3    H158484   2.967   4.773   1.499  0.0914 -0.8861 -1.1466
12331TIP3    H258485   3.117   4.763   1.485  0.3179  0.5891  0.0023
12332TIP3   OH258486   2.748   2.799  17.130 -0.0463  0.0507  0.1243
12332TIP3    H158487   2.783   2.775  17.215  0.4936 -3.1010 -0.8805
12332TIP3    H258488   2.679   2.863  17.149 -1.0702 -1.7528  3.0831
12333TIP3   OH258489   4.784   1.157   5.829  0.0400  0.3277  0.2477
12333TIP3    H158490   4.806   1.225   5.766  0.2108 -0.1850 -0.2521
12333TIP3    H258491   4.868   1.131   5.867  0.1130 -0.3488 -0.3433
12334TIP3   OH258492   0.743   2.510  17.259 -0.5440 -0.1351 -0.2148
12334TIP3    H158493   0.781   2.474  17.339 -1.0155 -0.2596 -0.0478
12334TIP3    H258494   0.811   2.498  17.193  0.6574  1.7376  0.5846
12335TIP3   OH258495   5.287   1.301   4.551  0.2029  0.6423 -0.2541
12335TIP3    H158496   5.224   1.280   4.619 -1.3673  1.3072 -1.4345
12335TIP3    H258497   5.316   1.390   4.572 -2.4197  2.0071 -1.8903
12336TIP3   OH258498   2.014   2.910   4.777 -0.0636 -0.1549 -0.4907
12336TIP3    H158499   2.076   2.981   4.790  1.7833 -2.0674  2.0528
12336TIP3    H258500   1.932   2.942   4.815  0.4908  0.9169 -0.1620
12337TIP3   OH258501   5.662   5.947  13.544  0.1057 -0.2707 -0.5953
12337TIP3    H158502   5.730   5.887  13.574  0.9730  0.1459 -1.6520
12337TIP3    H258503   5.628   5.908  13.463 -1.1644 -0.6417  0.0915
12338TIP3   OH258504   1.749   2.244   3.764  0.4087 -0.4075 -0.0014
12338TIP3    H158505   1.674   2.256   3.823  1.4694 -0.1732  1.3453
12338TIP3    H258506   1.764   2.150   3.762 -0.8125 -0.6112 -1.4705
12339TIP3   OH258507   0.780   5.272  15.294  0.2786 -0.1543 -0.0520
12339TIP3    H158508   0.757   5.190  15.251  0.3833 -1.3244  2.0201
12339TIP3    H258509   0.870   5.289  15.266 -0.3517  0.3073 -1.9739
12340TIP3   OH258510   5.150   4.198   3.659 -0.1614 -0.3973  0.1673
12340TIP3    H158511   5.091   4.249   3.604  0.6633  0.2389 -0.1529
12340TIP3    H258512   5.096   4.127   3.693 -1.0649  0.0760 -0.2423
12341TIP3   OH258513   3.560   6.752   2.405  0.2688  0.3410  0.3747
12341TIP3    H158514   3.543   6.689   2.335 -1.9145  0.9416  0.2568
12341TIP3    H258515   3.555   6.837   2.361  0.1881  0.6751  1.0176
12342TIP3   OH258516   5.784   2.472  12.323 -0.9184  0.3407 -0.3561
12342TIP3    H158517   5.815   2.435  12.241 -0.8997  1.2203 -0.7579
12342TIP3    H258518   5.692   2.446  12.328 -1.3374  1.4905 -1.3976
12343TIP3   OH258519   2.925   5.168   1.996 -0.5577  0.0838  0.2891
12343TIP3    H158520   2.908   5.230   1.924 -1.7906 -0.6437 -0.0758
12343TIP3    H258521   2.847   5.172   2.051  1.3324  2.4806  3.0859
12344TIP3   OH258522   1.703   3.194  14.159  0.2469 -0.1264 -0.4056
12344TIP3    H158523   1.728   3.286  14.168 -1.2754  0.4847 -2.0419
12344TIP3    H258524   1.629   3.183  14.219  2.1254 -1.0916  1.9261
12345TIP3   OH258525   5.522   0.901  11.415 -0.5211  0.1244 -0.5796
12345TIP3    H158526   5.456   0.968  11.429 -0.8357 -0.4345  0.7404
12345TIP3    H258527   5.555   0.918  11.327 -1.1293  1.5290 -0.5594
12346TIP3   OH258528   1.963   5.536   5.975 -0.4630 -0.0103 -0.1366
12346TIP3    H158529   1.909   5.500   5.904 -0.9055 -0.8509  0.6140
12346TIP3    H258530   1.935   5.628   5.981 -0.6998 -0.0306 -0.7819
12347TIP3   OH258531   5.350   5.103   1.877  0.6521  0.0533 -0.5081
12347TIP3    H158532   5.369   5.091   1.784  2.3103 -2.0717  0.0273
12347TIP3    H258533   5.403   5.180   1.901  0.3299  0.5296 -1.2568
12348TIP3   OH258534   3.835   4.207   1.847 -0.0799  0.3198 -0.0531
12348TIP3    H158535   3.753   4.228   1.803 -0.5645 -1.4544 -0.0739
12348TIP3    H258536   3.903   4.230   1.783 -0.5988  0.9389 -0.3907
12349TIP3   OH258537   6.370   5.625  16.996 -0.2180  0.0520 -0.6280
12349TIP3    H158538   6.327   5.580  16.923  0.9894  0.1173 -1.4093
12349TIP3    H258539   6.463   5.626  16.972  0.3346 -0.6409  1.2856
12350TIP3   OH258540   5.284   0.207  17.268  0.2027 -0.2856 -0.2214
12350TIP3    H158541   5.365   0.162  17.293  0.3207 -0.6806 -1.2526
12350TIP3    H258542   5.315   0.284  17.219 -0.0347 -0.0018  0.0722
12351TIP3   OH258543   6.613   1.752  11.741 -0.4115 -0.1518  0.1357
12351TIP3    H158544   6.683   1.687  11.735 -1.6591 -1.5117 -0.3159
12351TIP3    H258545   6.537   1.703  11.772 -1.4568  1.0668 -0.3995
12352TIP3   OH258546   2.733   6.333  13.140  0.4854 -0.1518  0.4812
12352TIP3    H158547   2.823   6.359  13.119  0.4164  1.0903  1.5938
12352TIP3    H258548   2.679   6.402  13.102  0.2567  1.1555  3.0070
12353TIP3   OH258549   1.341   4.363  11.302  0.1235  0.4791 -0.2735
12353TIP3    H158550   1.407   4.310  11.348 -0.2641  1.1681  1.1498
12353TIP3    H258551   1.258   4.321  11.324  0.0471 -0.4596 -2.1598
12354TIP3   OH258552   1.445   3.029   0.264  0.1053  0.5390  0.0470
12354TIP3    H158553   1.538   3.027   0.287 -0.1220  1.1580  1.0747
12354TIP3    H258554   1.432   2.948   0.215  1.1418  0.3369  0.0640
12355TIP3   OH258555   2.819   6.678  13.314  0.4684 -0.0373  0.2204
12355TIP3    H158556   2.906   6.646  13.290  0.2169  0.4434 -1.4635
12355TIP3    H258557   2.784   6.716  13.233 -2.0901 -1.9303  0.2994
12356TIP3   OH258558   5.723   3.478  16.731  0.7375  0.6200  0.4602
12356TIP3    H158559   5.805   3.478  16.681  1.6877  0.9420  1.9259
12356TIP3    H258560   5.720   3.391  16.771 -0.1046  0.2980 -0.2861
12357TIP3   OH258561   6.711   4.638   2.054  0.8221 -0.0574  0.0252
12357TIP3    H158562   6.737   4.549   2.033  0.0361 -0.2524 -0.1176
12357TIP3    H258563   6.616   4.639   2.047  0.8804  1.0437 -0.9619
12358TIP3   OH258564   6.617   0.102  10.634  0.0743 -0.5117 -0.6246
12358TIP3    H158565   6.576   0.042  10.572 -1.6881  0.0826 -0.0774
12358TIP3    H258566   6.583   0.076  10.720  0.7625  0.0692 -0.1576
12359TIP3   OH258567   4.497   6.146  15.173 -0.0487  0.5512 -0.3840
12359TIP3    H158568   4.548   6.088  15.117 -0.5748 -0.8386  0.5056
12359TIP3    H258569   4.416   6.162  15.124 -0.6827 -0.9865  0.0676
12360TIP3   OH258570   0.457   4.786   3.775  0.4711 -0.0248  0.2042
12360TIP3    H158571   0.425   4.857   3.718 -0.8123  0.0600  0.9893
12360TIP3    H258572   0.428   4.706   3.731 -2.2560  0.0669  1.6070
12361TIP3   OH258573   3.424   4.670  17.000 -0.4280 -0.2744  0.4228
12361TIP3    H158574   3.435   4.762  16.974 -1.2881 -0.5912 -1.2069
12361TIP3    H258575   3.330   4.663  17.019 -0.0668 -0.4242  2.2715
12362TIP3   OH258576   5.526   0.445   4.630  0.3846  1.3715 -0.2522
12362TIP3    H158577   5.575   0.402   4.701 -1.6979  0.1567  0.5473
12362TIP3    H258578   5.563   0.408   4.550  1.5804  1.4200  0.2419
12363TIP3   OH258579   3.419   2.374   1.398 -0.3031  0.6750  0.2417
12363TIP3    H158580   3.351   2.430   1.436  0.1482  0.8959  0.7357
12363TIP3    H258581   3.497   2.391   1.451  0.2539  0.7280 -0.5736
12364TIP3   OH258582   3.452   6.267  16.312 -0.0661  0.0055 -0.5508
12364TIP3    H158583   3.444   6.362  16.327  2.2971  0.4699 -1.7361
12364TIP3    H258584   3.383   6.229  16.365 -1.5000  2.4310 -0.5245
12365TIP3   OH258585   2.841   2.675  15.417  0.5511 -1.0630  0.2494
12365TIP3    H158586   2.833   2.703  15.509  0.6790 -1.1336  0.2827
12365TIP3    H258587   2.849   2.580  15.422 -3.0674 -1.5203 -0.0303
12366TIP3   OH258588   6.517   2.429  12.900  0.4162  0.2873  0.5007
12366TIP3    H158589   6.594   2.485  12.910  0.6511 -0.1867  1.5049
12366TIP3    H258590   6.453   2.463  12.963  0.4303 -0.3389  0.8631
12367TIP3   OH258591   2.455   0.352   2.987 -0.6140 -0.0755 -0.1848
12367TIP3    H158592   2.542   0.331   3.021 -0.6719 -0.3274 -0.1874
12367TIP3    H258593   2.456   0.447   2.974  0.4022 -0.3318 -2.2788
12368TIP3   OH258594   0.285   0.210  17.079  0.4225 -0.3756  0.4853
12368TIP3    H158595   0.236   0.291  17.089 -1.9506 -1.6073 -0.4607
12368TIP3    H258596   0.227   0.152  17.029  1.9435 -2.7412  1.2739
12369TIP3   OH258597   2.358   4.733   1.448  0.1081 -0.5485 -0.1003
12369TIP3    H158598   2.319   4.669   1.508 -1.0243  0.1281 -0.0818
12369TIP3    H258599   2.401   4.797   1.506 -1.1121  0.1868  0.0288
12370TIP3   OH258600   2.834   0.388   0.550 -0.0465 -0.4416  0.1222
12370TIP3    H158601   2.760   0.439   0.583 -0.8643 -0.4394 -1.5598
12370TIP3    H258602   2.852   0.427   0.464  1.0158 -1.3279 -0.0751
12371TIP3   OH258603   2.900   3.718   2.557  0.2499  0.1085 -0.6125
12371TIP3    H158604   2.942   3.676   2.632  0.5733  1.5725  0.0741
12371TIP3    H258605   2.967   3.777   2.522 -0.1416 -0.0086 -1.5990
12372TIP3   OH258606   6.025   0.461  10.667  0.5058 -0.4271 -0.3641
12372TIP3    H158607   5.961   0.437  10.601  0.2373  1.3028 -0.7781
12372TIP3    H258608   5.983   0.530  10.718  0.1868 -2.5273  2.5180
12373TIP3   OH258609   6.647   5.693  15.213 -0.6538  0.0579  0.1837
12373TIP3    H158610   6.679   5.740  15.289 -1.6944  0.8977  0.1312
12373TIP3    H258611   6.638   5.760  15.145 -0.9420 -0.4466 -0.2862
12374TIP3   OH258612   5.398   3.431   1.111  0.1686 -0.6614  0.1114
12374TIP3    H158613   5.408   3.526   1.104 -0.3652 -0.5218  1.0990
12374TIP3    H258614   5.416   3.412   1.203  2.0002 -1.7462 -0.4207
12375TIP3   OH258615   1.683   2.585  13.563 -0.4434 -0.5690 -0.5027
12375TIP3    H158616   1.665   2.658  13.621  0.6898  0.2357 -1.1195
12375TIP3    H258617   1.777   2.567  13.576 -0.9408 -2.7017  0.5129
12376TIP3   OH258618   6.137   4.177  16.092 -0.1298  0.7241 -0.0592
12376TIP3    H158619   6.054   4.164  16.138  0.4708 -1.4059  0.5223
12376TIP3    H258620   6.201   4.194  16.161  0.2344  0.5481 -0.3459
12377TIP3   OH258621   2.242   1.055  17.209 -0.4755 -0.5874 -0.3721
12377TIP3    H158622   2.242   1.132  17.267  0.5967 -0.5832 -0.3488
12377TIP3    H258623   2.157   1.058  17.165 -1.3190 -0.5818  1.1721
12378TIP3   OH258624   5.285   0.399  16.476 -0.6202 -0.0624  0.3342
12378TIP3    H158625   5.193   0.396  16.501 -0.3584 -0.1934  1.2916
12378TIP3    H258626   5.329   0.340  16.536  0.1585  0.3151  0.1556
12379TIP3   OH258627   1.198   0.571  12.125  0.5022  0.3376  0.1625
12379TIP3    H158628   1.283   0.588  12.166  0.4183 -1.1432  1.0102
12379TIP3    H258629   1.135   0.580  12.197  0.3280 -2.1312  0.4007
12380TIP3   OH258630   6.549   1.646  15.090 -0.1083 -0.1093  0.2021
12380TIP3    H158631   6.501   1.671  15.011 -1.0351 -0.8456  0.5170
12380TIP3    H258632   6.542   1.721  15.148 -1.3211 -0.3897  0.4386
12381TIP3   OH258633   1.256   4.848   3.353  0.4198  0.6374 -0.3640
12381TIP3    H158634   1.249   4.839   3.258 -0.4145  0.4371 -0.2932
12381TIP3    H258635   1.166   4.837   3.384  0.1614  3.7271  0.2134
12382TIP3   OH258636   4.781   4.814  12.845 -0.2264 -0.4263 -0.0667
12382TIP3    H158637   4.699   4.770  12.824 -0.7281  0.6150 -0.3179
12382TIP3    H258638   4.846   4.772  12.789 -0.9294 -0.0118 -1.2236
12383TIP3   OH258639   1.537   6.708  12.305 -0.4895 -0.3103  0.6095
12383TIP3    H158640   1.605   6.644  12.327  0.3482 -0.3857 -1.8311
12383TIP3    H258641   1.465   6.655  12.270 -1.5824 -0.1774  2.5592
12384TIP3   OH258642   2.447   4.120   6.102  0.0875 -0.3340 -0.7365
12384TIP3    H158643   2.413   4.098   6.016 -2.2917 -1.1579  0.3449
12384TIP3    H258644   2.445   4.216   6.104 -1.6228 -0.3314 -0.9689
12385TIP3   OH258645   6.675   0.432   1.013  0.3431  0.4910  0.3872
12385TIP3    H158646   6.606   0.493   1.039  0.5786  0.4672  1.0977
12385TIP3    H258647   6.747   0.489   0.984  0.8927  0.6100  1.8794
12386TIP3   OH258648   2.046   2.203  13.833  0.3094 -0.2518 -0.0784
12386TIP3    H158649   2.083   2.214  13.921  1.0042  0.6400 -0.4587
12386TIP3    H258650   1.989   2.279  13.821  1.1639  0.2995 -0.8315
12387TIP3   OH258651   0.490   5.866   5.118  0.2377  0.3193 -0.0010
12387TIP3    H158652   0.532   5.842   5.035 -0.0223 -0.3846  0.0648
12387TIP3    H258653   0.402   5.894   5.092  0.6898  1.6961 -0.1278
12388TIP3   OH258654   3.078   3.588   3.790 -0.6208 -0.0746  0.3069
12388TIP3    H158655   3.063   3.648   3.717  0.8821 -1.2960 -1.1031
12388TIP3    H258656   3.028   3.509   3.767 -1.1305 -0.0329  1.2318
12389TIP3   OH258657   0.406   1.204   2.362 -0.1221  0.0083  0.0035
12389TIP3    H158658   0.480   1.145   2.369 -0.6904 -0.5424  1.8128
12389TIP3    H258659   0.439   1.289   2.393 -0.8445 -0.8459  3.5107
12390TIP3   OH258660   4.408   4.411  13.385  0.0667  0.3748 -0.2487
12390TIP3    H158661   4.382   4.501  13.406  1.5807  0.6086  0.8280
12390TIP3    H258662   4.442   4.417  13.296  4.2878  1.9721  1.1715
12391TIP3   OH258663   5.938   1.589  13.962 -0.7174  0.1963 -0.7624
12391TIP3    H158664   6.002   1.522  13.937  0.0538  1.1855 -1.4936
12391TIP3    H258665   5.891   1.550  14.036  0.9174 -0.4487 -0.0076
12392TIP3   OH258666   5.812   0.322  17.157 -0.1475  0.0535 -0.0582
12392TIP3    H158667   5.775   0.410  17.166 -0.3784 -0.0953  0.4897
12392TIP3    H258668   5.877   0.331  17.088  0.5511  0.8962  0.6828
12393TIP3   OH258669   2.246   4.131   5.496 -0.7603  0.6104 -0.0829
12393TIP3    H158670   2.339   4.111   5.486 -0.8906  0.4790 -1.1816
12393TIP3    H258671   2.220   4.086   5.576 -0.2797 -0.8750 -0.7178
12394TIP3   OH258672   1.442   4.038   3.094 -0.5004  0.3889 -0.7711
12394TIP3    H158673   1.479   3.953   3.119 -0.5006  0.2747 -1.1595
12394TIP3    H258674   1.349   4.020   3.081 -1.1225  1.0219  1.9773
12395TIP3   OH258675   6.653   5.220  13.570  0.0433 -0.9169 -0.0300
12395TIP3    H158676   6.648   5.158  13.642  1.0407 -0.7703  0.1773
12395TIP3    H258677   6.566   5.260  13.567  0.2546 -0.2163  1.7463
12396TIP3   OH258678   2.371   6.715  10.790  0.1193 -0.1363 -0.3286
12396TIP3    H158679   2.363   6.628  10.830  2.8453 -0.3066  0.0361
12396TIP3    H258680   2.466   6.732  10.788 -0.2446  2.1524 -1.8733
12397TIP3   OH258681   5.050   5.447   0.948 -0.3909 -0.1105  0.0366
12397TIP3    H158682   4.975   5.437   0.890 -0.7320  0.5165  0.3697
12397TIP3    H258683   5.013   5.447   1.036  0.2907 -3.3328  0.4589
12398TIP3   OH258684   3.874   2.646  12.558  0.1748 -0.4771  0.4622
12398TIP3    H158685   3.880   2.608  12.470  0.4166  1.2145 -0.3063
12398TIP3    H258686   3.785   2.681  12.564  0.3451 -0.0575  0.6375
12399TIP3   OH258687   6.558   2.536  14.876 -0.0276 -0.1267  0.3133
12399TIP3    H158688   6.629   2.477  14.851 -0.2190 -0.0321 -0.4618
12399TIP3    H258689   6.499   2.538  14.801  0.4904  1.8527 -0.1174
12400TIP3   OH258690   4.088   4.850   5.389  0.0991  0.0185 -0.2539
12400TIP3    H158691   4.139   4.771   5.371 -0.5839 -0.9579  1.7952
12400TIP3    H258692   3.999   4.818   5.402 -0.0341  0.9640  1.5049
12401TIP3   OH258693   0.902   3.397  13.060  0.2633  0.2851 -0.1892
12401TIP3    H158694   0.842   3.385  13.134 -4.0128 -0.1893 -3.3606
12401TIP3    H258695   0.906   3.312  13.018 -0.5072  1.3334 -2.5342
12402TIP3   OH258696   3.862   1.023  12.717 -0.0131  0.2054 -0.1758
12402TIP3    H158697   3.827   0.985  12.797 -0.2331 -1.0582 -0.8456
12402TIP3    H258698   3.905   1.103  12.745  1.4006 -1.0538  1.4619
12403TIP3   OH258699   1.743   1.579   5.288 -0.1157 -0.4649  0.3096
12403TIP3    H158700   1.808   1.566   5.219 -0.5029  0.4294 -0.2463
12403TIP3    H258701   1.690   1.500   5.286 -1.2844  0.2763 -1.7169
12404TIP3   OH258702   5.284   1.873  14.486  0.4336  0.0901  0.1107
12404TIP3    H158703   5.350   1.817  14.527 -0.6206 -1.2107  0.0681
12404TIP3    H258704   5.330   1.912  14.411  1.5991  0.4364  0.9846
12405TIP3   OH258705   2.010   4.360   4.910 -0.0254 -0.4703 -0.4225
12405TIP3    H158706   2.089   4.317   4.876 -0.6023 -1.2502 -0.8111
12405TIP3    H258707   2.017   4.350   5.005 -0.1830 -1.5192 -0.5020
12406TIP3   OH258708   6.178   6.379   4.872 -0.4331  0.2821 -0.2037
12406TIP3    H158709   6.131   6.376   4.788 -2.3424  0.5373  0.8001
12406TIP3    H258710   6.160   6.466   4.906 -0.6772 -0.2205  1.0016
12407TIP3   OH258711   3.880   0.126   0.823  0.2432  0.0384 -0.0603
12407TIP3    H158712   3.806   0.161   0.873 -0.2780  0.0893 -0.8430
12407TIP3    H258713   3.845   0.113   0.735  1.5311  1.2943 -0.7921
12408TIP3   OH258714   5.338   5.548   6.793 -0.7595  0.2013  0.5225
12408TIP3    H158715   5.328   5.639   6.821 -1.0875  0.2094  0.3816
12408TIP3    H258716   5.406   5.550   6.726 -0.6497  0.3161  0.6355
12409TIP3   OH258717   2.679   4.587   0.580 -0.4435  0.3653 -0.4052
12409TIP3    H158718   2.607   4.643   0.551  0.3013  0.8081 -1.4820
12409TIP3    H258719   2.638   4.520   0.634 -1.7059  0.4035 -1.2769
12410TIP3   OH258720   4.556   1.439   5.692  0.6351 -0.2482  0.2777
12410TIP3    H158721   4.530   1.529   5.677  2.7163 -0.0242 -2.8884
12410TIP3    H258722   4.599   1.440   5.778 -1.0626  1.2848  1.1794
12411TIP3   OH258723   2.365   5.372  12.644 -0.1707 -0.7569 -0.6277
12411TIP3    H158724   2.346   5.395  12.553  1.9331  2.2832 -0.4815
12411TIP3    H258725   2.343   5.451  12.694 -0.4868 -2.0560  1.4051
12412TIP3   OH258726   5.451   5.265  12.163  0.2269 -0.0741  0.0804
12412TIP3    H158727   5.384   5.269  12.095 -0.3882  1.1261  0.7164
12412TIP3    H258728   5.419   5.202  12.227  0.9073 -1.3649 -0.8228
12413TIP3   OH258729   2.447   2.660  13.075  0.1937 -0.3205 -0.1898
12413TIP3    H158730   2.474   2.623  13.159 -0.3879 -0.6235 -0.1289
12413TIP3    H258731   2.505   2.734  13.061 -0.3272  0.3244  0.9416
12414TIP3   OH258732   2.393   6.189   4.896 -0.0037 -0.5158 -0.4747
12414TIP3    H158733   2.458   6.133   4.940 -0.7899 -2.0168 -1.1289
12414TIP3    H258734   2.320   6.194   4.959  1.2104  2.3597  0.8833
12415TIP3   OH258735   1.187   4.673   5.945  0.5561 -0.5099 -0.2853
12415TIP3    H158736   1.241   4.743   5.982  0.5198  0.2778 -1.6477
12415TIP3    H258737   1.142   4.714   5.871 -1.9524 -1.1395  0.8152
12416TIP3   OH258738   4.732   0.798  15.139  0.9182  0.3060 -0.1737
12416TIP3    H158739   4.675   0.732  15.177 -0.0278  0.0181 -1.9641
12416TIP3    H258740   4.816   0.787  15.183  0.2304 -0.7883  0.9080
12417TIP3   OH258741   3.026   3.906   4.711 -0.1119  0.2639 -0.1465
12417TIP3    H158742   3.011   3.838   4.777  1.3376  1.5665  1.6215
12417TIP3    H258743   3.062   3.980   4.760  2.2958  0.8401 -2.5483
12418TIP3   OH258744   0.986   1.023  12.961  0.2923  0.5833  0.1438
12418TIP3    H158745   0.989   0.930  12.983 -0.1371  0.1402 -1.5302
12418TIP3    H258746   0.896   1.037  12.930  0.4384  1.4847  0.1128
12419TIP3   OH258747   5.377   5.667   5.324 -0.9358 -0.3067 -0.1453
12419TIP3    H158748   5.325   5.589   5.307  0.2264 -0.6322 -2.8285
12419TIP3    H258749   5.467   5.635   5.335 -0.6119  0.5433 -0.1965
12420TIP3   OH258750   4.089   0.779  13.839  0.4580 -0.3501  0.5466
12420TIP3    H158751   4.091   0.683  13.849 -2.0422 -0.7185 -1.3700
12420TIP3    H258752   3.996   0.801  13.841  0.9776  2.0645  0.8612
12421TIP3   OH258753   0.607   6.001   6.316  0.1103  0.5254 -0.2851
12421TIP3    H158754   0.651   5.919   6.337 -1.5111 -0.0199  1.2435
12421TIP3    H258755   0.677   6.066   6.316  1.0262 -0.4005  1.3993
12422TIP3   OH258756   2.226   6.692   5.784  0.9553  1.3698 -0.5485
12422TIP3    H158757   2.138   6.662   5.760  1.4744  0.1548 -0.9902
12422TIP3    H258758   2.215   6.731   5.871  0.0719  0.7973 -0.3918
12423TIP3   OH258759   2.706   5.798   0.371  0.0880  0.1012  0.0617
12423TIP3    H158760   2.718   5.713   0.329  0.8352  1.0238 -1.7007
12423TIP3    H258761   2.619   5.794   0.411 -0.3423 -1.0875 -0.9680
12424TIP3   OH258762   4.981   4.530   0.408 -0.1458 -0.3250 -0.4556
12424TIP3    H158763   5.071   4.503   0.425 -0.5968 -0.8049  1.4626
12424TIP3    H258764   4.929   4.453   0.432 -1.1053  0.2244 -0.7459
12425TIP3   OH258765   3.241   0.014  14.062 -0.3888  0.2491  0.4654
12425TIP3    H158766   3.171   0.033  13.999 -1.1671 -1.9350  0.5969
12425TIP3    H258767   3.261  -0.078  14.049  1.9545  0.6180  0.9951
12426TIP3   OH258768   4.088   5.764   1.214 -0.0443  0.2922 -0.0413
12426TIP3    H158769   4.126   5.747   1.300  1.5575 -0.9768 -0.9481
12426TIP3    H258770   3.996   5.741   1.224  0.1077  0.1934  1.3424
12427TIP3   OH258771   2.003   6.719   3.368  0.1163  0.0748  0.2431
12427TIP3    H158772   2.087   6.749   3.334  0.9469 -0.5020  1.6975
12427TIP3    H258773   1.989   6.633   3.327  0.3720  0.0576  0.1944
12428TIP3   OH258774   5.049   0.039  17.093 -0.2945 -0.0836 -0.5897
12428TIP3    H158775   4.976  -0.007  17.134  0.6676 -1.5186 -0.4058
12428TIP3    H258776   5.115   0.047  17.162 -0.9288  2.8574 -0.2243
12429TIP3   OH258777   2.182   6.529   4.158  0.1064 -0.0221 -0.8457
12429TIP3    H158778   2.215   6.537   4.069  0.2350  2.1298 -0.6616
12429TIP3    H258779   2.224   6.601   4.206  0.8431 -1.7030  1.2279
12430TIP3   OH258780   3.769   4.760  10.672  0.1038  0.0549  0.1568
12430TIP3    H158781   3.771   4.845  10.628 -0.1554 -0.0686 -0.0975
12430TIP3    H258782   3.856   4.750  10.711 -0.3407  1.1255  1.5019
12431TIP3   OH258783   3.493   3.006   4.341 -0.0770 -0.5194 -0.3304
12431TIP3    H158784   3.533   3.035   4.258  0.0458 -2.0792 -0.8401
12431TIP3    H258785   3.565   2.969   4.391 -0.0373  0.9508  0.7650
12432TIP3   OH258786   5.175   3.587   5.812 -0.3660  0.1661  0.1462
12432TIP3    H158787   5.266   3.597   5.784 -0.0015 -0.8971  0.8791
12432TIP3    H258788   5.178   3.516   5.876 -1.8537 -0.4803 -0.4742
12433TIP3   OH258789   4.913   3.471  12.238 -0.1188 -0.2200  0.7493
12433TIP3    H158790   4.849   3.539  12.258 -0.6792 -0.4682 -0.1290
12433TIP3    H258791   4.865   3.389  12.246  0.2821 -0.4529  0.8055
12434TIP3   OH258792   0.316   0.056   1.411 -0.0505 -0.0372  0.2885
12434TIP3    H158793   0.278   0.076   1.496  0.2516  1.0192  0.1781
12434TIP3    H258794   0.243   0.064   1.349  0.4309  2.7672 -0.0352
12435TIP3   OH258795   2.325   1.733  13.382  0.3696 -0.3129  0.1700
12435TIP3    H158796   2.314   1.825  13.356  1.6406 -0.1715  0.0220
12435TIP3    H258797   2.367   1.692  13.306  0.0527 -0.9537  0.3383
12436TIP3   OH258798   0.419   3.963   5.273  0.3412  0.1973 -0.2433
12436TIP3    H158799   0.505   3.966   5.231  0.5273 -2.2139 -0.1576
12436TIP3    H258800   0.364   3.914   5.211 -0.7425  0.9357  0.1059
12437TIP3   OH258801   5.096   2.741  11.977 -0.0246 -0.0748  0.2461
12437TIP3    H158802   5.150   2.670  11.943 -0.7716 -0.4618 -0.1591
12437TIP3    H258803   5.076   2.795  11.900 -0.5395 -0.1605  0.3154
12438TIP3   OH258804   0.610   1.865  14.591  0.3026 -0.1981 -0.6843
12438TIP3    H158805   0.533   1.917  14.616 -0.2688  0.5960 -3.5796
12438TIP3    H258806   0.579   1.774  14.591 -0.4907  0.0612 -1.2413
12439TIP3   OH258807   0.039   5.787  14.968  0.1566 -0.1959 -0.3730
12439TIP3    H158808   0.061   5.819  14.880  1.3112  1.2217  0.3809
12439TIP3    H258809   0.088   5.706  14.977  0.3609 -0.1345 -0.8720
12440TIP3   OH258810   1.424   0.675   4.277  0.5123  0.1560 -0.0836
12440TIP3    H158811   1.474   0.600   4.245  1.0072  0.2910  0.3482
12440TIP3    H258812   1.344   0.676   4.224  0.6998 -0.4167 -0.3818
12441TIP3   OH258813   0.551   4.339   5.254  0.4552 -0.4471  0.1105
12441TIP3    H158814   0.578   4.312   5.341  0.9402  1.0297  0.4461
12441TIP3    H258815   0.634   4.358   5.208  0.1562  0.8393  0.0506
12442TIP3   OH258816   6.381   6.696  14.963  0.3484 -0.6991 -0.2608
12442TIP3    H158817   6.369   6.623  14.902  3.5372 -0.4369 -1.4205
12442TIP3    H258818   6.462   6.675  15.010 -0.2853  0.6849  1.5688
12443TIP3   OH258819   4.677   1.116   2.222  0.1964  0.5354  0.1796
12443TIP3    H158820   4.601   1.174   2.230 -1.0010 -0.9605  0.1143
12443TIP3    H258821   4.644   1.040   2.176  1.7706 -0.1483  0.1237
12444TIP3   OH258822   3.062   0.060  12.257  1.1679  0.8192 -0.2054
12444TIP3    H158823   3.102   0.030  12.339 -0.3236  0.8119  0.5504
12444TIP3    H258824   3.025   0.146  12.279 -1.1857 -0.1353 -0.2085
12445TIP3   OH258825   5.234   5.915   0.356  0.1716 -0.0587 -0.2560
12445TIP3    H158826   5.218   5.821   0.362 -0.7925  0.1871  1.8080
12445TIP3    H258827   5.275   5.938   0.440  0.1557  1.4154 -0.6165
12446TIP3   OH258828   0.360   4.570  11.488  0.2533 -0.5528  0.2984
12446TIP3    H158829   0.412   4.562  11.408 -1.1436 -0.5013 -0.6376
12446TIP3    H258830   0.366   4.484  11.529  1.8322 -0.2774  0.7045
12447TIP3   OH258831   4.784   4.882   2.397 -0.7819 -0.1355  0.2731
12447TIP3    H158832   4.806   4.882   2.303 -2.8230  0.9602 -0.2672
12447TIP3    H258833   4.785   4.975   2.421  1.7865 -0.4901  1.9353
12448TIP3   OH258834   2.044   3.975  13.870 -0.0927  0.0337  0.1437
12448TIP3    H158835   2.137   3.973  13.850  0.0251  0.5577  0.5930
12448TIP3    H258836   2.017   4.064  13.847 -0.2293  0.2387  1.0662
12449TIP3   OH258837   5.027   2.443   5.278  0.2655  0.5738  0.0578
12449TIP3    H158838   5.015   2.521   5.225 -0.1292  0.2858 -0.2843
12449TIP3    H258839   4.982   2.462   5.360 -2.6652 -0.4665 -1.1754
12450TIP3   OH258840   6.450   6.008   2.519  0.3691  0.0446 -0.0534
12450TIP3    H158841   6.440   5.919   2.487 -0.8240  0.2283 -0.2204
12450TIP3    H258842   6.390   6.060   2.465  0.0464  0.7312  0.9405
12451TIP3   OH258843   3.898   4.565   4.541  0.4390  0.1142 -0.4868
12451TIP3    H158844   3.965   4.630   4.519  0.1656  0.3266 -0.7085
12451TIP3    H258845   3.889   4.570   4.636  0.3599  0.4629 -0.5121
12452TIP3   OH258846   5.493   3.925   6.608 -0.0467 -0.0056 -0.3314
12452TIP3    H158847   5.553   3.852   6.621  0.4279  0.2568 -0.9444
12452TIP3    H258848   5.409   3.894   6.641  0.9577  0.5692  3.1085
12453TIP3   OH258849   1.378   4.004   0.496  0.2234  0.4040  0.4497
12453TIP3    H158850   1.360   4.037   0.584 -0.9551 -0.4458  0.5480
12453TIP3    H258851   1.393   3.910   0.507 -0.1216  0.2517 -0.2825
12454TIP3   OH258852   0.465   0.057   4.604  0.0324 -0.5897 -0.5743
12454TIP3    H158853   0.518   0.133   4.580  1.1422 -1.9024 -2.5013
12454TIP3    H258854   0.527  -0.016   4.607 -1.0885 -1.5466  0.7244
12455TIP3   OH258855   4.833   5.191   0.554  0.6723 -0.3046  0.3268
12455TIP3    H158856   4.818   5.214   0.645 -1.6227 -1.1134  0.2208
12455TIP3    H258857   4.875   5.105   0.557 -0.7657 -1.0230  0.6516
12456TIP3   OH258858   5.178   5.983   1.804 -0.4576 -0.1566  0.3359
12456TIP3    H158859   5.204   6.063   1.758 -0.1579 -1.5045 -2.0034
12456TIP3    H258860   5.231   5.983   1.884  0.2714  1.4910 -0.1019
12457TIP3   OH258861   5.675   4.155  11.571 -0.1926 -0.2540 -0.0405
12457TIP3    H158862   5.634   4.207  11.641  2.3901  1.0350  0.6718
12457TIP3    H258863   5.713   4.221  11.513  0.2213 -1.3610 -1.0495
12458TIP3   OH258864   6.490   5.503  15.309  0.9361  0.2648  0.0576
12458TIP3    H158865   6.538   5.584  15.291 -0.7133  1.0420 -1.1177
12458TIP3    H258866   6.558   5.435  15.308  2.4716  1.6706  1.8392
12459TIP3   OH258867   1.942   5.456   2.820  0.2546 -0.2951  0.2018
12459TIP3    H158868   1.900   5.476   2.737 -1.2487  0.4956  1.1300
12459TIP3    H258869   1.924   5.531   2.876 -2.1566 -2.4007  2.5057
12460TIP3   OH258870   3.091   0.719   4.768 -0.2880 -0.0639 -0.2373
12460TIP3    H158871   3.055   0.708   4.856 -0.1067  0.6231 -0.0801
12460TIP3    H258872   3.185   0.711   4.779 -0.0638  2.2872  0.0065
12461TIP3   OH258873   3.305   1.771   5.555 -0.0126  0.1574  0.1712
12461TIP3    H158874   3.316   1.697   5.615 -0.4328  0.5927  0.7927
12461TIP3    H258875   3.392   1.782   5.515  0.5036  0.3717  1.3025
12462TIP3   OH258876   2.034   2.947   5.581  0.0839 -0.3310 -0.0303
12462TIP3    H158877   2.008   2.978   5.494 -0.3815  1.6686  0.7547
12462TIP3    H258878   2.099   3.010   5.611  0.1976 -0.9429  1.0977
12463TIP3   OH258879   0.312   4.739  16.834 -0.5763 -0.2161 -0.1778
12463TIP3    H158880   0.311   4.746  16.738 -0.2189  0.3778 -0.1393
12463TIP3    H258881   0.230   4.779  16.861 -1.6910 -2.2406 -0.3357
12464TIP3   OH258882   3.820   4.826   1.311  0.1495 -0.4376 -0.3410
12464TIP3    H158883   3.802   4.842   1.219 -1.2947 -0.9361 -0.1702
12464TIP3    H258884   3.812   4.912   1.353  0.3822 -0.2834 -0.6153
12465TIP3   OH258885   1.453   0.347  12.356  0.2995  0.7357 -0.0454
12465TIP3    H158886   1.505   0.289  12.411 -1.1499  0.3286  0.9449
12465TIP3    H258887   1.363   0.335  12.386 -0.4122  1.2690 -1.8431
12466TIP3   OH258888   3.466   1.385   0.551  0.0831 -0.0802  0.0793
12466TIP3    H158889   3.481   1.478   0.571  2.5315 -0.4993  0.4615
12466TIP3    H258890   3.509   1.372   0.467 -1.8121 -0.5346 -0.8918
12467TIP3   OH258891   3.119   6.205  11.944 -0.5436 -0.1882  0.4452
12467TIP3    H158892   3.137   6.293  11.977 -0.3687 -0.1647  0.2883
12467TIP3    H258893   3.203   6.160  11.950  0.2157  0.6521 -2.5740
12468TIP3   OH258894   2.058   2.522   5.252 -0.4198 -0.3121  0.1691
12468TIP3    H158895   1.988   2.565   5.203  0.8143  1.3755 -0.1954
12468TIP3    H258896   2.069   2.576   5.330  0.8112 -0.2590 -0.0308
12469TIP3   OH258897   3.882   5.804  12.546 -0.1898  0.4390 -0.2497
12469TIP3    H158898   3.850   5.737  12.484 -0.5961  0.8236 -0.4629
12469TIP3    H258899   3.873   5.763  12.632  0.3173 -0.0790 -0.4383
12470TIP3   OH258900   1.909   0.791  12.670 -0.1329 -0.1375  0.0270
12470TIP3    H158901   1.947   0.729  12.607  1.4079 -0.9478  1.6692
12470TIP3    H258902   1.814   0.786  12.653  0.0741 -1.7837 -0.9216
12471TIP3   OH258903   2.781   2.948   1.864 -0.3004  0.2023 -0.3425
12471TIP3    H158904   2.783   3.021   1.926 -2.3053  0.9698 -1.0824
12471TIP3    H258905   2.813   2.873   1.914  0.8812  1.3711  0.7250
12472TIP3   OH258906   1.601   5.321   2.986 -0.1709 -0.0632  1.2381
12472TIP3    H158907   1.506   5.328   2.981 -0.1732  1.6234 -5.1831
12472TIP3    H258908   1.629   5.404   3.024 -1.4417  1.9521 -1.8434
12473TIP3   OH258909   5.705   0.882   2.215  0.7978 -0.2886 -0.5293
12473TIP3    H158910   5.709   0.806   2.157  1.9544 -1.5034  1.0370
12473TIP3    H258911   5.793   0.887   2.254 -0.5488 -1.2359  3.1013
12474TIP3   OH258912   1.780   1.152  10.988 -0.0959 -0.0885  0.0322
12474TIP3    H158913   1.697   1.182  10.952  0.3007  1.4029  0.2933
12474TIP3    H258914   1.841   1.159  10.914 -0.0948 -0.7212 -0.0301
12475TIP3   OH258915   3.578   6.022   4.811 -0.3914 -0.5368 -0.7281
12475TIP3    H158916   3.556   5.960   4.880  0.8314  0.6982  0.8407
12475TIP3    H258917   3.673   6.033   4.817 -0.5505  1.3287 -1.0463
12476TIP3   OH258918   5.349   5.570  17.198 -0.0042  0.8526 -0.4975
12476TIP3    H158919   5.403   5.545  17.273 -0.4712 -1.7719 -0.9519
12476TIP3    H258920   5.259   5.561  17.230 -0.2664 -2.1193 -1.7847
12477TIP3   OH258921   4.926   0.184  11.726 -0.2268 -0.0898  0.2578
12477TIP3    H158922   4.953   0.216  11.640  1.6566  1.3096  1.3125
12477TIP3    H258923   5.005   0.185  11.779 -1.5010 -0.1278  2.2693
12478TIP3   OH258924   4.254   1.358  12.498  0.4864 -0.0269  0.6202
12478TIP3    H158925   4.225   1.433  12.446 -0.5204  0.3887  1.7460
12478TIP3    H258926   4.258   1.391  12.588  1.0141 -1.0606  0.9901
12479TIP3   OH258927   3.528   4.373  16.244  0.0413 -0.0889 -0.4629
12479TIP3    H158928   3.463   4.305  16.226 -1.8085  1.9061 -1.8505
12479TIP3    H258929   3.528   4.427  16.165  3.6961 -0.1386 -0.6776
12480TIP3   OH258930   6.369   3.580   5.342  0.2295  0.4413 -0.3255
12480TIP3    H158931   6.376   3.585   5.246  1.8059  1.7542 -0.1832
12480TIP3    H258932   6.434   3.642   5.374  0.6331 -0.8884  1.6250
12481TIP3   OH258933   6.289   1.790   5.151 -0.6605  0.7607  0.1601
12481TIP3    H158934   6.246   1.712   5.187  0.6052 -0.2868 -0.5285
12481TIP3    H258935   6.317   1.839   5.228 -0.3777 -0.0931  0.6143
12482TIP3   OH258936   1.347   2.671  15.757 -0.0715 -0.0139 -0.5130
12482TIP3    H158937   1.316   2.619  15.832  0.0723 -0.6481 -0.8832
12482TIP3    H258938   1.287   2.649  15.686 -1.0754  1.6746 -0.2215
12483TIP3   OH258939   3.457   1.012   3.333  0.2191 -0.0315 -0.2027
12483TIP3    H158940   3.423   1.078   3.272 -2.4448 -1.4924 -0.4591
12483TIP3    H258941   3.428   1.043   3.419  0.9393  0.2582 -0.0591
12484TIP3   OH258942   2.092   6.644   5.384 -0.1580 -0.3714  0.7796
12484TIP3    H158943   2.004   6.680   5.388  0.1548  0.4331  0.7525
12484TIP3    H258944   2.103   6.616   5.293 -0.7223 -1.3920  1.0116
12485TIP3   OH258945   6.443   1.276  16.871  0.0400  0.2594  0.1101
12485TIP3    H158946   6.427   1.370  16.865 -0.3603  0.1928  0.1075
12485TIP3    H258947   6.361   1.240  16.904  1.0816  0.2581  3.0537
12486TIP3   OH258948   3.057   4.237   5.319 -0.0605  1.1430  0.4221
12486TIP3    H158949   2.967   4.218   5.293 -0.2078  1.0179  1.0126
12486TIP3    H258950   3.094   4.151   5.342  0.7968  0.9156 -1.5745
12487TIP3   OH258951   1.117   1.970   4.074 -0.1680  0.3190 -0.7399
12487TIP3    H158952   1.121   2.035   4.004 -1.5456  0.4413 -0.7269
12487TIP3    H258953   1.170   1.897   4.042  3.1802  2.1849  0.1225
12488TIP3   OH258954   1.694   1.682  15.993 -0.7584  0.5767 -0.1844
12488TIP3    H158955   1.664   1.724  16.074 -1.1490  0.1461 -0.1061
12488TIP3    H258956   1.623   1.696  15.930 -1.5505 -1.2313  0.2618
12489TIP3   OH258957   0.930   3.913   2.231 -0.5944 -0.6172 -0.3801
12489TIP3    H158958   0.996   3.976   2.202 -1.5120 -0.1508 -1.5250
12489TIP3    H258959   0.856   3.927   2.172 -2.1702 -0.3643  1.5837
12490TIP3   OH258960   4.521   6.378   4.663  0.0477 -0.1978 -0.0235
12490TIP3    H158961   4.556   6.300   4.705  0.0468 -0.8051 -1.1033
12490TIP3    H258962   4.596   6.437   4.655  0.2220 -0.3985  0.1270
12491TIP3   OH258963   5.834   2.498   3.381  0.0554  0.1392  0.1063
12491TIP3    H158964   5.880   2.471   3.460 -0.5495  1.1925  0.8501
12491TIP3    H258965   5.899   2.491   3.311  1.0681  0.7069  0.9703
12492TIP3   OH258966   0.754   5.612  12.108  0.2419 -0.2958 -0.1457
12492TIP3    H158967   0.690   5.541  12.094  0.3735 -0.4428 -0.0102
12492TIP3    H258968   0.711   5.671  12.170 -0.9574  1.1341 -2.2131
12493TIP3   OH258969   5.322   4.981   6.259  0.0802 -0.2491 -0.4549
12493TIP3    H158970   5.379   5.053   6.286  2.1075 -2.2163  0.9184
12493TIP3    H258971   5.306   4.997   6.166  0.9259  1.6646 -0.3249
12494TIP3   OH258972   2.836   2.822   0.254 -0.0401  0.2777  0.0137
12494TIP3    H158973   2.831   2.913   0.285  0.9365  0.0408  0.9313
12494TIP3    H258974   2.917   2.788   0.293 -1.3325 -1.5663  1.2518
12495TIP3   OH258975   6.794   3.605   0.736  0.5830  0.0396 -0.1429
12495TIP3    H158976   6.887   3.581   0.746 -0.1007 -2.9901  0.0608
12495TIP3    H258977   6.759   3.540   0.675 -1.7354  0.1014  1.0081
12496TIP3   OH258978   0.172   0.822   2.691 -0.5480  0.5919 -0.2934
12496TIP3    H158979   0.174   0.797   2.599  2.0316  1.5692 -0.5760
12496TIP3    H258980   0.137   0.912   2.691  1.2995  1.3485 -0.5879
12497TIP3   OH258981   2.477   6.387  11.127 -0.0010 -0.1024  0.7159
12497TIP3    H158982   2.480   6.314  11.189 -1.3921  0.0490  0.9892
12497TIP3    H258983   2.403   6.367  11.070  0.3587  0.4982  0.0289
12498TIP3   OH258984   3.316   0.001  16.131 -0.3789 -0.2678  0.3070
12498TIP3    H158985   3.251   0.058  16.173 -0.0834 -0.7232  1.4115
12498TIP3    H258986   3.395   0.054  16.126  0.5382 -1.1717  3.2687
12499TIP3   OH258987   3.039   6.494   2.490 -0.4005  0.2230 -0.2565
12499TIP3    H158988   3.052   6.401   2.503  2.3480  0.4359 -0.8859
12499TIP3    H258989   3.069   6.511   2.401  1.0521  1.9790  0.4915
12500TIP3   OH258990   6.047   0.055  16.886 -0.4472 -0.0058  0.1302
12500TIP3    H158991   6.132   0.020  16.859 -0.4253 -0.6784  1.0157
12500TIP3    H258992   5.983  -0.007  16.852 -0.6865  0.9644 -1.3139
12501TIP3   OH258993   1.198   3.263  14.740 -0.2234  0.1486 -0.1653
12501TIP3    H158994   1.159   3.286  14.824  1.2012  0.8897  0.3170
12501TIP3    H258995   1.274   3.209  14.763 -0.7329 -0.9927 -1.0655
12502TIP3   OH258996   5.767   3.901   5.770  0.8074  0.3159 -0.0680
12502TIP3    H158997   5.698   3.967   5.760  1.6851  1.2184 -0.2803
12502TIP3    H258998   5.747   3.835   5.703 -0.1488  0.2804  0.2312
12503TIP3   OH258999   2.941   4.758   5.626  0.3849  0.4048 -0.1241
12503TIP3    H159000   3.011   4.782   5.565  0.1069  1.6271  0.0145
12503TIP3    H259001   2.863   4.749   5.572  0.3634  0.3811 -0.0896
12504TIP3   OH259002   2.279   0.231  13.320  0.4441  0.6068  0.4105
12504TIP3    H159003   2.316   0.161  13.375 -1.8094 -0.2321  0.9865
12504TIP3    H259004   2.309   0.312  13.361  1.5909 -0.0015  0.8300
12505TIP3   OH259005   1.233   4.160  16.517 -0.6550 -0.0354  0.3532
12505TIP3    H159006   1.166   4.207  16.468 -0.4723  1.5312  1.5174
12505TIP3    H259007   1.190   4.135  16.599 -0.5425 -1.3295  0.0401
12506TIP3   OH259008   1.578   2.562   0.556 -0.3087 -0.3623 -0.0213
12506TIP3    H159009   1.516   2.528   0.621 -1.2118 -0.2179 -0.7766
12506TIP3    H259010   1.543   2.531   0.472  1.2159 -1.1394 -0.4077
12507TIP3   OH259011   4.665   5.266   2.670 -0.4164  0.3493 -0.3233
12507TIP3    H159012   4.754   5.274   2.635 -1.1948  2.1120 -2.1224
12507TIP3    H259013   4.674   5.282   2.764  1.1382  0.6445 -0.4982
12508TIP3   OH259014   4.778   3.026   5.075  0.0172  0.3571 -0.6391
12508TIP3    H159015   4.729   2.952   5.112  1.2794 -0.8431 -1.2611
12508TIP3    H259016   4.832   3.056   5.148 -1.1393  1.2761 -0.1313
12509TIP3   OH259017   6.559   0.784   5.092  0.3657  0.8088 -0.2905
12509TIP3    H159018   6.555   0.818   5.002 -0.4738  0.5765 -0.3428
12509TIP3    H259019   6.529   0.856   5.146  0.0089  0.6497 -0.2750
12510TIP3   OH259020   1.733   1.187  12.886 -0.1822 -0.4233 -0.1110
12510TIP3    H159021   1.740   1.274  12.847  0.5524  0.4617  1.8634
12510TIP3    H259022   1.764   1.128  12.818 -1.8870  0.6800 -1.9754
12511TIP3   OH259023   1.579   4.678   0.025 -0.7808 -0.3662 -0.6900
12511TIP3    H159024   1.639   4.751   0.039 -1.0343 -0.2869  0.0251
12511TIP3    H259025   1.493   4.719   0.016 -0.9932 -0.6040  0.2064
12512TIP3   OH259026   4.845   4.403   5.865 -0.3112  0.4551  0.2454
12512TIP3    H159027   4.779   4.383   5.799 -0.4007  0.0471  0.4571
12512TIP3    H259028   4.890   4.320   5.880 -0.0167  0.6405  0.3965
12513TIP3   OH259029   4.181   5.470  15.333 -0.1544  0.4887 -0.2497
12513TIP3    H159030   4.202   5.553  15.290 -0.5685  1.2810  1.0399
12513TIP3    H259031   4.233   5.405  15.285  0.0881  1.4567 -1.3553
12514TIP3   OH259032   4.910   4.476   1.959  0.3688 -0.0188  0.1110
12514TIP3    H159033   4.952   4.408   1.906 -0.0211 -1.6757  1.8614
12514TIP3    H259034   4.817   4.469   1.937  0.3357  0.0004  0.2460
12515TIP3   OH259035   0.453   5.165   3.521  0.0751 -0.2186 -1.1194
12515TIP3    H159036   0.415   5.151   3.608  0.0897  0.6600 -0.9607
12515TIP3    H259037   0.545   5.138   3.530 -0.3172 -1.7207 -1.3273
12516TIP3   OH259038   6.150   6.188   6.646 -0.0900  0.1431  0.1470
12516TIP3    H159039   6.213   6.136   6.595 -0.6442 -0.3424 -0.0524
12516TIP3    H259040   6.118   6.254   6.584 -0.6507 -0.3529 -0.1070
12517TIP3   OH259041   6.027   4.706  12.431 -0.1940 -0.6863  0.1353
12517TIP3    H159042   6.119   4.727  12.448 -0.7561  1.8119  0.4361
12517TIP3    H259043   6.030   4.640  12.361  1.8164  0.2993 -0.7835
12518TIP3   OH259044   4.406   2.667   0.130 -0.2553 -0.2267 -1.0137
12518TIP3    H159045   4.448   2.603   0.187 -2.0700 -0.1626  0.4807
12518TIP3    H259046   4.479   2.706   0.081  1.5923  0.5417  2.0661
12519TIP3   OH259047   2.718   0.949   3.667 -0.0862 -0.0529  0.2209
12519TIP3    H159048   2.685   0.996   3.744  1.2279  0.0746  0.7331
12519TIP3    H259049   2.717   0.857   3.694 -1.4688 -0.2142 -0.3288
12520TIP3   OH259050   3.465   6.015   4.272 -0.0043 -0.1358 -0.4938
12520TIP3    H159051   3.460   6.008   4.368  0.3689 -0.6569 -0.5101
12520TIP3    H259052   3.487   5.927   4.243 -1.0223 -0.1977 -1.1315
12521TIP3   OH259053   2.305   0.510   1.762  0.4705  0.1019  0.1157
12521TIP3    H159054   2.227   0.466   1.796  0.3076  0.8160  0.6944
12521TIP3    H259055   2.280   0.538   1.674 -0.0080  0.5150  0.3771
12522TIP3   OH259056   1.332   5.530  16.419 -0.0159 -0.2808 -0.1479
12522TIP3    H159057   1.294   5.496  16.338  1.2061 -0.2913 -0.7362
12522TIP3    H259058   1.421   5.494  16.420  0.1429  0.1207  0.9581
12523TIP3   OH259059   5.171   4.627   1.154  0.3577  0.3187  0.1309
12523TIP3    H159060   5.098   4.644   1.213 -0.1547 -2.2444  0.3635
12523TIP3    H259061   5.155   4.683   1.079  0.3672  2.7771  1.8416
12524TIP3   OH259062   5.815   2.545   6.117  0.2997 -0.3563  0.0398
12524TIP3    H159063   5.840   2.549   6.210  1.6105  0.9269 -0.3309
12524TIP3    H259064   5.787   2.634   6.096  0.0682 -0.6229 -0.8114
12525TIP3   OH259065   0.988   4.853  12.122  0.0197 -0.1228 -0.5447
12525TIP3    H159066   1.078   4.885  12.115 -0.1787  0.4317 -0.6476
12525TIP3    H259067   0.994   4.759  12.107  0.7092 -0.2483  0.4011
12526TIP3   OH259068   6.197   4.811   0.006  0.4793 -0.2078 -0.0541
12526TIP3    H159069   6.174   4.872   0.076  3.0242 -1.3919  1.9899
12526TIP3    H259070   6.113   4.784  -0.031 -0.8568  2.0407  1.1352
12527TIP3   OH259071   1.515   0.395  11.486 -0.3046 -0.1770 -0.6034
12527TIP3    H159072   1.555   0.451  11.552  1.1307  0.1940 -1.7210
12527TIP3    H259073   1.429   0.373  11.520 -0.4644  1.8121  0.3502
12528TIP3   OH259074   0.431   6.777  12.054 -0.1249 -0.1381 -0.4342
12528TIP3    H159075   0.349   6.728  12.045 -0.8234  1.0654 -0.8307
12528TIP3    H259076   0.408   6.851  12.110  0.3192  1.0266 -1.7538
12529TIP3   OH259077   6.263   3.808  11.127 -0.1651 -0.3201 -0.4079
12529TIP3    H159078   6.242   3.896  11.095  1.8243  0.5378  0.4743
12529TIP3    H259079   6.340   3.782  11.076  0.3194 -0.7955  0.5460
12530TIP3   OH259080   0.304   1.529  12.323 -0.3935 -0.2168 -0.4089
12530TIP3    H159081   0.276   1.522  12.415 -0.9906  1.5952 -0.4185
12530TIP3    H259082   0.269   1.613  12.294  0.0941 -0.6075 -2.2103
12531TIP3   OH259083   1.890   2.707   1.310  0.0281  0.7836  0.1517
12531TIP3    H159084   1.843   2.741   1.386  0.4420 -4.4971  3.2680
12531TIP3    H259085   1.827   2.649   1.268  1.4155 -0.5297 -0.2036
12532TIP3   OH259086   4.100   4.255   2.450 -0.1474  0.1793  0.1719
12532TIP3    H159087   4.182   4.223   2.489 -0.4141  0.8717  1.3582
12532TIP3    H259088   4.120   4.344   2.423 -0.8138  0.7993  1.5953
12533TIP3   OH259089   0.900   6.410  15.244  0.5972  0.6718 -0.4592
12533TIP3    H159090   0.945   6.325  15.243 -2.2178 -0.9835 -0.3485
12533TIP3    H259091   0.835   6.401  15.314 -1.1901  2.0644 -1.8277
12534TIP3   OH259092   1.937   3.834  16.826 -0.1376 -0.9292  0.2490
12534TIP3    H159093   1.927   3.860  16.735  0.7826 -0.5144  0.2511
12534TIP3    H259094   1.935   3.917  16.875  0.8529 -1.0026  0.4462
12535TIP3   OH259095   5.449   3.310  12.573  0.2583  0.7167  0.1853
12535TIP3    H159096   5.470   3.395  12.610 -0.0062  1.0991 -0.5365
12535TIP3    H259097   5.353   3.308  12.569  0.2967  0.9298 -1.0461
12536TIP3   OH259098   4.200   0.478   4.534 -0.0584  0.6816 -0.5428
12536TIP3    H159099   4.129   0.517   4.585 -0.0278 -0.2444  0.2322
12536TIP3    H259100   4.173   0.387   4.520  0.0714  0.8306 -1.9465
12537TIP3   OH259101   1.569   4.504   4.791 -0.4211 -0.1973  1.2839
12537TIP3    H159102   1.646   4.525   4.844  0.0449 -0.9715  0.9323
12537TIP3    H259103   1.592   4.531   4.702 -0.8549  0.2795  1.3157
12538TIP3   OH259104   1.103   3.724  16.449  0.1230 -0.0065  0.6816
12538TIP3    H159105   1.024   3.731  16.504 -1.4870  2.0249 -1.6961
12538TIP3    H259106   1.073   3.682  16.369  1.1709  1.7622 -0.7038
12539TIP3   OH259107   5.502   5.414  10.773  0.1855  0.5492 -0.6452
12539TIP3    H159108   5.444   5.361  10.719 -2.1814 -0.9965  3.0061
12539TIP3    H259109   5.588   5.372  10.764 -0.2604 -0.0633 -2.5450
12540TIP3   OH259110   1.583   5.403   5.166 -0.0896  0.5371 -0.2177
12540TIP3    H159111   1.494   5.435   5.181 -1.0884 -1.8128 -0.7566
12540TIP3    H259112   1.604   5.431   5.077 -0.9776 -0.3171 -0.7133
12541TIP3   OH259113   5.641   4.443   3.213 -0.4716  0.1065 -0.2500
12541TIP3    H159114   5.729   4.479   3.227 -0.5518 -0.2093  1.1728
12541TIP3    H259115   5.655   4.349   3.203 -0.5135  0.2196 -1.5352
12542TIP3   OH259116   5.371   4.196  14.588  0.2932  0.1851  0.3990
12542TIP3    H159117   5.453   4.231  14.553 -0.6018  0.5102 -1.4732
12542TIP3    H259118   5.356   4.246  14.668  0.8688  1.5905 -0.3424
12543TIP3   OH259119   0.224   4.948   2.296 -0.1184 -0.4385 -0.3528
12543TIP3    H159120   0.167   4.920   2.226 -1.6253 -1.0618  1.0643
12543TIP3    H259121   0.312   4.926   2.265 -0.4188  1.6635 -3.1061
12544TIP3   OH259122   0.178   5.514  12.801 -0.1880  0.3339  0.5931
12544TIP3    H159123   0.223   5.429  12.806 -1.3411 -0.3732 -0.5169
12544TIP3    H259124   0.157   5.524  12.709  1.6077  2.7661  0.3451
12545TIP3   OH259125   1.192   4.002   6.701  0.1143  0.3389  0.2829
12545TIP3    H159126   1.218   3.938   6.634  1.0126  0.3552  0.6124
12545TIP3    H259127   1.261   4.068   6.699 -0.8274  1.3472 -0.0879
12546TIP3   OH259128   4.561   2.977  15.990  0.0715 -0.7321  0.0523
12546TIP3    H159129   4.648   2.993  16.027 -0.0954  0.8296 -0.1605
12546TIP3    H259130   4.504   3.039  16.035 -1.0537 -2.0521  0.5238
12547TIP3   OH259131   2.750   3.385   1.911 -0.6304 -0.1145 -0.0171
12547TIP3    H159132   2.845   3.381   1.927 -0.7902  2.0497  2.0617
12547TIP3    H259133   2.714   3.316   1.966 -0.2901 -0.9667 -0.8375
12548TIP3   OH259134   1.511   0.616   5.251  0.1857  0.6864  0.6412
12548TIP3    H159135   1.484   0.533   5.211  1.6531  0.7963 -0.6785
12548TIP3    H259136   1.433   0.671   5.248 -0.2253  0.0789 -0.4536
12549TIP3   OH259137   4.547   3.812   5.756  0.1764 -0.0712  0.7509
12549TIP3    H159138   4.524   3.760   5.833  0.9721 -3.3147 -0.9821
12549TIP3    H259139   4.463   3.828   5.713 -0.0252 -0.7333  0.8749
12550TIP3   OH259140   6.617   5.593  13.434  0.2671 -0.1601 -0.3294
12550TIP3    H159141   6.683   5.573  13.501 -0.7095 -0.7807  0.4790
12550TIP3    H259142   6.533   5.581  13.479 -0.4163  1.7235 -1.0058
12551TIP3   OH259143   1.087   1.998  14.898 -0.1838  0.5830  0.0723
12551TIP3    H159144   1.062   2.076  14.949 -1.4196  1.2556 -1.4993
12551TIP3    H259145   1.181   2.009  14.882  0.0092  0.8761  1.2883
12552TIP3   OH259146   3.237   5.227  12.233 -0.0462  0.4231 -0.1278
12552TIP3    H159147   3.245   5.280  12.154 -0.0855  1.0795  0.3010
12552TIP3    H259148   3.145   5.201  12.236  0.3519 -1.3383 -1.3786
12553TIP3   OH259149   0.820   2.924   4.906  0.1948 -0.1662 -0.0048
12553TIP3    H159150   0.830   2.976   4.826 -0.5595 -0.9821 -0.6511
12553TIP3    H259151   0.886   2.856   4.899 -0.1272 -0.4708 -0.1357
12554TIP3   OH259152   6.517   3.141   1.591 -0.3752  0.3451  0.1478
12554TIP3    H159153   6.608   3.170   1.601  0.4076 -0.0420 -4.0914
12554TIP3    H259154   6.471   3.218   1.556 -0.9449 -0.3384 -0.6418
12555TIP3   OH259155   5.591   4.494   6.327  0.2974  0.6169 -0.2425
12555TIP3    H159156   5.540   4.566   6.363  2.1949  1.8625  0.0790
12555TIP3    H259157   5.628   4.529   6.246  0.7695 -0.1967 -0.3923
12556TIP3   OH259158   4.135   6.529   5.387  0.3206  0.1786 -0.3718
12556TIP3    H159159   4.044   6.519   5.414  1.0661  0.1114  2.4326
12556TIP3    H259160   4.136   6.502   5.295 -2.6411  1.2095 -0.8107
12557TIP3   OH259161   6.222   4.064  16.538  0.2844 -0.1642 -0.3753
12557TIP3    H159162   6.224   4.007  16.461  1.3047 -0.8332  0.1211
12557TIP3    H259163   6.182   4.145  16.507  2.7593  0.4510 -2.2354
12558TIP3   OH259164   6.286   5.100  15.782 -0.5406 -0.1436  0.0344
12558TIP3    H159165   6.375   5.122  15.756 -1.1909  4.6099  0.9466
12558TIP3    H259166   6.292   5.079  15.875 -0.4554  1.6369  0.4632
12559TIP3   OH259167   6.286   4.330   1.470 -0.3338 -0.0375  0.1684
12559TIP3    H159168   6.208   4.279   1.449 -0.9839  0.8896  0.2386
12559TIP3    H259169   6.359   4.273   1.447 -1.0279 -0.5740 -0.8026
12560TIP3   OH259170   0.042   0.003   1.344 -0.4498  0.5321 -0.6072
12560TIP3    H159171  -0.007   0.038   1.419  0.3728  1.0378 -0.2968
12560TIP3    H259172   0.084  -0.076   1.378  0.0915  0.8753 -0.4743
12561TIP3   OH259173   1.235   0.971   4.109  0.6031 -0.5873 -0.1605
12561TIP3    H159174   1.192   0.885   4.112  1.4414 -0.9695  1.2173
12561TIP3    H259175   1.266   0.986   4.198 -0.1334  1.4801 -0.1986
12562TIP3   OH259176   5.099   3.014  13.762 -0.0236  0.2368 -0.2224
12562TIP3    H159177   5.028   3.049  13.816 -1.0892  0.0769 -1.4636
12562TIP3    H259178   5.110   2.924  13.792 -1.1856 -0.1184 -0.7948
12563TIP3   OH259179   6.068   4.758   4.937  0.0850 -0.4744  0.4708
12563TIP3    H159180   6.046   4.685   4.879  1.3070 -0.0011 -0.6577
12563TIP3    H259181   6.003   4.825   4.917 -1.6674 -1.5451  2.2324
12564TIP3   OH259182   5.833   0.231   1.196  0.0791  0.2555 -0.4041
12564TIP3    H159183   5.815   0.141   1.224  0.0670  0.7563  1.2783
12564TIP3    H259184   5.928   0.233   1.184  0.1856  0.2517  0.4164
12565TIP3   OH259185   6.676   3.795   2.367  0.0002  0.5053  0.0759
12565TIP3    H159186   6.766   3.788   2.398  0.6605  0.8097 -1.6528
12565TIP3    H259187   6.683   3.794   2.271 -1.9903 -1.4003 -0.1407
12566TIP3   OH259188   5.022   4.566  11.453 -0.4846  0.3047 -0.4957
12566TIP3    H159189   5.112   4.558  11.483 -1.0145 -0.6913  1.0008
12566TIP3    H259190   5.006   4.486  11.403 -0.7581  0.0765 -0.0561
12567TIP3   OH259191   3.845   2.190   4.528 -0.0300 -0.3322  0.1151
12567TIP3    H159192   3.786   2.255   4.488  1.7527  0.0612 -2.0595
12567TIP3    H259193   3.797   2.108   4.521 -1.3053  0.3229  0.6564
12568TIP3   OH259194   5.054   6.609  12.661  0.4029  0.3422 -0.0959
12568TIP3    H159195   4.980   6.640  12.713  0.4473  0.6429 -0.2134
12568TIP3    H259196   5.131   6.622  12.717  0.2901 -0.6582  0.3225
12569TIP3   OH259197   0.681   3.216  13.601  0.2616 -0.7247  0.6726
12569TIP3    H159198   0.648   3.133  13.635  1.2836 -0.4775  2.4609
12569TIP3    H259199   0.718   3.259  13.678 -0.1210  1.3389 -0.2396
12570TIP3   OH259200   1.442   4.563  15.779 -0.0521  0.4326  0.3892
12570TIP3    H159201   1.402   4.602  15.701  0.1513 -2.6110 -1.4060
12570TIP3    H259202   1.367   4.537  15.833 -0.2548  0.9731  0.3767
12571TIP3   OH259203   0.731   6.115  16.098 -0.0900  0.4019 -0.0184
12571TIP3    H159204   0.818   6.092  16.065  0.6136  1.7234  0.8170
12571TIP3    H259205   0.695   6.033  16.129  1.7023  0.0857  1.4554
12572TIP3   OH259206   5.046   2.815   2.249  0.3523  0.5392  0.3436
12572TIP3    H159207   5.063   2.747   2.315 -2.3109  1.0078  1.6646
12572TIP3    H259208   4.980   2.777   2.192  0.6316  1.1603 -0.4083
12573TIP3   OH259209   0.521   2.375   1.909  0.3835 -0.1140  0.4528
12573TIP3    H159210   0.604   2.334   1.932  0.5948 -0.3886 -0.7278
12573TIP3    H259211   0.479   2.314   1.849 -0.7513 -0.0426  1.1414
12574TIP3   OH259212   3.596   3.000   4.065  0.1159 -0.5637 -0.1883
12574TIP3    H159213   3.594   3.021   3.971 -1.5388 -0.3032 -0.1357
12574TIP3    H259214   3.532   2.929   4.074 -1.4339  0.8934  1.0258
12575TIP3   OH259215   6.571   0.061  17.083 -0.2720 -0.1708 -0.2689
12575TIP3    H159216   6.635   0.131  17.092  0.1508 -0.7770  2.2935
12575TIP3    H259217   6.487   0.106  17.076 -0.0175  0.6571  1.4680
12576TIP3   OH259218   2.210   5.468   3.038 -0.4757  0.3749 -0.2189
12576TIP3    H159219   2.163   5.392   3.003 -0.2826  0.2609 -0.2289
12576TIP3    H259220   2.298   5.462   3.000 -0.2551  0.2359  0.3057
12577TIP3   OH259221   0.999   0.974  13.502 -0.2734 -0.2757  0.3111
12577TIP3    H159222   1.076   1.028  13.486  0.6185 -1.9228 -1.3189
12577TIP3    H259223   0.926   1.026  13.470  0.3417  0.6635  0.4027
12578TIP3   OH259224   4.045   3.235   5.308  0.0724  0.1863  0.5774
12578TIP3    H159225   4.083   3.152   5.335  0.7245 -0.3208 -1.6877
12578TIP3    H259226   4.037   3.285   5.389  2.6452 -0.8705  1.6054
12579TIP3   OH259227   3.414   6.207  14.811  0.3191  0.0300  0.4541
12579TIP3    H159228   3.463   6.288  14.823 -1.2181  0.9566  0.8617
12579TIP3    H259229   3.390   6.207  14.718 -1.8806  1.4559  0.9310
12580TIP3   OH259230   0.370   6.057  13.251 -0.2203 -0.6328  0.7502
12580TIP3    H159231   0.437   6.038  13.316  2.7495  2.8634 -0.9348
12580TIP3    H259232   0.313   6.122  13.292  1.4400  1.2989  0.1417
12581TIP3   OH259233   2.355   1.330   1.460 -0.1724  0.1292  0.0146
12581TIP3    H159234   2.334   1.422   1.477  1.3592  0.4824  0.1497
12581TIP3    H259235   2.362   1.291   1.547  0.4903  0.2053 -0.0032
12582TIP3   OH259236   0.740   5.766  14.369  0.1655  0.1609 -0.0249
12582TIP3    H159237   0.812   5.702  14.371  1.3296  1.3815 -0.8244
12582TIP3    H259238   0.663   5.714  14.346  1.1456 -0.9018 -1.0798
12583TIP3   OH259239   4.636   3.856   1.820 -0.0902 -0.2071 -0.2689
12583TIP3    H159240   4.620   3.902   1.903 -2.6322 -1.5641  0.0709
12583TIP3    H259241   4.617   3.765   1.839  2.8679 -1.1945 -1.4686
12584TIP3   OH259242   6.019   6.593  14.212  0.2992 -0.0982  0.0376
12584TIP3    H159243   5.993   6.571  14.301  0.8856  0.7474  0.4295
12584TIP3    H259244   5.938   6.627  14.172  0.3841  1.0321  0.7600
12585TIP3   OH259245   5.209   5.651   0.478 -0.4572  0.2086 -0.4769
12585TIP3    H159246   5.243   5.564   0.458 -1.1929 -0.3212  0.5020
12585TIP3    H259247   5.118   5.636   0.504  0.0332  0.9543  1.9138
12586TIP3   OH259248   2.437   2.701   6.516  0.2529 -0.2613  0.4427
12586TIP3    H159249   2.431   2.709   6.611  0.8634 -2.1704  0.6867
12586TIP3    H259250   2.450   2.608   6.500  2.4915  0.2612 -1.3922
12587TIP3   OH259251   2.289   3.421  12.054  1.0380 -0.2215 -0.0940
12587TIP3    H159252   2.247   3.498  12.016  1.8063  0.6968  0.8585
12587TIP3    H259253   2.273   3.430  12.148 -0.6758 -2.3374 -0.0913
12588TIP3   OH259254   4.047   2.978   3.035 -0.3740 -0.8558  0.9788
12588TIP3    H159255   4.137   3.009   3.039 -0.4471 -0.6294  0.8467
12588TIP3    H259256   4.000   3.030   3.100 -1.1569  1.4977 -1.3062
12589TIP3   OH259257   6.044   2.959  14.701  0.6109  0.4367 -0.2925
12589TIP3    H159258   6.010   2.872  14.683  0.3237  0.2079  1.2078
12589TIP3    H259259   6.087   2.986  14.620  0.1978 -0.8560 -0.9593
12590TIP3   OH259260   1.916   6.477   3.227 -0.3389  0.7102 -0.0624
12590TIP3    H159261   1.963   6.397   3.205  0.1559  0.6063  1.3042
12590TIP3    H259262   1.882   6.462   3.315 -1.0616  1.6397 -0.1638
12591TIP3   OH259263   4.389   4.722   1.625  0.0834  0.4908 -0.4337
12591TIP3    H159264   4.476   4.744   1.592 -0.1431 -0.7026 -1.9320
12591TIP3    H259265   4.340   4.804   1.621  0.8926  0.9915 -0.3349
12592TIP3   OH259266   6.391   5.320  13.844  0.4439  0.4231 -0.6579
12592TIP3    H159267   6.412   5.229  13.822 -0.5783  0.1216 -0.4378
12592TIP3    H259268   6.415   5.328  13.936 -0.3434  0.0855 -0.4128
12593TIP3   OH259269   1.775   6.336   0.099  0.0242 -0.4628 -0.3578
12593TIP3    H159270   1.756   6.256   0.148 -1.3372 -0.1407 -0.3135
12593TIP3    H259271   1.689   6.371   0.075  0.4825  1.8768  1.0502
12594TIP3   OH259272   3.281   5.327  14.638  0.2499 -0.4681 -0.0174
12594TIP3    H159273   3.295   5.232  14.637 -0.7542 -0.6269 -0.6468
12594TIP3    H259274   3.299   5.355  14.549 -2.9237 -0.6565 -0.8209
12595TIP3   OH259275   1.381   2.516   3.848  0.3461  0.0433 -0.5322
12595TIP3    H159276   1.440   2.515   3.772 -0.7105  2.0165 -1.4548
12595TIP3    H259277   1.380   2.426   3.878  2.5056 -0.3856 -1.5078
12596TIP3   OH259278   5.772   4.893  11.922  0.1253 -0.6188  0.3045
12596TIP3    H159279   5.757   4.827  11.990 -0.1210 -1.9911 -1.0163
12596TIP3    H259280   5.746   4.976  11.962 -1.1612 -1.5431  1.4694
12597TIP3   OH259281   6.705   5.075   2.777  0.1196 -0.6451  0.6971
12597TIP3    H159282   6.745   5.110   2.698 -1.4993 -1.6523 -0.6304
12597TIP3    H259283   6.774   5.079   2.843  0.9212  2.0900 -0.1850
12598TIP3   OH259284   5.487   1.946  16.336 -0.0794 -0.0261  0.0636
12598TIP3    H159285   5.547   1.999  16.284 -0.2488  0.6213  0.5282
12598TIP3    H259286   5.437   2.009  16.388 -1.8401 -0.4487 -1.0179
12599TIP3   OH259287   4.032   5.473   3.937  0.6823  0.6959 -0.2432
12599TIP3    H159288   4.125   5.483   3.916  0.8078  0.1892  0.0608
12599TIP3    H259289   3.999   5.414   3.869  0.8437 -0.0559  0.3215
12600TIP3   OH259290   3.282   2.539   5.968  1.0231 -0.2964 -0.6198
12600TIP3    H159291   3.328   2.523   6.051 -0.4955 -0.6540  0.1830
12600TIP3    H259292   3.191   2.555   5.993  1.2065  3.9326 -1.8171
12601TIP3   OH259293   0.221   1.077  16.128  0.1291 -0.1280 -0.1990
12601TIP3    H159294   0.230   1.028  16.210 -0.5042  0.3806  0.1884
12601TIP3    H259295   0.188   1.163  16.155 -0.4091 -0.0641 -1.0157
12602TIP3   OH259296   3.523   1.704   0.036  0.0854 -0.4289  0.2081
12602TIP3    H159297   3.430   1.726   0.050  0.0875  0.0434 -0.4920
12602TIP3    H259298   3.560   1.700   0.125 -0.3649  0.4442  0.4462
12603TIP3   OH259299   5.990   5.104  10.715  0.3194 -0.2326  0.2079
12603TIP3    H159300   5.938   5.053  10.653 -0.0403 -0.0025  0.3139
12603TIP3    H259301   5.999   5.190  10.674  0.5346 -0.2416  0.2338
12604TIP3   OH259302   0.429   0.281   4.196  0.1769 -0.4119 -0.3950
12604TIP3    H159303   0.371   0.286   4.119 -0.4483 -0.4927  0.0658
12604TIP3    H259304   0.512   0.318   4.165 -0.4536  0.7767 -0.7543
12605TIP3   OH259305   0.051   3.240   3.449 -0.0156  0.2271  0.2285
12605TIP3    H159306   0.136   3.226   3.492  0.2081  1.0672  0.0799
12605TIP3    H259307   0.073   3.254   3.357 -0.3617 -0.0594  0.1023
12606TIP3   OH259308   2.744   6.268   0.160 -0.0042 -0.2200  0.4265
12606TIP3    H159309   2.719   6.180   0.187 -1.1474 -0.1758 -0.4001
12606TIP3    H259310   2.693   6.325   0.219  0.1897 -0.1106  0.4890
12607TIP3   OH259311   0.490   2.700   6.254  0.0121  0.0919  0.1163
12607TIP3    H159312   0.564   2.704   6.315  0.5472 -1.0191 -0.4293
12607TIP3    H259313   0.467   2.607   6.250 -0.2126  0.1897 -1.1367
12608TIP3   OH259314   4.829   2.452   0.662 -0.0392 -0.0733  0.2108
12608TIP3    H159315   4.842   2.392   0.735 -1.0987  0.3710  0.7811
12608TIP3    H259316   4.737   2.478   0.668  0.3262  1.3911 -0.1823
12609TIP3   OH259317   1.765   3.354  17.286  0.4175 -0.0723  0.0052
12609TIP3    H159318   1.808   3.367  17.370 -1.5751  0.8160  0.9689
12609TIP3    H259319   1.700   3.286  17.303 -0.0601  0.1737 -0.7924
12610TIP3   OH259320   3.792   6.274   4.005  0.9817 -0.0280  0.1906
12610TIP3    H159321   3.773   6.229   4.088 -0.4431 -0.0676 -0.1342
12610TIP3    H259322   3.719   6.250   3.948  2.3899 -0.7385 -1.4005
12611TIP3   OH259323   2.494   2.566  11.916 -0.3259 -0.6008 -0.5947
12611TIP3    H159324   2.525   2.599  12.001  0.1927 -1.1425 -0.5660
12611TIP3    H259325   2.433   2.632  11.885  0.8627  0.5010 -0.6489
12612TIP3   OH259326   5.850   6.215   0.030  0.4849  0.3419 -0.0258
12612TIP3    H159327   5.874   6.302   0.062 -0.5690  0.4862  0.4033
12612TIP3    H259328   5.762   6.201   0.063 -0.2638  0.0649 -2.0264
12613TIP3   OH259329   1.883   2.639  12.540 -0.4272  0.0220 -0.4426
12613TIP3    H159330   1.801   2.687  12.555 -0.5931 -0.2829 -0.3694
12613TIP3    H259331   1.946   2.682  12.597 -0.6178  0.0413 -0.2448
12614TIP3   OH259332   6.678   5.526  16.258 -0.3921  0.7086 -0.0448
12614TIP3    H159333   6.594   5.562  16.288 -0.8436 -0.7191  0.4542
12614TIP3    H259334   6.698   5.575  16.178 -2.2143  0.3683 -0.7471
12615TIP3   OH259335   4.748   3.059  15.371  0.0813 -0.0395  0.0627
12615TIP3    H159336   4.790   3.069  15.286  0.1279 -0.0360  0.0860
12615TIP3    H259337   4.805   3.106  15.432 -0.0338  0.0896  0.0722
12616TIP3   OH259338   1.024   3.408   5.682 -0.9907 -0.1118  0.2574
12616TIP3    H159339   1.002   3.485   5.735 -1.0380  0.4463 -0.5659
12616TIP3    H259340   0.940   3.367   5.663 -1.1201  0.5572 -0.6780
12617TIP3   OH259341   5.805   2.811  13.483 -0.3149  0.2611  0.8722
12617TIP3    H159342   5.869   2.814  13.412 -0.2405 -0.6205  0.8946
12617TIP3    H259343   5.808   2.899  13.521 -1.1654  1.1072 -0.9084
12618TIP3   OH259344   6.282   0.178  16.194 -0.1026  0.3723 -0.4946
12618TIP3    H159345   6.229   0.245  16.238 -1.0492  0.3833 -1.5962
12618TIP3    H259346   6.352   0.159  16.256 -1.7124 -0.0630  1.2890
12619TIP3   OH259347   3.028   5.451  11.472 -0.5195 -0.2203  0.1804
12619TIP3    H159348   3.104   5.483  11.520 -0.8905  1.9943 -0.5604
12619TIP3    H259349   3.054   5.460  11.380 -1.0147 -1.2110 -0.0601
12620TIP3   OH259350   3.945   4.918   0.025  0.0757  0.1208 -0.0584
12620TIP3    H159351   4.027   4.962   0.001 -0.1631  0.4099 -0.3573
12620TIP3    H259352   3.908   4.972   0.094  1.7585 -1.7896  2.5257
12621TIP3   OH259353   2.921   5.258  15.774 -0.3533  0.0499 -0.0950
12621TIP3    H159354   2.996   5.255  15.833 -0.1557  0.2826 -0.3338
12621TIP3    H259355   2.940   5.192  15.707 -0.4046  0.0412 -0.1007
12622TIP3   OH259356   6.579   5.743   5.181  0.4453 -0.8436 -0.4075
12622TIP3    H159357   6.654   5.766   5.125  0.2592  1.4421  0.1788
12622TIP3    H259358   6.587   5.802   5.257 -2.1340 -0.2417 -0.5084
12623TIP3   OH259359   4.164   0.886  11.830  0.2346 -0.8019  0.7477
12623TIP3    H159360   4.182   0.910  11.921  0.2181 -0.6771  0.7183
12623TIP3    H259361   4.100   0.951  11.800 -0.2523 -1.2310  0.8458
12624TIP3   OH259362   5.573   4.010   5.104 -0.3868 -0.3269  0.8661
12624TIP3    H159363   5.632   4.086   5.103  0.3390 -0.8030 -2.5999
12624TIP3    H259364   5.487   4.048   5.123  0.3863  0.8933  2.1749
12625TIP3   OH259365   0.209   4.313  17.193 -0.6144 -0.3036 -0.4079
12625TIP3    H159366   0.277   4.278  17.250 -0.3023 -0.7063 -1.0067
12625TIP3    H259367   0.166   4.381  17.244 -0.2869 -0.5996  0.2667
12626TIP3   OH259368   5.990   0.271   2.440  0.4765 -0.3365 -0.2872
12626TIP3    H159369   5.938   0.334   2.392 -1.1963 -0.6804  0.9856
12626TIP3    H259370   6.003   0.198   2.380  0.2532  0.1322 -0.9071
12627TIP3   OH259371   5.643   4.827   5.445  0.3112 -0.0292  0.2175
12627TIP3    H159372   5.665   4.734   5.449  1.0751  0.1443  0.2302
12627TIP3    H259373   5.618   4.842   5.354  0.1713 -0.2478  0.2194
12628TIP3   OH259374   4.252   2.354  13.696  0.3734 -0.1178  0.1230
12628TIP3    H159375   4.207   2.269  13.694  0.7479 -0.3024 -0.5763
12628TIP3    H259376   4.216   2.402  13.622 -0.8337  0.8717  1.2871
12629TIP3   OH259377   4.960   3.140   5.259 -0.1911  0.4043 -0.8441
12629TIP3    H159378   4.939   3.232   5.268  0.6059  0.5671 -0.5829
12629TIP3    H259379   5.053   3.138   5.234 -0.0921 -0.3323 -0.4685
12630TIP3   OH259380   3.970   5.420   6.443 -0.6669  0.3792 -0.3584
12630TIP3    H159381   4.028   5.369   6.499 -2.2952 -0.4324  0.6433
12630TIP3    H259382   4.028   5.455   6.375  0.7236 -1.7146 -0.3364
12631TIP3   OH259383   3.105   2.682  11.864  0.1592 -0.5416 -0.5608
12631TIP3    H159384   3.097   2.762  11.916 -1.2173  0.3771 -2.1258
12631TIP3    H259385   3.035   2.626  11.896  0.0576 -0.4499 -0.6223
12632TIP3   OH259386   3.030   4.601   5.285 -0.4495 -0.1311  0.0833
12632TIP3    H159387   3.068   4.582   5.370 -0.6165  1.8392  0.6487
12632TIP3    H259388   2.968   4.530   5.270  0.5714 -1.2510  0.9476
12633TIP3   OH259389   5.182   0.361   4.327 -0.0703 -0.0475  0.4202
12633TIP3    H159390   5.250   0.356   4.395  0.9707  0.2150 -0.5635
12633TIP3    H259391   5.100   0.346   4.374  0.3428  2.4627  2.1904
12634TIP3   OH259392   4.326   6.475  13.811  0.2612 -0.7187 -0.4899
12634TIP3    H159393   4.366   6.562  13.805  0.7031 -0.9600 -1.1205
12634TIP3    H259394   4.397   6.417  13.839  0.1241 -0.9843 -0.6870
12635TIP3   OH259395   3.082   6.251   5.507  0.2174  0.4582 -0.1063
12635TIP3    H159396   3.150   6.184   5.517 -0.0794  0.2938  0.9428
12635TIP3    H259397   3.120   6.330   5.544  0.4541  0.8088 -1.0680
12636TIP3   OH259398   2.457   6.116  13.053 -0.4473  0.2662  0.3561
12636TIP3    H159399   2.408   6.174  12.996  1.0490  0.1671 -1.1117
12636TIP3    H259400   2.522   6.075  12.996 -0.3169 -1.5302  1.6964
12637TIP3   OH259401   4.367   1.784   2.047 -0.5609 -0.2215 -0.2304
12637TIP3    H159402   4.306   1.790   1.973  1.0235  1.0352 -1.5282
12637TIP3    H259403   4.313   1.756   2.121 -2.8375  1.4588 -1.1328
12638TIP3   OH259404   3.479   6.294   1.035 -0.0609 -0.1099  0.2458
12638TIP3    H159405   3.520   6.320   0.953 -1.8155  0.9984 -0.3532
12638TIP3    H259406   3.536   6.329   1.103  0.2362  0.9745 -0.5397
12639TIP3   OH259407   0.758   1.115  17.067 -0.2898 -0.1480 -0.7751
12639TIP3    H159408   0.704   1.190  17.043  1.7944  1.2723 -1.3357
12639TIP3    H259409   0.806   1.094  16.987  0.0887 -1.2599 -0.2759
12640TIP3   OH259410   2.935   6.707  11.463  0.3814  0.4707  0.2855
12640TIP3    H159411   2.927   6.670  11.375 -1.0018  1.2292  0.0644
12640TIP3    H259412   2.892   6.644  11.520 -1.6306  1.4714 -0.0404
12641TIP3   OH259413   6.725   0.830   4.425  0.0875 -0.6283  0.2393
12641TIP3    H159414   6.743   0.737   4.441  1.4811 -0.4881 -0.4000
12641TIP3    H259415   6.664   0.829   4.351  2.7861 -1.0349 -2.1673
12642TIP3   OH259416   1.017   1.869  13.935 -0.2787  0.1416 -0.2169
12642TIP3    H159417   1.076   1.827  13.873 -1.5571 -0.8191 -0.8381
12642TIP3    H259418   1.024   1.816  14.014 -0.4243 -0.0754 -0.3462
12643TIP3   OH259419   6.494   4.184   1.318  0.0694 -0.1820 -0.2838
12643TIP3    H159420   6.520   4.131   1.394  0.2737  0.4099  0.0614
12643TIP3    H259421   6.483   4.120   1.247  1.5275 -0.5600 -0.1981
12644TIP3   OH259422   4.715   2.226  12.817 -0.1964  0.2899  0.1625
12644TIP3    H159423   4.746   2.145  12.857 -0.2762  0.0733 -0.2084
12644TIP3    H259424   4.737   2.294  12.880  0.5929  0.0764  0.1189
12645TIP3   OH259425   2.611   2.300   2.120  0.0227 -0.2207 -0.3784
12645TIP3    H159426   2.574   2.245   2.050 -1.2473  0.0790  0.0257
12645TIP3    H259427   2.557   2.281   2.196 -0.3506  1.4443 -0.1889
12646TIP3   OH259428   2.433   3.304  11.463 -0.0359  0.5915 -0.4752
12646TIP3    H159429   2.463   3.214  11.449 -0.5869  0.5052 -1.1237
12646TIP3    H259430   2.450   3.320  11.556  1.5067  0.3676 -0.6974
12647TIP3   OH259431   5.429   1.425   5.966  0.1302 -0.4771 -0.0104
12647TIP3    H159432   5.515   1.400   5.932  0.4736 -1.2894  1.3538
12647TIP3    H259433   5.367   1.377   5.911  0.6393 -1.3618  0.1649
12648TIP3   OH259434   5.095   4.910   6.423  0.2424  0.2669 -0.2055
12648TIP3    H159435   5.030   4.974   6.392  1.6222  0.9500 -1.8428
12648TIP3    H259436   5.170   4.922   6.365  1.3803 -1.3596  0.8479
12649TIP3   OH259437   5.246   5.580   0.151 -0.2093  0.4792  0.1000
12649TIP3    H159438   5.189   5.614   0.221 -0.3717 -1.4095  0.9495
12649TIP3    H259439   5.203   5.609   0.070 -2.7967 -1.3407  0.6817
12650TIP3   OH259440   1.745   1.103  10.673 -0.5916 -0.0147 -0.5392
12650TIP3    H159441   1.827   1.151  10.674  0.0119 -1.0140 -0.6288
12650TIP3    H259442   1.678   1.168  10.694  0.3426  0.5721  0.7358
12651TIP3   OH259443   2.337   0.463   3.934 -0.0722 -0.4796 -0.3611
12651TIP3    H159444   2.291   0.417   4.005 -0.7000 -1.0724 -1.1388
12651TIP3    H259445   2.290   0.438   3.855  0.8739 -0.1411 -1.0425
12652TIP3   OH259446   6.248   3.978  15.920  0.2572 -0.0713  0.0356
12652TIP3    H159447   6.186   3.904  15.916  0.0667  0.0316  0.9357
12652TIP3    H259448   6.204   4.043  15.974  0.8028  0.3426 -0.0146
12653TIP3   OH259449   4.326   6.013   3.771 -0.0236  0.4295 -0.0879
12653TIP3    H159450   4.234   5.987   3.780  0.2222 -1.0245 -1.3125
12653TIP3    H259451   4.326   6.075   3.698 -0.1371  1.1686  0.5265
12654TIP3   OH259452   3.315   1.565  16.764 -0.0688  0.4750 -0.0699
12654TIP3    H159453   3.294   1.546  16.673  0.0078 -0.2666  0.0595
12654TIP3    H259454   3.238   1.534  16.813  0.5515 -0.6263  0.2503
12655TIP3   OH259455   2.627   2.224  14.454  0.1320 -0.2267 -0.7650
12655TIP3    H159456   2.630   2.158  14.523 -2.9261 -0.6985 -0.9466
12655TIP3    H259457   2.626   2.174  14.373 -0.8609  0.0530 -0.9457
12656TIP3   OH259458   2.588   5.167  16.770 -0.1361 -0.0329 -0.2675
12656TIP3    H159459   2.530   5.129  16.704  3.4601 -0.7220 -3.3694
12656TIP3    H259460   2.627   5.243  16.726  0.2961  1.2758  2.2106
12657TIP3   OH259461   4.082   3.947  11.827  0.1193  0.4599  0.6794
12657TIP3    H159462   4.076   3.920  11.918  0.5121  0.5595  0.7371
12657TIP3    H259463   4.008   4.006  11.814  0.6846  1.3093  1.2332
12658TIP3   OH259464   6.751   2.179   0.049 -0.5503 -0.3334  0.0090
12658TIP3    H159465   6.785   2.210   0.133  0.3805 -1.4708  0.0806
12658TIP3    H259466   6.792   2.238  -0.015  0.4515 -0.7849  0.2075
12659TIP3   OH259467   6.508   6.581  17.046  0.5215  0.0165 -0.0678
12659TIP3    H159468   6.499   6.649  17.112  1.7021 -1.2175  1.4594
12659TIP3    H259469   6.531   6.628  16.965  0.0104  1.4963  0.6225
12660TIP3   OH259470   2.896   4.986   2.218  0.4733 -0.3839 -0.4771
12660TIP3    H159471   2.901   4.966   2.125  0.6067 -0.4699 -0.4525
12660TIP3    H259472   2.971   5.044   2.234  0.1829  0.0055 -0.5166
12661TIP3   OH259473   3.208   5.121   2.696 -0.0207  0.0087  0.5084
12661TIP3    H159474   3.166   5.036   2.712 -3.0625  1.4912  1.1951
12661TIP3    H259475   3.207   5.130   2.600 -2.5215  0.4564  0.5052
12662TIP3   OH259476   4.842   2.762   4.739 -0.3108  0.6294 -0.3069
12662TIP3    H159477   4.810   2.692   4.795 -2.3084  2.2277  0.7089
12662TIP3    H259478   4.910   2.721   4.685  1.2598 -1.1484  2.7673
12663TIP3   OH259479   2.012   0.813   0.557 -0.4956  0.0284 -0.0966
12663TIP3    H159480   2.006   0.877   0.627 -0.4829 -0.1032  0.0263
12663TIP3    H259481   1.921   0.795   0.532 -0.5980 -1.1326  1.0005
12664TIP3   OH259482   0.818   4.445  16.216 -0.4530 -0.4098  0.0827
12664TIP3    H159483   0.783   4.447  16.127 -3.0167 -1.6945  0.9455
12664TIP3    H259484   0.758   4.501  16.266 -0.9626 -2.1499  1.5263
12665TIP3   OH259485   2.864   1.259  12.347  0.1355  0.1803  0.3102
12665TIP3    H159486   2.939   1.205  12.326 -0.5985 -1.0525  0.7314
12665TIP3    H259487   2.889   1.304  12.428  0.7608  0.5067 -0.0571
12666TIP3   OH259488   6.174   1.727  16.048  0.3862 -0.2661 -1.0433
12666TIP3    H159489   6.177   1.651  15.991  1.2176 -0.8686 -0.2258
12666TIP3    H259490   6.255   1.775  16.027 -0.0392  0.2934 -1.4180
12667TIP3   OH259491   1.749   1.047  13.122  0.3584  0.2525  0.1352
12667TIP3    H159492   1.799   1.109  13.175  2.6387 -1.0717 -0.3305
12667TIP3    H259493   1.781   1.061  13.033  0.3619 -1.0351 -0.0855
12668TIP3   OH259494   6.226   6.739  16.048  0.4512  0.3419  0.0097
12668TIP3    H159495   6.230   6.833  16.069 -1.3484  0.3656  0.3426
12668TIP3    H259496   6.317   6.710  16.054  1.0177  2.0161  0.1134
12669TIP3   OH259497   6.392   1.410  12.098 -0.4289 -0.1914 -0.2329
12669TIP3    H159498   6.416   1.401  12.190 -1.8855 -0.1706  0.1735
12669TIP3    H259499   6.297   1.403  12.097 -0.4847  0.3484 -1.6738
12670TIP3   OH259500   0.946   0.588  14.508 -0.4379 -0.3171 -0.5823
12670TIP3    H159501   0.915   0.579  14.418  0.2760 -0.1233 -0.8570
12670TIP3    H259502   1.040   0.603  14.500  0.2971 -3.6007  0.2782
12671TIP3   OH259503   4.144   5.169   2.070  0.0986 -0.2251 -0.1915
12671TIP3    H159504   4.203   5.228   2.025  0.6079 -0.8617 -0.3669
12671TIP3    H259505   4.089   5.131   2.001  2.2150 -2.7597 -0.6584
12672TIP3   OH259506   0.721   5.134  16.709 -0.2096 -0.0382  0.7642
12672TIP3    H159507   0.764   5.059  16.749  0.2834  0.4361  1.1406
12672TIP3    H259508   0.632   5.133  16.744  0.0991  0.1443  1.5828
12673TIP3   OH259509   5.521   3.381  14.501  0.4955  0.2733  0.9336
12673TIP3    H159510   5.457   3.440  14.541 -2.1248  0.6421 -3.2088
12673TIP3    H259511   5.491   3.294  14.525 -1.8355  0.4363 -1.0702
12674TIP3   OH259512   0.343   2.009   1.982 -0.1451  0.4803 -0.0057
12674TIP3    H159513   0.355   2.072   1.911 -1.5508  0.5012 -0.2403
12674TIP3    H259514   0.401   1.936   1.959  1.6131  1.6994  0.3385
12675TIP3   OH259515   3.695   2.266  12.739  0.2233 -0.4771 -0.1052
12675TIP3    H159516   3.668   2.305  12.822  1.4116  1.6091 -0.6021
12675TIP3    H259517   3.764   2.205  12.762 -0.2058 -0.7278  0.5368
12676TIP3   OH259518   5.940   4.324   0.136  0.4034  0.1773  0.5389
12676TIP3    H159519   5.913   4.357   0.050 -3.0055 -1.6417  0.7508
12676TIP3    H259520   5.963   4.403   0.185 -0.8533  1.5809 -0.9953
12677TIP3   OH259521   2.843   6.484  14.611  0.1541  0.5084 -0.0258
12677TIP3    H159522   2.765   6.524  14.648  0.1187  0.7312 -0.3336
12677TIP3    H259523   2.848   6.398  14.651 -1.3675 -0.2997 -1.4792
12678TIP3   OH259524   1.826   1.480   2.352  0.0189  0.0146 -0.4125
12678TIP3    H159525   1.795   1.568   2.332 -1.2580 -0.0168  1.1834
12678TIP3    H259526   1.778   1.456   2.431  0.0356 -2.2809 -1.0439
12679TIP3   OH259527   5.719   2.538   0.625  0.1483  0.0226  0.2407
12679TIP3    H159528   5.790   2.583   0.672 -0.0903 -0.1241  0.7491
12679TIP3    H259529   5.661   2.507   0.694 -0.5544  0.3688 -0.1798
12680TIP3   OH259530   3.407   5.823  13.787 -0.4075  0.5101 -0.2003
12680TIP3    H159531   3.322   5.852  13.821  0.5762  2.5043  0.7537
12680TIP3    H259532   3.453   5.790  13.865 -0.1116 -0.0521 -0.6122
12681TIP3   OH259533   5.863   6.005   6.471  0.4305  0.3871  0.3554
12681TIP3    H159534   5.816   6.024   6.553 -1.3178  0.2449 -0.5677
12681TIP3    H259535   5.928   5.939   6.496 -1.2716 -1.0259  1.3198
12682TIP3   OH259536   2.279   5.505   5.488  0.1985 -0.4754 -0.4246
12682TIP3    H159537   2.255   5.473   5.575  0.5517 -0.1491 -0.2029
12682TIP3    H259538   2.324   5.588   5.504  1.6816 -1.1612 -0.7894
12683TIP3   OH259539   3.068   1.433  16.214 -0.1439 -0.3682  0.5328
12683TIP3    H159540   3.138   1.370  16.198 -0.1243  0.0977 -1.5454
12683TIP3    H259541   3.030   1.449  16.127 -1.8605  0.5069  1.3937
12684TIP3   OH259542   6.421   3.463  17.382  0.2883  0.1857  0.5433
12684TIP3    H159543   6.416   3.507  17.467  1.7474  0.1831  0.6440
12684TIP3    H259544   6.356   3.508  17.328 -0.4616  0.3691  1.5617
12685TIP3   OH259545   4.281   3.618   0.906  0.5225 -0.3070  0.3591
12685TIP3    H159546   4.295   3.688   0.970 -1.6429 -0.2222  0.8339
12685TIP3    H259547   4.310   3.655   0.823 -0.7695  1.2784  0.5638
12686TIP3   OH259548   1.579   5.500   2.770  0.3131 -0.3005  0.3710
12686TIP3    H159549   1.589   5.431   2.836 -2.5980 -2.1186 -0.8916
12686TIP3    H259550   1.549   5.576   2.820 -0.7227 -1.2868  1.3213
12687TIP3   OH259551   6.627   1.924   6.100 -0.2305 -0.0411 -0.4006
12687TIP3    H159552   6.596   1.913   6.010 -1.4412 -0.4813  0.0529
12687TIP3    H259553   6.594   1.847   6.146 -0.5533  0.7087  0.6567
12688TIP3   OH259554   3.088   0.400  13.353  0.4154 -0.9115  0.1142
12688TIP3    H159555   3.135   0.318  13.341  1.0086 -0.2308 -2.9478
12688TIP3    H259556   3.149   0.468  13.323 -1.1585  0.3645 -0.3676
12689TIP3   OH259557   2.650   3.599  14.597 -0.2558  0.1424  0.0309
12689TIP3    H159558   2.563   3.631  14.575 -0.0709 -0.2791 -1.3996
12689TIP3    H259559   2.655   3.512  14.557  0.9006  0.2678 -0.1409
12690TIP3   OH259560   2.193   3.097  14.707  0.6842  0.0898  0.2362
12690TIP3    H159561   2.185   3.191  14.726  0.5778  0.7220 -2.5022
12690TIP3    H259562   2.110   3.074  14.664  1.0789 -1.0548  0.0593
12691TIP3   OH259563   2.324   0.335   1.471 -0.1835  0.0746 -0.2602
12691TIP3    H159564   2.396   0.354   1.411  0.1040  1.3068  0.4455
12691TIP3    H259565   2.363   0.282   1.540  0.0338  0.6623  0.0723
12692TIP3   OH259566   1.364   3.884   6.519 -0.1653 -0.7032 -0.3218
12692TIP3    H159567   1.381   3.828   6.444 -1.8952 -0.8946 -0.6244
12692TIP3    H259568   1.427   3.857   6.585  0.8827 -1.0533 -1.4242
12693TIP3   OH259569   5.354   3.075  16.040 -0.0858 -0.1369  0.5198
12693TIP3    H159570   5.364   3.057  16.134 -1.2017 -1.1427  0.4737
12693TIP3    H259571   5.300   3.003  16.008 -0.1451  0.4717 -0.8035
12694TIP3   OH259572   2.444   1.147  15.221  0.0469  0.0718  0.2277
12694TIP3    H159573   2.495   1.169  15.143  1.4163  1.9446  1.5679
12694TIP3    H259574   2.496   1.080  15.265 -0.2098 -0.2360  0.0674
12695TIP3   OH259575   3.399   5.636   2.415 -0.4157 -0.3571 -0.6729
12695TIP3    H159576   3.485   5.639   2.373  0.0256 -1.7960  0.0579
12695TIP3    H259577   3.414   5.590   2.497 -1.4779  1.3648  0.5514
12696TIP3   OH259578   0.793   1.836  14.350 -0.2803  0.2900 -0.4093
12696TIP3    H159579   0.702   1.817  14.325 -0.3082 -0.4408  0.2102
12696TIP3    H259580   0.785   1.889  14.429 -0.1691 -0.6108  0.2185
12697TIP3   OH259581   5.646   4.601   6.049  0.0629 -0.1329 -0.0070
12697TIP3    H159582   5.646   4.522   5.996  1.0659  0.7535 -1.4003
12697TIP3    H259583   5.735   4.607   6.084 -0.2609 -0.0868  0.8310
12698TIP3   OH259584   5.241   3.133   3.941  0.1752 -0.1879 -0.3656
12698TIP3    H159585   5.294   3.099   3.869  1.5978  0.5932  0.2792
12698TIP3    H259586   5.295   3.120   4.019  0.1942  2.2267  0.0904
12699TIP3   OH259587   6.395   5.415  16.412 -0.0091  0.3727  0.1777
12699TIP3    H159588   6.390   5.486  16.347 -1.0212 -1.1784 -1.5255
12699TIP3    H259589   6.330   5.351  16.383  0.7183 -1.1684  1.7783
12700TIP3   OH259590   1.120   4.497  16.263  0.7101  0.1765 -0.3958
12700TIP3    H159591   1.036   4.491  16.216  0.2962  1.8895  0.0284
12700TIP3    H259592   1.178   4.437  16.217  0.1877  1.4146 -2.8257
12701TIP3   OH259593   4.928   2.411  16.473 -0.1097 -0.0617 -0.4558
12701TIP3    H159594   4.970   2.492  16.504  0.3214 -1.1582  1.9874
12701TIP3    H259595   4.952   2.407  16.380  0.1002  2.4509 -0.5828
12702TIP3   OH259596   1.204   4.515   4.365  0.2026 -0.1996 -0.3517
12702TIP3    H159597   1.246   4.514   4.279 -0.4547  0.2037 -0.6863
12702TIP3    H259598   1.276   4.527   4.427  0.6665 -0.3832 -0.8521
12703TIP3   OH259599   3.775   1.740  12.004  0.7858  0.4498 -0.2332
12703TIP3    H159600   3.842   1.804  12.028  1.1203  0.1529 -0.3713
12703TIP3    H259601   3.818   1.655  12.015  0.4669  0.2618 -0.4299
12704TIP3   OH259602   2.072   5.364   4.717  0.0313 -0.1941 -0.3126
12704TIP3    H159603   1.983   5.377   4.751 -0.1953  0.9315 -1.2617
12704TIP3    H259604   2.058   5.340   4.625  0.7199  0.5388 -0.6130
12705TIP3   OH259605   6.656   1.676   3.860 -0.2529  0.1581 -0.1330
12705TIP3    H159606   6.603   1.756   3.861 -1.4026 -0.5688 -0.8159
12705TIP3    H259607   6.620   1.624   3.933 -0.1071 -0.1009 -0.2467
12706TIP3   OH259608   3.722   2.165   0.383  0.3583  0.3673  0.0140
12706TIP3    H159609   3.675   2.219   0.445 -0.5202  1.7188 -1.7366
12706TIP3    H259610   3.814   2.189   0.394  0.4515 -0.6673  1.9059
12707TIP3   OH259611   0.243   4.834  10.496  0.1662  0.4074 -0.4258
12707TIP3    H159612   0.321   4.821  10.441  0.4229  1.6699 -0.3943
12707TIP3    H259613   0.258   4.778  10.572  0.8471  0.2994 -0.6304
12708TIP3   OH259614   2.774   4.425  14.984  0.2738  0.0046  0.0117
12708TIP3    H159615   2.808   4.340  14.956 -2.0121 -1.3996  1.2677
12708TIP3    H259616   2.818   4.442  15.067  0.8745  0.1726 -0.3314
12709TIP3   OH259617   1.573   0.106  13.786  0.5325  0.1055  0.1406
12709TIP3    H159618   1.504   0.163  13.819 -0.7317 -0.9219 -0.6384
12709TIP3    H259619   1.591   0.140  13.698  0.1325 -0.3791 -0.1311
12710TIP3   OH259620   3.923   3.214   3.619  0.2667  0.0228  0.1574
12710TIP3    H159621   3.866   3.288   3.639  1.1084  1.2343 -1.7302
12710TIP3    H259622   3.876   3.165   3.552  0.4119 -0.2934  0.2837
12711TIP3   OH259623   3.755   4.888  14.684  0.1261  0.6538 -0.9703
12711TIP3    H159624   3.672   4.870  14.640 -0.3595 -1.2662  0.5772
12711TIP3    H259625   3.821   4.846  14.628 -0.4659 -1.6525 -0.0234
12712TIP3   OH259626   4.281   0.655  11.034 -0.1987 -0.3196 -0.5685
12712TIP3    H159627   4.225   0.577  11.029  1.5898 -2.1202  3.2685
12712TIP3    H259628   4.233   0.715  11.091 -0.1144 -0.0222 -0.8090
12713TIP3   OH259629   2.260   0.570   1.215  0.1547 -0.1928 -0.3870
12713TIP3    H159630   2.346   0.534   1.236 -0.0693 -0.2076  0.5342
12713TIP3    H259631   2.215   0.499   1.170 -0.8422 -1.7355  2.7612
12714TIP3   OH259632   0.237   1.161   5.219 -0.2038  0.5871 -0.7773
12714TIP3    H159633   0.200   1.237   5.263  0.4025  1.1074 -1.1434
12714TIP3    H259634   0.231   1.181   5.126  1.0518  0.7368 -0.8512
12715TIP3   OH259635   2.029   5.684   4.343 -0.1754  0.4680  0.2620
12715TIP3    H159636   2.003   5.774   4.363 -1.9755 -0.6268  3.5300
12715TIP3    H259637   1.994   5.668   4.255  0.3238  2.9746 -0.4450
12716TIP3   OH259638   4.373   0.023  12.802 -0.8684  0.1099  0.1051
12716TIP3    H159639   4.350   0.114  12.816  0.6328  0.6955 -0.9842
12716TIP3    H259640   4.469   0.022  12.797 -0.9007 -1.3476 -0.9961
12717TIP3   OH259641   5.473   0.728   4.397  0.5633 -0.9442 -0.5066
12717TIP3    H159642   5.500   0.818   4.413  0.1794 -1.0935  1.2309
12717TIP3    H259643   5.436   0.729   4.309  0.4789  0.6143 -0.4768
12718TIP3   OH259644   2.512   1.052  16.008  0.3773  0.6345  0.0574
12718TIP3    H159645   2.480   0.968  16.041  1.4564  0.3380  0.3606
12718TIP3    H259646   2.442   1.082  15.950 -0.4358 -0.0204  0.6714
12719TIP3   OH259647   5.088   1.953  13.515  0.3750  0.0944  0.1130
12719TIP3    H159648   5.096   2.039  13.474  3.9035  0.2386  0.7759
12719TIP3    H259649   5.100   1.891  13.443  2.6842  0.3015  0.2466
12720TIP3   OH259650   3.987   0.200  14.065  0.6713  0.5656 -0.0934
12720TIP3    H159651   3.941   0.227  13.985  0.5994 -1.6478 -0.8543
12720TIP3    H259652   3.924   0.218  14.136  0.1960  1.2498 -0.6765
12721TIP3   OH259653   2.822   4.999  12.039 -0.1705 -0.1354  0.4358
12721TIP3    H159654   2.814   4.911  12.076 -2.2558 -0.2851 -0.2846
12721TIP3    H259655   2.780   4.993  11.953  1.0334  1.1992 -0.2946
12722TIP3   OH259656   5.053   3.798   5.537 -0.1945 -0.6018 -0.3045
12722TIP3    H159657   4.970   3.833   5.571 -0.2573  0.3322 -1.3762
12722TIP3    H259658   5.079   3.733   5.602 -0.6084  0.7080  1.2467
12723TIP3   OH259659   3.861   0.672  15.957  0.6806 -0.7254  0.5131
12723TIP3    H159660   3.911   0.685  16.037  1.7116  0.1953 -0.2468
12723TIP3    H259661   3.891   0.587  15.923  0.6872 -0.8346  0.7930
12724TIP3   OH259662   1.883   0.547  14.691 -0.0563  0.7394  0.5297
12724TIP3    H159663   1.866   0.454  14.676  1.6812  0.7752 -2.3359
12724TIP3    H259664   1.907   0.552  14.783  1.3955 -1.9656  0.4084
12725TIP3   OH259665   4.345   5.272   4.760  0.0890 -0.2656  0.0288
12725TIP3    H159666   4.294   5.335   4.709  1.5693 -0.1103 -1.3304
12725TIP3    H259667   4.280   5.230   4.817 -1.3201  0.8371 -0.6784
12726TIP3   OH259668   2.943   1.821  13.870  0.0761 -0.9412 -0.2064
12726TIP3    H159669   3.025   1.794  13.910 -1.3117 -1.5225  2.5172
12726TIP3    H259670   2.904   1.739  13.838 -0.3204 -0.9684  0.3329
12727TIP3   OH259671   3.073   1.448  14.804 -0.1969  0.2073  0.0896
12727TIP3    H159672   3.125   1.463  14.883 -1.2825 -0.1407  0.8949
12727TIP3    H259673   3.059   1.535  14.767  0.8784  0.3137 -0.0994
12728TIP3   OH259674   3.251   6.477   0.872  0.8132 -0.1506 -0.5026
12728TIP3    H159675   3.340   6.461   0.903  0.3167 -0.4096  0.8679
12728TIP3    H259676   3.232   6.405   0.812  1.3569 -0.3469 -0.4355
12729TIP3   OH259677   6.470   6.550  15.528 -0.0670 -0.4480  0.6959
12729TIP3    H159678   6.416   6.497  15.470 -0.7113 -2.0258  2.6003
12729TIP3    H259679   6.476   6.635  15.485 -2.4891 -0.8055 -0.5230
12730TIP3   OH259680   0.736   4.522   3.526  0.1191  0.0196 -0.7068
12730TIP3    H159681   0.769   4.514   3.437  1.4509  0.9911 -0.3353
12730TIP3    H259682   0.768   4.444   3.571  2.9461  1.3999 -0.0909
12731TIP3   OH259683   3.469   4.572  11.409  0.1600  0.0502  0.1810
12731TIP3    H159684   3.406   4.500  11.408  1.3299 -1.0087 -0.4982
12731TIP3    H259685   3.425   4.642  11.360 -0.4284 -0.7149 -0.4182
12732TIP3   OH259686   6.222   5.304   3.438 -0.1595  0.1792  0.5437
12732TIP3    H159687   6.309   5.266   3.446 -1.1523 -2.5172 -0.4867
12732TIP3    H259688   6.238   5.397   3.419  2.4027  0.1402  2.0147
12733TIP3   OH259689   2.420   2.551   4.684  0.4344  0.2394 -0.3097
12733TIP3    H159690   2.441   2.459   4.670 -1.9621 -0.6357  1.0903
12733TIP3    H259691   2.423   2.591   4.597  2.0626 -1.0078 -0.8580
12734TIP3   OH259692   4.941   2.624  15.750  0.0601  0.1400  0.4768
12734TIP3    H159693   4.935   2.712  15.788 -1.1190  0.3514 -0.1669
12734TIP3    H259694   4.894   2.568  15.811 -0.6334  0.2451  0.0432
12735TIP3   OH259695   0.372   3.352  16.823 -0.1777 -0.3715 -0.5508
12735TIP3    H159696   0.333   3.265  16.825 -0.7589 -0.1193  1.1175
12735TIP3    H259697   0.300   3.411  16.845  0.7568  0.2521  1.0493
12736TIP3   OH259698   2.183   3.450   2.759  0.9934  0.2647 -0.4644
12736TIP3    H159699   2.191   3.521   2.695  1.4377  0.1842 -0.5027
12736TIP3    H259700   2.243   3.474   2.829  0.9431  0.0596 -0.3502
12737TIP3   OH259701   5.357   1.249  16.398 -0.2023  0.5505 -0.8662
12737TIP3    H159702   5.367   1.301  16.319 -0.0670  0.2058 -1.0791
12737TIP3    H259703   5.300   1.301  16.455 -1.4077  0.2057 -1.7314
12738TIP3   OH259704   4.649   6.326   2.501  0.4276 -0.3568  0.1237
12738TIP3    H159705   4.683   6.237   2.504  0.7881 -0.2056  1.5241
12738TIP3    H259706   4.560   6.317   2.468  0.3826 -1.2690  0.4570
12739TIP3   OH259707   5.103   4.739   0.037  0.4246 -0.2320 -0.5356
12739TIP3    H159708   5.172   4.716  -0.026  0.0848 -0.9725 -0.6470
12739TIP3    H259709   5.022   4.725  -0.011  0.1896  1.3764 -0.6599
12740TIP3   OH259710   0.174   6.278  15.892 -0.1807 -0.1125  0.0397
12740TIP3    H159711   0.206   6.191  15.867  1.5904  0.2951  0.7127
12740TIP3    H259712   0.083   6.264  15.918  0.4794 -2.0501  1.5208
12741TIP3   OH259713   4.507   4.399   5.329 -0.7667  0.7707  0.2692
12741TIP3    H159714   4.451   4.387   5.405 -0.5052 -1.1020  0.2297
12741TIP3    H259715   4.492   4.321   5.276  0.4889  1.1062 -0.6404
12742TIP3   OH259716   3.333   6.364   2.007 -0.4300 -0.2226 -0.1875
12742TIP3    H159717   3.268   6.315   1.957  0.0640  0.2051 -1.2842
12742TIP3    H259718   3.384   6.410   1.941 -0.0218  0.7001  0.7485
12743TIP3   OH259719   5.731   0.931  11.575 -0.1147  0.4800  0.1144
12743TIP3    H159720   5.803   0.927  11.512  0.6018 -0.6574  0.9655
12743TIP3    H259721   5.652   0.924  11.522  0.3657  2.0007 -0.8612
12744TIP3   OH259722   3.464   3.417   1.762  0.0582 -0.3636  0.0460
12744TIP3    H159723   3.528   3.417   1.691 -2.1059  0.1890 -2.0449
12744TIP3    H259724   3.516   3.404   1.841  2.6604 -0.4667 -1.5552
12745TIP3   OH259725   3.581   3.083  16.517 -0.2276  0.5326 -0.4780
12745TIP3    H159726   3.637   3.155  16.488  3.0260 -0.9651  1.4338
12745TIP3    H259727   3.592   3.082  16.613  0.1472 -2.6230 -0.4656
12746TIP3   OH259728   0.566   4.498  15.662 -0.6917 -0.0862 -0.4247
12746TIP3    H159729   0.654   4.529  15.684 -0.6472  1.3655 -2.3944
12746TIP3    H259730   0.507   4.555  15.711 -0.5434  0.7127 -1.1463
12747TIP3   OH259731   5.527   1.283   2.832  0.4785  0.3011  0.0054
12747TIP3    H159732   5.577   1.327   2.901  0.8172 -0.2551  0.1165
12747TIP3    H259733   5.545   1.334   2.753  1.0121  0.2599  0.0983
12748TIP3   OH259734   4.774   0.551   0.883 -0.0297  0.6732 -0.1034
12748TIP3    H159735   4.858   0.504   0.887  0.0214  0.7979  0.3447
12748TIP3    H259736   4.791   0.624   0.825 -0.1068  0.1481 -0.7993
12749TIP3   OH259737   0.454   2.223  15.154 -0.4592  0.0146 -0.0204
12749TIP3    H159738   0.533   2.231  15.100  0.0801  1.0941  0.9049
12749TIP3    H259739   0.471   2.148  15.210 -1.3673 -1.6537 -1.8529
12750TIP3   OH259740   3.370   3.878   4.764  0.2228 -0.0943  0.2366
12750TIP3    H159741   3.374   3.971   4.786  1.1600  0.2813 -1.3560
12750TIP3    H259742   3.349   3.876   4.671  2.4027 -1.3616 -0.3110
12751TIP3   OH259743   2.832   2.985   3.360 -0.8851 -0.7469  0.4069
12751TIP3    H159744   2.863   2.920   3.423  2.1893 -1.2564 -1.4191
12751TIP3    H259745   2.869   3.068   3.391 -2.2888 -0.3402  1.0865
12752TIP3   OH259746   1.592   1.767   3.097  0.0964 -0.5164  0.0619
12752TIP3    H159747   1.570   1.786   3.188  1.2929 -2.4395  0.8090
12752TIP3    H259748   1.667   1.824   3.079 -0.1650 -0.1031  0.2639
12753TIP3   OH259749   6.596   1.852   3.395  0.0592 -0.1042 -0.3131
12753TIP3    H159750   6.669   1.830   3.337  0.9567  0.3006  0.6478
12753TIP3    H259751   6.559   1.931   3.358  1.1243  0.6027  0.0831
12754TIP3   OH259752   1.133   0.915  14.595 -0.0836  0.4129 -0.2540
12754TIP3    H159753   1.187   0.990  14.569  1.2188 -0.2496  0.4334
12754TIP3    H259754   1.079   0.896  14.518 -1.0663  2.5616 -0.1721
12755TIP3   OH259755   0.630   4.838  16.618 -0.1605  0.1534 -0.0055
12755TIP3    H159756   0.613   4.929  16.643  0.4445  0.7333 -1.5581
12755TIP3    H259757   0.724   4.835  16.602 -0.4048 -0.2964 -1.5543
12756TIP3   OH259758   3.086   5.134  11.532  0.3930 -0.7620  0.4794
12756TIP3    H159759   3.180   5.120  11.546  1.1589  0.5754 -2.4723
12756TIP3    H259760   3.073   5.227  11.552 -0.0757 -0.7038 -0.0810
12757TIP3   OH259761   4.986   5.376  13.770  0.7436  0.6748 -0.1731
12757TIP3    H159762   5.031   5.293  13.785  0.9588  0.0109 -3.6617
12757TIP3    H259763   4.993   5.422  13.853 -0.1878 -3.0853  2.2650
12758TIP3   OH259764   5.952   3.169  16.006 -0.4028 -0.2078 -0.4112
12758TIP3    H159765   5.862   3.202  15.999 -0.4456 -0.5819 -1.7569
12758TIP3    H259766   6.007   3.247  15.994 -0.5319 -0.1324 -0.5101
12759TIP3   OH259767   4.111   6.295   5.599 -0.5749 -0.5865  0.0213
12759TIP3    H159768   4.175   6.361   5.572 -1.0059 -0.1746  0.0093
12759TIP3    H259769   4.068   6.332   5.675 -2.1976  0.0288 -1.1356
12760TIP3   OH259770   1.655   2.353  13.205 -0.4207  0.7789  0.4553
12760TIP3    H159771   1.561   2.336  13.202 -0.3184  0.2076  0.4918
12760TIP3    H259772   1.679   2.339  13.296  0.1236 -1.3834  0.0161
12761TIP3   OH259773   4.200   1.818  14.552  0.5626  0.0495  0.2626
12761TIP3    H159774   4.279   1.764  14.556  1.1716  0.8817 -0.2931
12761TIP3    H259775   4.173   1.814  14.460  0.0469 -0.0779  0.4107
12762TIP3   OH259776   1.656   1.371  13.133 -0.1657 -0.1456  0.6382
12762TIP3    H159777   1.613   1.324  13.061 -1.4028  0.5263  0.8968
12762TIP3    H259778   1.747   1.380  13.105 -0.7612  0.7746 -1.2500
12763TIP3   OH259779   5.736   4.081   3.919 -0.0564 -0.0132  0.4523
12763TIP3    H159780   5.724   4.100   3.826  0.8637 -2.6131 -0.2898
12763TIP3    H259781   5.687   4.000   3.934 -3.0089  2.0418  3.1411
12764TIP3   OH259782   1.360   6.041   1.830 -0.2783 -0.0055  0.5390
12764TIP3    H159783   1.344   6.098   1.754 -0.7922  0.6340  1.1082
12764TIP3    H259784   1.342   6.097   1.905  2.3083  0.0379  1.2197
12765TIP3   OH259785   1.463   6.768   5.037 -0.6666  0.0715 -0.6743
12765TIP3    H159786   1.435   6.706   4.970  1.8597 -1.6298 -0.2647
12765TIP3    H259787   1.539   6.812   4.998 -0.5136  0.6355  0.2517
12766TIP3   OH259788   0.211   1.818  11.813  0.3973 -0.2945  0.2119
12766TIP3    H159789   0.196   1.858  11.899  0.3150  0.8814 -0.3370
12766TIP3    H259790   0.225   1.725  11.832  0.0041 -0.1134  1.4613
12767TIP3   OH259791   6.131   3.291   1.008  0.3303  0.2446  0.1460
12767TIP3    H159792   6.047   3.264   1.044 -0.5553  2.3650 -0.1699
12767TIP3    H259793   6.180   3.323   1.083  0.9177 -1.0176  0.3344
12768TIP3   OH259794   1.849   3.635   4.531 -0.2136  0.2596  0.0923
12768TIP3    H159795   1.854   3.655   4.624  1.7856 -2.8361  0.7724
12768TIP3    H259796   1.940   3.629   4.502 -0.6709 -2.6599 -1.0614
12769TIP3   OH259797   4.534   4.286  14.410 -0.1829 -0.3670  0.3970
12769TIP3    H159798   4.462   4.285  14.473 -1.5964  1.2853 -1.1148
12769TIP3    H259799   4.493   4.265  14.326  1.4640 -1.3466 -0.2187
12770TIP3   OH259800   2.321   1.767   3.000  0.6802  0.0793 -0.2855
12770TIP3    H159801   2.228   1.787   2.992  0.5937  0.8373  1.8442
12770TIP3    H259802   2.363   1.817   2.931 -0.2505  2.0485  0.4849
12771TIP3   OH259803   0.618   2.151  13.170  0.3566 -0.0282 -0.6206
12771TIP3    H159804   0.671   2.212  13.223 -1.1179  1.5906 -0.9212
12771TIP3    H259805   0.549   2.206  13.132 -2.1658 -2.1724  0.5291
12772TIP3   OH259806   6.363   5.509   3.215 -0.4288  0.0881 -0.2945
12772TIP3    H159807   6.275   5.546   3.202  0.7462  2.6338 -1.6181
12772TIP3    H259808   6.408   5.574   3.269  0.2254 -1.9449  1.7264
12773TIP3   OH259809   0.724   1.154  13.770 -0.4972  0.4395 -0.4465
12773TIP3    H159810   0.767   1.169  13.854  0.3385  3.8108 -1.2969
12773TIP3    H259811   0.715   1.059  13.764  1.9127 -0.1103  2.1979
12774TIP3   OH259812   5.779   0.222  16.732  0.0859  0.1282 -0.5453
12774TIP3    H159813   5.845   0.224  16.663  0.5573  0.8935 -0.0939
12774TIP3    H259814   5.825   0.186  16.808  0.1952  1.2861 -0.0382
12775TIP3   OH259815   6.244   5.194  11.715 -0.3957 -0.2971  0.1707
12775TIP3    H159816   6.154   5.161  11.710  0.0570 -1.4415 -0.6564
12775TIP3    H259817   6.298   5.124  11.680  0.9285  0.0065  1.5095
12776TIP3   OH259818   1.915   5.685   2.973 -0.8364  0.6460  0.4794
12776TIP3    H159819   1.912   5.726   2.886 -1.0284 -0.1815  0.0867
12776TIP3    H259820   1.961   5.749   3.028 -0.4830  1.0672 -0.2912
12777TIP3   OH259821   2.652   0.037   4.171 -0.1916  0.1249  0.6254
12777TIP3    H159822   2.587   0.107   4.175  1.0090  1.2558  0.8041
12777TIP3    H259823   2.665   0.022   4.077 -1.9739 -1.3466  0.5711
12778TIP3   OH259824   1.350   2.488  12.839 -0.4024  0.3158  0.1124
12778TIP3    H159825   1.383   2.535  12.916 -3.5484  2.4851  0.3210
12778TIP3    H259826   1.365   2.548  12.766  0.8317 -0.9390 -0.7205
12779TIP3   OH259827   5.094   2.741  12.339  0.0122 -0.0564 -0.4629
12779TIP3    H159828   5.103   2.687  12.417  1.9109  0.5425 -0.1983
12779TIP3    H259829   5.053   2.822  12.369 -1.6455 -0.7936 -0.6216
12780TIP3   OH259830   5.877   0.720   4.773 -0.2974  0.7180 -0.0721
12780TIP3    H159831   5.807   0.734   4.709  0.2089 -1.9970 -1.3551
12780TIP3    H259832   5.831   0.692   4.853 -0.7788  1.0663 -0.2251
12781TIP3   OH259833   6.225   5.574  15.482 -0.2336  0.8264  0.0720
12781TIP3    H159834   6.162   5.606  15.548  0.0513  1.7247 -0.0795
12781TIP3    H259835   6.178   5.503  15.438 -0.0329 -0.5567  1.9646
12782TIP3   OH259836   5.697   0.810  13.458 -0.1393  0.1686 -0.1055
12782TIP3    H159837   5.705   0.772  13.546 -0.5609 -1.9731 -0.9430
12782TIP3    H259838   5.747   0.752  13.402 -0.9631  0.7656 -1.5105
12783TIP3   OH259839   3.951   5.393   0.947 -0.0934 -0.2674  0.3904
12783TIP3    H159840   3.860   5.406   0.922  0.1188  0.7851  0.1184
12783TIP3    H259841   3.986   5.481   0.960  0.9563 -0.6411  0.2552
12784TIP3   OH259842   6.307   3.947   4.826  0.9026  0.1854 -0.7833
12784TIP3    H159843   6.314   3.929   4.732  1.1961  1.1743 -0.9597
12784TIP3    H259844   6.275   4.037   4.831  1.3537  0.3050  0.0646
12785TIP3   OH259845   3.002   2.324   2.559 -0.4475  0.0816  0.2358
12785TIP3    H159846   2.959   2.333   2.644 -3.7964  1.8275 -1.4431
12785TIP3    H259847   3.067   2.395   2.557 -1.7269  1.3103  0.6558
12786TIP3   OH259848   1.225   2.703  16.851  0.3857  0.4401  1.1173
12786TIP3    H159849   1.211   2.755  16.930 -3.2365 -0.9876  1.6093
12786TIP3    H259850   1.155   2.638  16.852  0.7200 -0.2370 -2.8354
12787TIP3   OH259851   2.359   0.700  11.939 -0.0174  0.1593  0.4411
12787TIP3    H159852   2.453   0.714  11.938  0.2908 -1.6424  0.0435
12787TIP3    H259853   2.338   0.682  12.031 -0.1417  1.4238  0.6734
12788TIP3   OH259854   2.872   3.450   1.442  0.3093 -0.8502 -0.0629
12788TIP3    H159855   2.812   3.380   1.415 -0.1367 -0.9336  1.0870
12788TIP3    H259856   2.941   3.406   1.490  0.7492 -0.6397 -0.4953
12789TIP3   OH259857   6.743   3.608  12.967 -0.6257 -0.2585  0.4580
12789TIP3    H159858   6.793   3.592  12.887 -0.4862  0.7367  0.3299
12789TIP3    H259859   6.787   3.557  13.034 -2.0809 -2.9936 -0.5005
12790TIP3   OH259860   3.538   3.358   6.325  0.4258 -0.3456 -0.3857
12790TIP3    H159861   3.501   3.291   6.382  0.0657 -0.3030 -0.5658
12790TIP3    H259862   3.489   3.437   6.346  0.0285 -0.4114 -1.0109
12791TIP3   OH259863   4.484   0.373   0.598 -0.0153  0.5682 -0.0990
12791TIP3    H159864   4.415   0.319   0.559  0.6693 -0.7438  0.4152
12791TIP3    H259865   4.561   0.356   0.544  0.0132  1.7052 -0.4256
12792TIP3   OH259866   1.038   6.190  12.440  0.4211 -0.4620 -0.8835
12792TIP3    H159867   1.015   6.185  12.532 -0.3121  1.2403 -0.9269
12792TIP3    H259868   0.964   6.152  12.394  0.5278 -0.7780 -0.7938
12793TIP3   OH259869   2.817   3.941  11.568 -0.4425 -0.2023 -0.2598
12793TIP3    H159870   2.826   3.937  11.664  0.6669 -1.4065 -0.3829
12793TIP3    H259871   2.743   3.885  11.548  0.6555 -1.7444 -0.2250
12794TIP3   OH259872   1.512   0.876  17.133 -0.6883  0.0121  0.5333
12794TIP3    H159873   1.485   0.793  17.095 -0.6537  0.1052  0.3031
12794TIP3    H259874   1.460   0.942  17.086 -0.4711  0.1469  0.4825
12795TIP3   OH259875   3.589   5.722  11.535  0.1270  0.2943  0.2332
12795TIP3    H159876   3.637   5.774  11.470  0.8814 -0.9710 -0.2666
12795TIP3    H259877   3.620   5.632  11.520 -0.4758 -0.1647  1.6559
12796TIP3   OH259878   2.773   3.186  16.371  0.3863 -0.4508 -0.5089
12796TIP3    H159879   2.703   3.221  16.315 -0.0466  0.6965  0.6904
12796TIP3    H259880   2.853   3.227  16.339 -0.2903  3.2002  1.8769
12797TIP3   OH259881   1.955   5.446   1.931  0.3666 -0.1874 -0.1326
12797TIP3    H159882   1.968   5.437   1.836 -0.4969  1.0186 -0.3933
12797TIP3    H259883   2.025   5.506   1.958  1.3593 -1.4665  0.2312
12798TIP3   OH259884   2.821   1.442  13.566  0.3567  0.3577 -0.4663
12798TIP3    H159885   2.806   1.486  13.482  0.9859  0.8425 -0.3322
12798TIP3    H259886   2.769   1.493  13.628  0.1856  0.2245 -0.5007
12799TIP3   OH259887   1.899   6.680   3.012  0.1827 -0.3548 -0.2076
12799TIP3    H159888   1.919   6.604   3.066  1.3011  1.4842  2.1229
12799TIP3    H259889   1.808   6.702   3.034  0.2599 -0.2908  0.0452
12800TIP3   OH259890   4.998   0.533   1.190 -0.1680 -0.5100 -0.4123
12800TIP3    H159891   5.046   0.616   1.190 -0.3363 -0.4128  0.0635
12800TIP3    H259892   4.906   0.559   1.185 -0.3691 -0.5687  1.9478
12801TIP3   OH259893   4.891   4.299  15.525  0.2988  0.0609 -0.2036
12801TIP3    H159894   4.933   4.353  15.458  0.6297  0.3442  0.2237
12801TIP3    H259895   4.827   4.358  15.566 -0.5840 -0.3949 -0.9110
12802TIP3   OH259896   5.049   3.050   4.501  0.2653  0.1441 -0.1225
12802TIP3    H159897   4.973   2.995   4.480 -0.9673  1.0618  1.7273
12802TIP3    H259898   5.123   2.989   4.498 -0.5999 -0.9197 -1.2563
12803TIP3   OH259899   6.760   2.526  11.790  0.4621 -0.1387 -0.0837
12803TIP3    H159900   6.735   2.533  11.883 -2.8247  1.3114 -0.9313
12803TIP3    H259901   6.698   2.583  11.744  2.1095 -0.6409 -3.2007
12804TIP3   OH259902   1.566   4.243   2.475 -0.0576 -0.4498  0.1402
12804TIP3    H159903   1.545   4.273   2.386  0.6539 -0.0815  0.0899
12804TIP3    H259904   1.586   4.150   2.464 -1.8007 -0.8712  0.2209
12805TIP3   OH259905   4.483   2.662  16.031 -0.3203 -0.2735 -0.4330
12805TIP3    H159906   4.490   2.745  15.984 -1.0670 -0.5263 -1.0169
12805TIP3    H259907   4.390   2.641  16.027 -0.5141 -0.0362  1.6532
12806TIP3   OH259908   4.244   1.898   5.278  0.4361 -0.2857  0.3213
12806TIP3    H159909   4.335   1.897   5.307  0.5655 -1.3920 -0.1171
12806TIP3    H259910   4.245   1.860   5.191 -0.0584  2.3869 -0.9570
12807TIP3   OH259911   3.247   0.582  10.711  0.0802 -0.2176 -0.4890
12807TIP3    H159912   3.324   0.526  10.723 -0.4032 -0.3777  2.9338
12807TIP3    H259913   3.187   0.529  10.659  0.2817 -2.3385  1.2729
12808TIP3   OH259914   4.554   4.122  16.291  0.2625 -0.4147  0.1998
12808TIP3    H159915   4.613   4.074  16.232 -0.0414 -1.5349  0.7858
12808TIP3    H259916   4.534   4.061  16.361 -2.7241 -0.6165 -0.6656
12809TIP3   OH259917   4.854   1.076   2.583  0.5212  0.5180  0.9342
12809TIP3    H159918   4.940   1.035   2.573  0.6260  0.9684 -0.0905
12809TIP3    H259919   4.856   1.152   2.526 -1.7654 -1.3868 -1.9727
12810TIP3   OH259920   4.956   3.631   6.477 -0.3702  0.3294 -0.1929
12810TIP3    H159921   4.863   3.612   6.470 -0.3583  0.8958 -3.1787
12810TIP3    H259922   4.960   3.718   6.519 -1.0593 -0.2484  1.1288
12811TIP3   OH259923   6.705   6.480  16.180 -0.0277  0.2298  0.1754
12811TIP3    H159924   6.674   6.569  16.200 -0.5180  0.1598 -0.2502
12811TIP3    H259925   6.798   6.481  16.203 -0.1186  0.7425  0.5320
12812TIP3   OH259926   3.666   6.067   2.082  0.0433  0.4767  0.5997
12812TIP3    H159927   3.682   6.129   2.011  1.2438 -1.8906 -1.3266
12812TIP3    H259928   3.617   5.996   2.042  2.1242 -1.7161  1.6630
12813TIP3   OH259929   3.532   4.543  16.013  0.0655  0.0632 -0.3235
12813TIP3    H159930   3.585   4.619  16.034 -0.8271  0.8544 -0.8110
12813TIP3    H259931   3.497   4.562  15.925 -1.8432  0.0758  0.3947
12814TIP3   OH259932   3.491   0.149   0.490  0.0811  0.0386 -0.0335
12814TIP3    H159933   3.516   0.217   0.428  0.4397  1.1217  1.2558
12814TIP3    H259934   3.437   0.194   0.555 -0.6502 -1.1541  0.2111
12815TIP3   OH259935   4.919   4.037  16.344  0.4605  0.2240 -0.2849
12815TIP3    H159936   4.860   4.021  16.270  0.0690 -1.3470  0.3224
12815TIP3    H259937   4.990   4.089  16.307 -0.3613  0.5478 -1.4665
12816TIP3   OH259938   1.974   1.451  17.353 -0.2350 -0.1112 -0.3527
12816TIP3    H159939   2.063   1.418  17.360  0.0303  0.6841  0.0440
12816TIP3    H259940   1.973   1.503  17.273 -0.4051 -0.2809 -0.4655
12817TIP3   OH259941   4.702   0.238  13.432  0.4931  0.4568 -0.0637
12817TIP3    H159942   4.795   0.228  13.454  1.6833  1.1591 -3.9920
12817TIP3    H259943   4.667   0.149  13.434  0.8945  0.2806  2.4090
12818TIP3   OH259944   3.631   4.420   0.405  0.8027  0.6504  0.1500
12818TIP3    H159945   3.564   4.354   0.422 -0.5983  2.4342  2.0008
12818TIP3    H259946   3.602   4.465   0.326  0.0501  1.1059  0.6809
12819TIP3   OH259947   5.749   5.982  17.104  0.4694 -0.1198  0.4102
12819TIP3    H159948   5.729   5.890  17.122 -0.0736  0.2049  1.5812
12819TIP3    H259949   5.796   6.012  17.182  2.2085  0.1424 -0.7063
12820TIP3   OH259950   2.854   6.729   4.375  0.2288 -0.0232 -0.6492
12820TIP3    H159951   2.796   6.746   4.301 -1.0156 -1.4862 -0.0710
12820TIP3    H259952   2.877   6.636   4.367  1.8623  0.3386 -0.4138
12821TIP3   OH259953   5.051   4.407  16.157  1.0955  0.0943  0.2620
12821TIP3    H159954   5.103   4.354  16.096  1.5084  2.0375 -1.1634
12821TIP3    H259955   4.962   4.405  16.122  0.2484 -2.4834  2.2063
12822TIP3   OH259956   1.929   2.005   1.034  0.1951  0.1933  0.0316
12822TIP3    H159957   1.877   2.043   1.104  1.3203  0.7690  0.5855
12822TIP3    H259958   2.009   2.057   1.032  1.1880 -1.2617 -0.1243
12823TIP3   OH259959   4.869   1.739   2.700 -0.5774 -0.0319  0.6895
12823TIP3    H159960   4.845   1.679   2.630 -2.0890 -0.3073  1.4102
12823TIP3    H259961   4.882   1.823   2.656  1.9539 -0.8669 -0.3861
12824TIP3   OH259962   0.464   4.392  15.204  0.2824  0.4427  0.4785
12824TIP3    H159963   0.440   4.397  15.297 -1.4275  0.8649  0.0282
12824TIP3    H259964   0.458   4.481  15.172 -1.2791  0.0111 -0.5337
12825TIP3   OH259965   3.047   4.414  16.957 -0.6806  0.8363 -0.3444
12825TIP3    H159966   3.070   4.321  16.956  0.4322  1.0307  1.8207
12825TIP3    H259967   3.104   4.453  16.890 -0.7698  0.0577 -0.8893
12826TIP3   OH259968   2.105   5.154  15.000  0.5230  0.0900  0.3076
12826TIP3    H159969   2.086   5.080  14.941  0.5020  0.3437 -0.0111
12826TIP3    H259970   2.186   5.191  14.966  0.5996  0.1338  0.5424
12827TIP3   OH259971   1.801   1.849   0.048 -0.5203  0.2107  0.0643
12827TIP3    H159972   1.804   1.816  -0.042 -0.3182  1.3090 -0.3457
12827TIP3    H259973   1.722   1.902   0.051 -0.5728  0.1014  0.5634
12828TIP3   OH259974   3.442   1.631   4.145  0.2699  0.4717 -0.6258
12828TIP3    H159975   3.366   1.600   4.196  0.2302 -2.4247 -2.2467
12828TIP3    H259976   3.517   1.615   4.203 -0.1719  2.2284  0.5146
12829TIP3   OH259977   4.307   5.709   4.928 -0.2538  0.1554  0.0671
12829TIP3    H159978   4.235   5.667   4.880  0.4303 -1.7238  0.6074
12829TIP3    H259979   4.263   5.765   4.993 -1.2364 -0.6091  0.0840
12830TIP3   OH259980   0.440   1.943   5.594  0.4245 -0.2250  0.0954
12830TIP3    H159981   0.448   1.914   5.503 -0.7204  0.0340 -0.1089
12830TIP3    H259982   0.396   2.028   5.588  0.8694  0.0674  0.8636
12831TIP3   OH259983   1.874   3.013  12.068  0.0178  0.8500  0.2109
12831TIP3    H159984   1.940   3.081  12.052  2.3386 -1.0067  1.3397
12831TIP3    H259985   1.806   3.058  12.118  1.4741  2.3873  0.9068
12832TIP3   OH259986   0.875   6.132  11.293  0.0474  0.2952 -0.2396
12832TIP3    H159987   0.937   6.193  11.332 -1.2426  1.6614 -0.2441
12832TIP3    H259988   0.790   6.156  11.330 -1.1872  1.3604 -3.3767
12833TIP3   OH259989   5.331   5.519   2.071 -0.2445  0.1445 -0.0837
12833TIP3    H159990   5.294   5.525   2.159 -2.6578  1.6672 -1.0900
12833TIP3    H259991   5.296   5.437   2.036 -0.3946  0.2161 -0.0993
12834TIP3   OH259992   5.711   5.674  11.964  0.0110  0.4192 -0.0072
12834TIP3    H159993   5.804   5.690  11.954  0.0969  0.2867  0.5492
12834TIP3    H259994   5.705   5.603  12.029 -0.3700 -1.5172 -2.0569
12835TIP3   OH259995   6.556   6.080  15.894  0.1881  0.3479  0.1392
12835TIP3    H159996   6.504   5.999  15.893 -0.6247  0.8358 -1.8983
12835TIP3    H259997   6.642   6.053  15.926 -0.7782 -0.8043  1.9505
12836TIP3   OH259998   4.193   0.924   0.278 -0.2787 -0.1771 -0.2538
12836TIP3    H159999   4.148   0.842   0.300 -1.9544  1.1270  1.6024
12836TIP3    H260000   4.275   0.921   0.326 -0.5709 -0.5629  0.2281
12837TIP3   OH260001   0.895   3.807   0.041 -0.1498  0.4664  0.1161
12837TIP3    H160002   0.849   3.785  -0.040  0.9091  1.4939 -0.8016
12837TIP3    H260003   0.961   3.738   0.050  0.8262  1.2347 -0.8339
12838TIP3   OH260004   1.381   2.073   6.649 -0.4006 -0.3918 -0.6909
12838TIP3    H160005   1.399   2.028   6.732  0.7543  0.4540 -0.4369
12838TIP3    H260006   1.291   2.052   6.628 -0.4599 -1.2712  0.3800
12839TIP3   OH260007   5.408   5.935  13.691 -0.0431  0.2874 -0.5755
12839TIP3    H160008   5.439   5.875  13.624  0.8380  0.3418 -0.2317
12839TIP3    H260009   5.423   6.022  13.654  1.5523  0.3499  0.1303
12840TIP3   OH260010   4.527   6.089  14.315  0.1439 -0.6038  0.2110
12840TIP3    H160011   4.604   6.092  14.372 -0.5675 -1.2362  1.2244
12840TIP3    H260012   4.536   6.166  14.259  1.3330 -0.4809  0.5372
12841TIP3   OH260013   5.282   0.779  15.509  0.3385  0.0265  0.3347
12841TIP3    H160014   5.301   0.739  15.424 -0.3490  0.6411 -0.1196
12841TIP3    H260015   5.361   0.831  15.528  0.6964 -0.4981  0.3115
12842TIP3   OH260016   0.163   5.505  13.155  0.2110 -0.0491  0.8419
12842TIP3    H160017   0.237   5.447  13.137 -0.7394 -0.8571 -0.7095
12842TIP3    H260018   0.088   5.460  13.116 -0.4132  2.7717 -1.6215
12843TIP3   OH260019   1.579   0.676   3.983  0.2625  0.0787 -0.1095
12843TIP3    H160020   1.638   0.695   4.055  0.2176 -0.5934  0.1161
12843TIP3    H260021   1.566   0.581   3.987 -0.4342  0.1513 -0.4596
12844TIP3   OH260022   6.116   0.328   0.484  0.5170  0.0818  0.0462
12844TIP3    H160023   6.025   0.301   0.475  0.8378 -0.7853 -0.7147
12844TIP3    H260024   6.120   0.413   0.440  0.0007  0.2936  0.4000
12845TIP3   OH260025   4.193   0.844   3.875  0.3896 -0.2403 -0.0058
12845TIP3    H160026   4.269   0.867   3.823 -0.2838 -3.2189 -2.6177
12845TIP3    H260027   4.120   0.846   3.813 -0.7630 -2.3612  1.1602
12846TIP3   OH260028   5.491   1.430  11.155  0.7220 -0.6868  0.3577
12846TIP3    H160029   5.509   1.393  11.069  1.4623 -1.2905  0.7579
12846TIP3    H260030   5.498   1.524  11.142  0.6736 -0.7637 -0.2759
12847TIP3   OH260031   2.286   4.540  13.925  0.3577  0.1907 -0.3108
12847TIP3    H160032   2.260   4.623  13.885  0.7722  0.9605  0.9702
12847TIP3    H260033   2.342   4.565  13.998 -1.6883 -1.0460  1.8183
12848TIP3   OH260034   0.345   2.532   4.892  0.6429 -0.0583  0.5409
12848TIP3    H160035   0.329   2.531   4.797 -0.7948 -0.5285  0.7728
12848TIP3    H260036   0.403   2.607   4.905  2.4120 -1.1026 -0.9224
12849TIP3   OH260037   0.899   1.863  12.783  0.3207 -0.3115  0.3635
12849TIP3    H160038   0.808   1.892  12.771  1.0315  1.7132 -0.6552
12849TIP3    H260039   0.910   1.857  12.878 -0.6504  0.2167  0.5264
12850TIP3   OH260040   5.876   5.824  16.815  1.3676 -0.1534 -0.3475
12850TIP3    H160041   5.958   5.776  16.823  0.9156 -0.7378  1.1423
12850TIP3    H260042   5.881   5.893  16.881  0.7199 -0.1029 -0.3369
12851TIP3   OH260043   3.381   0.238  16.623 -0.4216  0.8884  0.7927
12851TIP3    H160044   3.454   0.181  16.647  0.0276  0.6966 -0.8756
12851TIP3    H260045   3.322   0.182  16.571 -0.4106  1.6899 -0.1276
12852TIP3   OH260046   3.007   2.674   5.282  0.0844  0.1334 -0.4581
12852TIP3    H160047   3.071   2.744   5.267 -1.0534  1.1718 -0.6438
12852TIP3    H260048   3.060   2.599   5.307  1.2820  1.3813  0.9889
12853TIP3   OH260049   5.992   2.326   5.758 -0.1289  0.4609 -0.0333
12853TIP3    H160050   5.904   2.362   5.750 -0.4015 -0.5680 -2.5723
12853TIP3    H260051   5.980   2.232   5.753  1.1010  0.2971 -0.2200
12854TIP3   OH260052   1.131   4.809  13.912 -0.1220 -0.2541 -0.1295
12854TIP3    H160053   1.134   4.871  13.839  0.9535 -1.3249 -1.0319
12854TIP3    H260054   1.082   4.734  13.878  0.2290 -0.6944  0.3227
12855TIP3   OH260055   2.132   0.122  11.787  0.0894 -0.6155  0.0867
12855TIP3    H160056   2.151   0.079  11.704 -2.0626 -0.7427 -0.4008
12855TIP3    H260057   2.149   0.215  11.771 -0.2487 -0.6514 -0.4900
12856TIP3   OH260058   1.109   0.170   2.070 -0.2874  0.2815 -0.0891
12856TIP3    H160059   1.192   0.134   2.102 -0.3675  0.0197 -0.1727
12856TIP3    H260060   1.042   0.126   2.121 -0.5413 -1.6814 -1.9652
12857TIP3   OH260061   0.710   1.419   0.013 -0.4818 -0.6284  0.2277
12857TIP3    H160062   0.718   1.473  -0.065  2.0738  0.3703  1.0684
12857TIP3    H260063   0.670   1.338  -0.017  2.2595 -1.1078 -2.6123
12858TIP3   OH260064   4.173   3.616   4.999  0.5587 -0.0995 -0.4384
12858TIP3    H160065   4.150   3.554   5.068  0.5048  2.2965  1.8229
12858TIP3    H260066   4.105   3.683   5.003  1.5551  1.0322 -1.6112
12859TIP3   OH260067   1.102   2.363   2.229  0.2885 -0.1722 -0.1513
12859TIP3    H160068   1.155   2.329   2.157  1.4991 -0.7392  0.9561
12859TIP3    H260069   1.145   2.444   2.255 -1.4120  1.2254 -1.4364
12860TIP3   OH260070   4.042   0.190  17.285  0.1479 -0.0062 -0.4677
12860TIP3    H160071   3.963   0.206  17.338  0.9622  0.9505  0.5059
12860TIP3    H260072   4.056   0.095  17.292  0.9906  0.2229  2.2356
12861TIP3   OH260073   4.570   2.886   2.378  0.3991 -0.6303 -0.4934
12861TIP3    H160074   4.650   2.907   2.425 -0.4154  0.9828  0.2352
12861TIP3    H260075   4.545   2.967   2.334 -0.4819 -1.2927 -1.2694
12862TIP3   OH260076   4.052   5.673   0.940  0.4149 -0.4066  0.1739
12862TIP3    H160077   4.115   5.699   0.873  0.7515 -0.6604  0.3875
12862TIP3    H260078   4.066   5.735   1.011 -2.2953  2.1127 -1.2747
12863TIP3   OH260079   3.044   1.524   5.539  0.2290 -0.0316 -0.2288
12863TIP3    H160080   3.019   1.598   5.484 -1.3814 -0.7984 -0.5809
12863TIP3    H260081   3.059   1.562   5.626  1.6536  1.0124 -0.8853
12864TIP3   OH260082   2.826   6.758   0.986 -0.6648  0.1839 -0.0128
12864TIP3    H160083   2.836   6.721   0.898  1.6847 -1.5700  0.9017
12864TIP3    H260084   2.766   6.832   0.973 -1.0171 -0.4564 -2.9298
12865TIP3   OH260085   3.529   1.904   1.580  0.7357  0.0038  0.0009
12865TIP3    H160086   3.565   1.818   1.603 -1.7871 -1.1282  0.0167
12865TIP3    H260087   3.606   1.957   1.560  2.4888 -1.6868  1.8220
12866TIP3   OH260088   3.058   5.343   5.217  0.5391  0.7278 -0.3051
12866TIP3    H160089   3.024   5.337   5.127  0.7928 -0.0744 -0.3518
12866TIP3    H260090   3.151   5.364   5.206  0.7208 -0.0277 -0.2515
12867TIP3   OH260091   1.766   2.975   1.606 -0.1980 -0.1874  0.4469
12867TIP3    H160092   1.684   3.012   1.638 -0.2248 -0.6779  0.9612
12867TIP3    H260093   1.740   2.909   1.543 -0.1465  0.7310 -0.5674
12868TIP3   OH260094   5.699   5.638  11.327  0.3677 -0.0970 -0.1396
12868TIP3    H160095   5.732   5.698  11.259  1.1286 -2.4697 -2.0061
12868TIP3    H260096   5.775   5.621  11.383  0.3210  0.1737  0.0080
12869TIP3   OH260097   0.587   3.029   3.831  0.9683 -0.2123  0.0757
12869TIP3    H160098   0.544   2.984   3.759 -2.2309  3.0860 -0.3971
12869TIP3    H260099   0.587   2.966   3.903  0.8712 -2.3542 -1.7230
12870TIP3   OH260100   4.804   3.442  13.215 -0.0910 -0.5230 -0.5778
12870TIP3    H160101   4.787   3.367  13.158 -0.9439  1.3280 -2.9504
12870TIP3    H260102   4.776   3.518  13.163 -0.5557  1.3581  2.2047
12871TIP3   OH260103   4.237   3.168  16.377 -0.4706  0.4397 -0.0686
12871TIP3    H160104   4.259   3.082  16.412 -0.6813  1.4722  2.8384
12871TIP3    H260105   4.266   3.229  16.444  0.5847  2.7600 -2.4692
12872TIP3   OH260106   3.999   1.513  17.229 -0.1459 -0.2957  0.0869
12872TIP3    H160107   4.065   1.456  17.189  0.0360 -1.3722  1.7902
12872TIP3    H260108   4.034   1.532  17.316 -0.8179  1.4255  0.0112
12873TIP3   OH260109   0.920   2.882   4.279  0.4511 -0.2509  0.3143
12873TIP3    H160110   0.929   2.941   4.204  1.3006 -0.7907 -0.0220
12873TIP3    H260111   0.952   2.798   4.247  2.9053 -0.0135  1.8956
12874TIP3   OH260112   6.062   2.915   3.109  0.0578  0.3422  0.0455
12874TIP3    H160113   6.006   2.911   3.032  0.6090 -1.4152 -0.2918
12874TIP3    H260114   6.096   2.826   3.120 -0.9230  0.1964  3.0088
12875TIP3   OH260115   3.208   0.171  16.319  0.2414 -0.4557  0.0077
12875TIP3    H160116   3.230   0.263  16.309 -0.4292 -0.2689  0.2137
12875TIP3    H260117   3.115   0.170  16.342  0.0234 -1.2174 -0.8237
12876TIP3   OH260118   2.731   5.904   6.068  0.0629 -0.4416 -0.2019
12876TIP3    H160119   2.731   5.815   6.032  0.9688 -1.0850  1.2678
12876TIP3    H260120   2.798   5.902   6.136 -0.8982  0.9755  0.8457
12877TIP3   OH260121   6.105   3.039   2.090 -0.0608 -0.3379  0.2553
12877TIP3    H160122   6.187   3.019   2.135 -0.5116  0.2603  1.3773
12877TIP3    H260123   6.038   3.028   2.157 -0.8468 -0.2590 -0.5056
12878TIP3   OH260124   4.099   5.432   0.102 -0.3604  0.1153  0.9706
12878TIP3    H160125   4.181   5.392   0.072 -1.0828  0.4324 -1.7482
12878TIP3    H260126   4.080   5.389   0.185  1.5974 -1.3140  0.7508
12879TIP3   OH260127   5.757   5.509   2.782 -0.5175  0.3493  0.5468
12879TIP3    H160128   5.776   5.432   2.836 -0.8764 -0.0756  0.0693
12879TIP3    H260129   5.715   5.474   2.704  0.3436  0.9269 -0.1885
12880TIP3   OH260130   1.962   4.438   2.154 -0.3395  0.9837  0.2236
12880TIP3    H160131   1.957   4.459   2.247  1.6172  0.1175  0.5703
12880TIP3    H260132   1.872   4.444   2.123 -1.3122 -0.3952  2.5490
12881TIP3   OH260133   3.109   6.524  10.302 -0.1890 -0.1211 -0.5459
12881TIP3    H160134   3.041   6.542  10.367  0.3959  0.9076 -0.1901
12881TIP3    H260135   3.108   6.600  10.244  1.6462  0.6864  0.3744
12882TIP3   OH260136   5.103   1.495   4.434 -0.4191  0.1492  0.2867
12882TIP3    H160137   5.175   1.433   4.449 -2.1099 -3.1252 -3.5015
12882TIP3    H260138   5.041   1.476   4.504  0.8152  0.5314  1.5334
12883TIP3   OH260139   2.635   3.282  11.205  0.2675 -0.4530  0.2539
12883TIP3    H160140   2.608   3.192  11.219  2.5172 -1.2854 -0.3568
12883TIP3    H260141   2.592   3.307  11.123 -0.7749 -0.7559  0.6872
12884TIP3   OH260142   2.277   0.485   2.735  0.2687 -0.2751 -0.7338
12884TIP3    H160143   2.347   0.504   2.673 -0.4410  0.6899 -1.2682
12884TIP3    H260144   2.301   0.533   2.814 -0.6751  1.6133 -1.5253
12885TIP3   OH260145   6.441   6.286  15.716  0.2256  0.0717 -0.2137
12885TIP3    H160146   6.450   6.205  15.766  2.1248  0.2870 -0.1519
12885TIP3    H260147   6.398   6.260  15.635 -1.4713 -0.5384  0.8147
12886TIP3   OH260148   0.205   4.250  15.539  0.1143  0.2159  0.6311
12886TIP3    H160149   0.155   4.330  15.556 -2.3859 -0.8139 -1.1891
12886TIP3    H260150   0.173   4.188  15.605 -0.1832 -0.1003  0.1992
12887TIP3   OH260151   0.860   4.026  11.227 -0.4729  0.3602  0.8597
12887TIP3    H160152   0.778   4.035  11.179 -0.1281  0.2588  0.2405
12887TIP3    H260153   0.920   4.086  11.183 -0.0438 -0.0225  0.9097
12888TIP3   OH260154   1.454   6.204   6.355  0.0438 -0.3749 -0.1334
12888TIP3    H160155   1.369   6.230   6.320  0.3373  0.0813 -0.5185
12888TIP3    H260156   1.500   6.286   6.372 -0.1843 -0.5758  1.5964
12889TIP3   OH260157   6.449   4.962  12.651 -0.5509  0.3108 -0.8496
12889TIP3    H160158   6.392   5.037  12.669 -1.0666 -0.2168 -0.2529
12889TIP3    H260159   6.530   5.001  12.618 -1.2810  1.0736 -1.8187
12890TIP3   OH260160   2.830   3.635   0.118  0.0084 -1.1989 -0.6027
12890TIP3    H160161   2.749   3.588   0.099 -0.6104 -0.6242  0.4794
12890TIP3    H260162   2.806   3.727   0.111  0.6424 -1.0282 -0.5658
12891TIP3   OH260163   1.058   6.208   0.728  0.8112 -0.3090  0.5025
12891TIP3    H160164   1.019   6.275   0.785  0.4153  0.4085 -0.5802
12891TIP3    H260165   1.125   6.255   0.678 -2.3012  0.4832 -3.4241
12892TIP3   OH260166   4.284   5.150   0.425 -0.2002 -0.4812 -0.7725
12892TIP3    H160167   4.296   5.244   0.442  0.1594 -0.7269  0.4243
12892TIP3    H260168   4.291   5.142   0.330 -1.0969  0.8181 -0.9673
12893TIP3   OH260169   5.991   4.430   3.794 -0.0187  0.3777  0.1734
12893TIP3    H160170   5.945   4.497   3.744  0.8777  1.9420  1.3476
12893TIP3    H260171   5.941   4.421   3.875  0.4930  0.4905  0.5108
12894TIP3   OH260172   4.732   5.277  16.509 -0.5831 -0.5867  0.3037
12894TIP3    H160173   4.814   5.257  16.555 -0.9379 -0.3914  1.0328
12894TIP3    H260174   4.701   5.191  16.478 -0.4972 -0.7713  0.7122
12895TIP3   OH260175   2.430   4.566   1.852 -0.7321  0.0257 -0.0558
12895TIP3    H160176   2.497   4.621   1.894  0.6679 -0.8180 -1.1012
12895TIP3    H260177   2.474   4.528   1.776 -2.7583  0.3694 -1.4976
12896TIP3   OH260178   4.804   6.732   4.304 -0.5773 -0.3526 -0.2829
12896TIP3    H160179   4.844   6.764   4.385 -2.4162 -1.1317  0.9854
12896TIP3    H260180   4.869   6.752   4.236  1.9467 -1.5353  1.6305
12897TIP3   OH260181   5.659   0.526  15.950  0.2872 -0.3460 -0.6307
12897TIP3    H160182   5.688   0.435  15.939  1.6662  0.2905 -2.6770
12897TIP3    H260183   5.569   0.526  15.917  0.6582 -0.7650 -1.6986
12898TIP3   OH260184   6.742   0.274   5.551 -0.6903 -0.3200  0.1504
12898TIP3    H160185   6.836   0.288   5.558 -0.7302 -0.0479  0.1553
12898TIP3    H260186   6.709   0.283   5.641 -1.0402  1.9829 -0.1462
12899TIP3   OH260187   3.797   4.512  11.811 -0.1461 -0.2768  0.3870
12899TIP3    H160188   3.744   4.564  11.751 -0.7801 -0.3932  0.8443
12899TIP3    H260189   3.735   4.456  11.857  0.3843 -0.5141  0.8330
12900TIP3   OH260190   0.982   0.450  13.590  0.1208 -0.5241 -0.1243
12900TIP3    H160191   1.073   0.432  13.568 -0.1347 -2.1660  0.0122
12900TIP3    H260192   0.951   0.506  13.519  1.0505 -0.5203 -0.5386
12901TIP3   OH260193   4.766   2.064  17.221 -0.1967 -0.5344 -0.5186
12901TIP3    H160194   4.714   2.065  17.140 -0.3863  0.5025 -0.3890
12901TIP3    H260195   4.828   1.992  17.208  1.0637  0.8037 -2.4094
12902TIP3   OH260196   6.661   1.237   2.023  0.1559 -0.0886  0.5848
12902TIP3    H160197   6.678   1.244   2.116  0.0682 -5.1271  1.2590
12902TIP3    H260198   6.745   1.258   1.981  0.1837  2.2720  1.6348
12903TIP3   OH260199   4.776   3.246   5.754 -0.3078  0.0759 -0.0398
12903TIP3    H160200   4.716   3.258   5.827 -1.2155 -0.1906 -0.7212
12903TIP3    H260201   4.783   3.332   5.714  0.5988  0.3378  0.6543
12904TIP3   OH260202   1.401   1.788   4.962 -0.4450  0.2319  0.1019
12904TIP3    H160203   1.459   1.799   4.886  1.2256  1.0427  1.4173
12904TIP3    H260204   1.323   1.746   4.926  1.9114 -3.4735 -1.4130
12905TIP3   OH260205   2.046   4.973   1.049  0.5228 -0.1423  0.4992
12905TIP3    H160206   2.028   4.895   1.102 -0.9068 -0.1051  0.0997
12905TIP3    H260207   1.959   5.009   1.030  1.0595  0.3315 -1.1469
12906TIP3   OH260208   4.247   0.855   2.228  0.2370  0.2212 -0.2692
12906TIP3    H160209   4.327   0.863   2.176  0.9838  0.8839  0.9170
12906TIP3    H260210   4.176   0.870   2.166  1.0641  0.2680 -1.2272
12907TIP3   OH260211   4.639   6.323  14.154 -0.2809  0.1655  0.3530
12907TIP3    H160212   4.675   6.399  14.199 -0.7632  1.7828 -1.8569
12907TIP3    H260213   4.550   6.349  14.130  0.4172  0.0343 -2.8081
12908TIP3   OH260214   2.764   3.254   2.682  0.0585 -0.3075  0.2299
12908TIP3    H160215   2.809   3.176   2.716  2.5140  1.1105  0.5214
12908TIP3    H260216   2.769   3.317   2.753 -1.2355  0.3793 -0.2580
12909TIP3   OH260217   2.279   4.602  11.901  0.3605 -0.1487  0.1691
12909TIP3    H160218   2.267   4.691  11.933  0.8798 -0.1190  0.2945
12909TIP3    H260219   2.252   4.546  11.975 -0.2473 -0.1048 -0.0131
12910TIP3   OH260220   0.535   4.701  15.192  0.7572 -0.3442 -0.4723
12910TIP3    H160221   0.553   4.763  15.264  0.2289  0.1671 -0.7672
12910TIP3    H260222   0.508   4.757  15.119 -1.8246 -1.0068 -0.1236
12911TIP3   OH260223   1.104   5.983   4.710  1.3878  0.3415 -0.2408
12911TIP3    H160224   1.096   5.940   4.795 -2.0799 -1.6104 -1.3733
12911TIP3    H260225   1.090   5.913   4.647  2.8569  1.9288 -2.4484
12912TIP3   OH260226   3.367   1.644  12.467  0.0107 -0.1260 -0.1308
12912TIP3    H160227   3.388   1.696  12.544  4.1698 -1.4868 -0.1265
12912TIP3    H260228   3.394   1.699  12.393  0.1354 -0.5176 -0.3800
12913TIP3   OH260229   0.417   1.255   3.388  0.1671 -0.1148 -0.4330
12913TIP3    H160230   0.447   1.327   3.443 -0.3630  0.3357 -0.7267
12913TIP3    H260231   0.343   1.291   3.340  0.8718 -0.3452 -1.7566
12914TIP3   OH260232   4.357   0.793  15.367 -0.1508 -0.3537  0.0060
12914TIP3    H160233   4.379   0.726  15.433  0.6327  0.0793  0.2048
12914TIP3    H260234   4.430   0.789  15.305  0.2179  0.7255  0.3513
12915TIP3   OH260235   1.402   2.145   2.273  0.0930 -0.6071 -0.6199
12915TIP3    H160236   1.375   2.237   2.264 -2.4513 -0.7940  3.1592
12915TIP3    H260237   1.486   2.150   2.320 -0.2753 -0.1917  0.0106
12916TIP3   OH260238   3.605   4.227   4.290 -0.0577 -1.0204  0.1176
12916TIP3    H160239   3.609   4.171   4.213  1.3903 -0.0535 -0.5600
12916TIP3    H260240   3.696   4.236   4.319  0.1314  2.6147 -1.0796
12917TIP3   OH260241   2.626   6.243   3.719  0.6578  0.0982  0.2600
12917TIP3    H160242   2.601   6.239   3.812 -0.2602  0.4299  0.0365
12917TIP3    H260243   2.669   6.159   3.703 -0.1950 -0.4495  0.7076
12918TIP3   OH260244   1.537   1.465   4.440 -0.7964 -0.3773  0.3557
12918TIP3    H160245   1.503   1.386   4.398 -3.1507  1.2620 -1.1404
12918TIP3    H260246   1.465   1.528   4.432  0.7694  1.7521  1.9781
12919TIP3   OH260247   6.269   2.834   3.436  0.4142 -0.2899 -0.0085
12919TIP3    H160248   6.298   2.921   3.461 -0.7542 -0.2427  1.2996
12919TIP3    H260249   6.309   2.819   3.350  1.9111  0.8754  0.4423
12920TIP3   OH260250   2.798   4.576  16.526 -0.2492 -0.8647 -0.3932
12920TIP3    H160251   2.775   4.603  16.437  1.3403  1.4544 -0.1895
12920TIP3    H260252   2.876   4.521  16.515 -1.1802 -2.2287 -0.5095
12921TIP3   OH260253   5.042   6.236   0.362  0.5245  0.3427  0.1316
12921TIP3    H160254   5.004   6.297   0.425 -0.3976  1.1521 -1.1441
12921TIP3    H260255   4.979   6.234   0.290  1.3530 -0.8447 -0.6054
12922TIP3   OH260256   5.215   0.660   2.882 -0.1357  0.3762  0.0457
12922TIP3    H160257   5.211   0.641   2.976  0.0548  0.9231  0.1718
12922TIP3    H260258   5.173   0.586   2.840 -0.2228  0.1271  0.5672
12923TIP3   OH260259   6.771   3.205   0.338  0.0298  0.3218  0.6407
12923TIP3    H160260   6.806   3.141   0.400 -1.0195 -1.6513 -0.6926
12923TIP3    H260261   6.823   3.191   0.258 -1.9704 -0.8480 -0.5305
12924TIP3   OH260262   6.039   5.801   2.563 -0.5132 -0.4133 -0.3453
12924TIP3    H160263   6.003   5.889   2.556 -1.8151 -0.3837  3.9767
12924TIP3    H260264   5.967   5.743   2.538 -0.4911 -0.3072 -0.6642
12925TIP3   OH260265   5.410   0.104   1.570 -0.4037  0.4558  0.4784
12925TIP3    H160266   5.332   0.051   1.590  0.6008 -0.4958  2.1203
12925TIP3    H260267   5.375   0.180   1.525 -2.3861  0.3201  1.6256
12926TIP3   OH260268   2.075   6.720   0.964 -0.7892 -0.4317 -0.2618
12926TIP3    H160269   2.101   6.635   1.001 -0.6225 -0.2332  0.0872
12926TIP3    H260270   2.156   6.755   0.927 -0.5577  0.1690  0.7849
12927TIP3   OH260271   5.305   0.496   5.639 -0.5693  0.1254  0.4043
12927TIP3    H160272   5.330   0.541   5.558 -1.3041 -0.3934 -0.1202
12927TIP3    H260273   5.370   0.525   5.703  0.1688  0.3556 -0.4279
12928TIP3   OH260274   1.720   6.061   6.584 -0.3609  0.0900 -0.6689
12928TIP3    H160275   1.681   5.988   6.535 -1.0771  0.4760 -0.6843
12928TIP3    H260276   1.646   6.116   6.608  0.0436  0.2073  0.3642
12929TIP3   OH260277   5.038   1.162   0.650 -0.2782 -0.1013 -0.3055
12929TIP3    H160278   5.041   1.238   0.708  1.0551 -0.9576  0.8344
12929TIP3    H260279   5.128   1.154   0.617 -0.8428 -0.0871 -1.9053
12930TIP3   OH260280   6.600   5.999  12.282 -0.6832 -0.3580  0.3982
12930TIP3    H160281   6.541   6.015  12.356 -0.6932  0.6570  0.1809
12930TIP3    H260282   6.597   5.904  12.269 -1.4034 -0.4390  1.1061
12931TIP3   OH260283   1.409   1.138   2.326  0.0671 -0.3705 -0.2200
12931TIP3    H160284   1.481   1.093   2.281  1.3241  0.6256  0.7318
12931TIP3    H260285   1.428   1.127   2.419 -1.8788 -1.4110  0.1039
12932TIP3   OH260286   2.927   3.462  15.978  0.0935  0.0018  0.0722
12932TIP3    H160287   2.893   3.380  16.016 -0.8464  0.1405 -0.4462
12932TIP3    H260288   2.932   3.445  15.884 -1.1758  0.8861 -0.1839
12933TIP3   OH260289   5.928   3.405  11.353  0.6086  0.2529  0.3722
12933TIP3    H160290   6.000   3.353  11.317  1.1949  0.9306  0.5444
12933TIP3    H260291   5.852   3.378  11.302  0.7508 -1.2706  0.9024
12934TIP3   OH260292   0.593   6.446   5.294 -0.0973 -0.1722 -0.1594
12934TIP3    H160293   0.527   6.480   5.233  0.0437 -0.4408 -0.4657
12934TIP3    H260294   0.561   6.359   5.316  0.4073 -0.4997 -0.6968
12935TIP3   OH260295   2.251   0.687  16.435  0.1532 -0.5375  0.7410
12935TIP3    H160296   2.278   0.779  16.431 -0.3063 -0.3928  0.9035
12935TIP3    H260297   2.316   0.646  16.492  2.5753 -1.1329 -2.1624
12936TIP3   OH260298   0.627   1.496  11.610 -0.5212 -0.5357  0.3272
12936TIP3    H160299   0.685   1.472  11.682  0.2233 -2.9305 -0.9379
12936TIP3    H260300   0.594   1.412  11.578  0.1499  0.2948 -2.8744
12937TIP3   OH260301   5.820   5.657   4.752  0.0543  0.0684 -0.0935
12937TIP3    H160302   5.744   5.646   4.695 -0.8390  0.6500  0.9503
12937TIP3    H260303   5.816   5.749   4.779  0.0012 -0.3750  1.5177
12938TIP3   OH260304   4.491   4.951  16.689  0.2041  0.5179  0.1711
12938TIP3    H160305   4.416   5.007  16.709 -1.6293 -2.4775  2.6187
12938TIP3    H260306   4.461   4.863  16.711  3.8459 -1.0930 -0.6644
12939TIP3   OH260307   6.453   4.314   4.977  0.5706 -0.0841  0.5902
12939TIP3    H160308   6.362   4.303   4.951  1.0906  0.7065 -1.7939
12939TIP3    H260309   6.468   4.409   4.972  1.9819 -0.3532 -0.8906
12940TIP3   OH260310   0.271   0.048  14.221  0.3870  0.5495 -0.2849
12940TIP3    H160311   0.194   0.096  14.250  0.3657  0.7996 -0.7571
12940TIP3    H260312   0.337   0.116  14.207  0.2084  0.4968 -1.4335
12941TIP3   OH260313   3.765   4.059   3.316 -0.1931 -0.8739  0.1593
12941TIP3    H160314   3.774   4.146   3.276  0.8263 -0.5269  1.1007
12941TIP3    H260315   3.670   4.047   3.324 -0.3619 -0.0587 -0.4254
12942TIP3   OH260316   6.402   4.998  11.633 -0.2273  0.0789 -0.8135
12942TIP3    H160317   6.415   4.933  11.702 -0.9347  0.8112  0.0465
12942TIP3    H260318   6.488   5.038  11.621 -0.0721 -0.1259 -0.4144
12943TIP3   OH260319   5.126   2.218  11.064 -0.7033  0.0366 -0.0599
12943TIP3    H160320   5.066   2.282  11.102  1.3099  1.8671  0.2129
12943TIP3    H260321   5.161   2.260  10.986  2.1002  0.1901  1.1376
12944TIP3   OH260322   4.509   5.138  17.007  0.4164 -0.3062 -0.1207
12944TIP3    H160323   4.538   5.202  16.943  2.3344  0.3440  1.2957
12944TIP3    H260324   4.518   5.053  16.963 -0.2894  0.2494 -1.3639
12945TIP3   OH260325   0.152   5.258   4.843  0.1845  0.1382  0.4186
12945TIP3    H160326   0.090   5.308   4.896 -0.9478 -1.4072  0.6271
12945TIP3    H260327   0.234   5.261   4.892 -0.4076  0.1258  1.4234
12946TIP3   OH260328   2.052   4.540  11.261  0.3958 -0.0925  0.1467
12946TIP3    H160329   2.036   4.489  11.182  0.0732 -0.4243  0.4197
12946TIP3    H260330   2.129   4.593  11.241  0.3812 -0.2558 -0.3472
12947TIP3   OH260331   6.408   0.081  11.194 -0.3068 -0.0533  0.0928
12947TIP3    H160332   6.334   0.117  11.145 -0.7976  0.9158  1.4784
12947TIP3    H260333   6.404  -0.013  11.178 -0.8041  0.1788 -1.2256
12948TIP3   OH260334   3.447   2.437   4.891 -0.1113  0.2711 -0.0237
12948TIP3    H160335   3.364   2.484   4.880 -0.2010  0.7335  2.1931
12948TIP3    H260336   3.426   2.346   4.868 -0.6862  0.7311 -1.4361
12949TIP3   OH260337   2.026   6.383   0.199 -0.3742 -0.3482  0.4741
12949TIP3    H160338   1.931   6.396   0.196 -0.2188  1.4809  1.8008
12949TIP3    H260339   2.059   6.436   0.127 -0.3776 -1.7960 -0.6439
12950TIP3   OH260340   2.288   3.774   1.719  0.3143 -0.8513  0.4550
12950TIP3    H160341   2.356   3.715   1.688  0.5764  0.7666 -2.3309
12950TIP3    H260342   2.217   3.765   1.656 -0.5728  0.1669  1.2594
12951TIP3   OH260343   6.163   5.571  14.373 -0.4450  0.1507  0.1303
12951TIP3    H160344   6.229   5.622  14.420  0.1994 -0.0448 -0.5443
12951TIP3    H260345   6.117   5.523  14.441 -0.9275  1.4711  0.7581
12952TIP3   OH260346   3.474   2.041  14.396 -0.2078 -0.3580 -0.0514
12952TIP3    H160347   3.468   2.055  14.490  0.0098 -0.8216  0.0339
12952TIP3    H260348   3.384   2.027  14.368 -0.2467 -0.4791  0.1295
12953TIP3   OH260349   6.129   0.661  14.911  0.1976 -0.1939  0.6473
12953TIP3    H160350   6.113   0.646  14.818 -0.6490  2.5502  0.2685
12953TIP3    H260351   6.045   0.647  14.953  0.5883 -1.4726  1.0567
12954TIP3   OH260352   4.625   0.584   5.595  0.3570  0.3351 -0.7129
12954TIP3    H160353   4.596   0.564   5.685  0.3538  0.5520 -0.6651
12954TIP3    H260354   4.643   0.678   5.596  0.2178  0.3643 -0.9807
12955TIP3   OH260355   3.374   0.924  16.369 -0.7144 -0.4406  0.0248
12955TIP3    H160356   3.443   0.907  16.306 -0.6878 -1.2353  0.2495
12955TIP3    H260357   3.299   0.953  16.316 -0.2338  0.3748 -0.2210
12956TIP3   OH260358   3.079   3.510  15.071 -0.1078  0.1994 -0.2028
12956TIP3    H160359   3.022   3.448  15.116  0.3163 -0.8339 -1.0267
12956TIP3    H260360   3.034   3.528  14.988 -0.1097  0.8291 -0.0752
12957TIP3   OH260361   4.454   6.466   5.911 -0.0067  0.0613  0.2910
12957TIP3    H160362   4.493   6.389   5.953  0.2941  0.3833  0.6029
12957TIP3    H260363   4.388   6.496   5.973 -2.6362 -1.9839 -1.2883
12958TIP3   OH260364   0.868   5.389  12.255 -0.1282 -0.3011  0.4655
12958TIP3    H160365   0.828   5.474  12.241  0.4501  0.2353  1.8429
12958TIP3    H260366   0.923   5.375  12.178  0.0271  0.7419  0.3696
12959TIP3   OH260367   4.335   4.702   3.657 -0.0472  0.2014  0.4180
12959TIP3    H160368   4.400   4.739   3.597  0.2092  0.0291  0.5866
12959TIP3    H260369   4.384   4.684   3.737 -0.4076  0.5213  0.7137
12960TIP3   OH260370   1.943   0.739  13.033 -0.3478 -0.0579 -0.5727
12960TIP3    H160371   1.884   0.699  12.969  0.2562 -0.8054 -0.6830
12960TIP3    H260372   2.018   0.679  13.036  0.3180  0.7797 -0.3019
12961TIP3   OH260373   3.331   0.724   4.066  0.1178 -0.1859 -0.3467
12961TIP3    H160374   3.237   0.734   4.053 -0.1509 -1.6675  0.1960
12961TIP3    H260375   3.339   0.652   4.129  1.4902  2.4906  2.8610
12962TIP3   OH260376   2.678   5.593   1.371  0.0438 -0.5621 -0.9660
12962TIP3    H160377   2.767   5.607   1.403  0.6640 -1.2453 -2.2929
12962TIP3    H260378   2.622   5.633   1.437  1.2770 -1.1241  0.4861
12963TIP3   OH260379   1.687   0.383   2.615  0.3296  0.5838  0.3654
12963TIP3    H160380   1.688   0.359   2.523 -0.6777  1.2203  0.1656
12963TIP3    H260381   1.746   0.320   2.657 -0.4143 -0.7341 -0.4720
12964TIP3   OH260382   1.272   0.599  11.857  0.5354  0.0081  0.1583
12964TIP3    H160383   1.194   0.642  11.822  1.6919  0.6847 -1.7441
12964TIP3    H260384   1.249   0.577  11.948 -1.8708  0.0901 -0.3693
12965TIP3   OH260385   2.920   0.878  14.676 -0.0350 -0.2214 -0.2409
12965TIP3    H160386   2.827   0.856  14.684  0.0679 -0.5396  0.1035
12965TIP3    H260387   2.953   0.819  14.608 -0.3211  0.6441 -1.1487
12966TIP3   OH260388   5.053   6.732   5.221  0.1114 -0.3895  0.4153
12966TIP3    H160389   4.963   6.755   5.246  0.3237  0.5341  0.3454
12966TIP3    H260390   5.106   6.760   5.295  0.3577 -0.8189  0.4003
12967TIP3   OH260391   6.064   5.019   5.776  0.2469  0.3331  0.9552
12967TIP3    H160392   6.134   5.005   5.841  0.5785 -0.3374  0.4676
12967TIP3    H260393   6.096   5.091   5.722  1.2526 -0.8782 -0.1503
12968TIP3   OH260394   6.211   3.860   1.951 -0.2780  0.1300 -0.3966
12968TIP3    H160395   6.125   3.833   1.980 -0.4222 -1.5787 -2.2313
12968TIP3    H260396   6.234   3.933   2.008 -1.4039 -1.6133  2.4707
12969TIP3   OH260397   0.304   0.635  14.440  0.1163 -0.0665  0.3725
12969TIP3    H160398   0.329   0.722  14.468  1.4005  0.6041 -2.4766
12969TIP3    H260399   0.386   0.587  14.433 -0.3704 -0.8646 -0.0446
12970TIP3   OH260400   5.552   4.164   6.103 -0.1564  0.3316  0.5524
12970TIP3    H160401   5.484   4.169   6.171 -0.0700  0.2860  0.6434
12970TIP3    H260402   5.579   4.072   6.103 -1.4918 -0.1060 -0.8714
12971TIP3   OH260403   4.088   4.250   1.690 -0.3938 -0.0923  0.4854
12971TIP3    H160404   4.146   4.184   1.727  0.3436 -0.5729 -1.4144
12971TIP3    H260405   4.147   4.321   1.663 -0.6959 -0.3798 -1.0263
12972TIP3   OH260406   4.182   3.885  12.606 -0.1042  0.0647  0.0935
12972TIP3    H160407   4.215   3.954  12.549  0.0988 -0.0259  0.0997
12972TIP3    H260408   4.168   3.810  12.549 -0.1398  0.0511  0.1201
12973TIP3   OH260409   1.320   5.956   3.217 -0.4436 -0.0418  0.6066
12973TIP3    H160410   1.378   5.938   3.291  0.4512  1.8240  0.4150
12973TIP3    H260411   1.332   5.882   3.159 -0.5242 -1.1321  1.9275
12974TIP3   OH260412   0.444   4.684  17.083 -0.2065  0.5912  0.1024
12974TIP3    H160413   0.395   4.701  17.002  0.2837 -0.3651 -0.4227
12974TIP3    H260414   0.485   4.768  17.104 -0.8987  1.0275 -0.2540
12975TIP3   OH260415   2.817   6.466   3.202 -0.1443  0.4523 -0.1826
12975TIP3    H160416   2.752   6.410   3.244  0.6195  0.2464  0.7611
12975TIP3    H260417   2.896   6.455   3.255  0.6965  0.6101 -1.3716
12976TIP3   OH260418   1.949   0.983  12.908 -1.0610 -0.0754  0.7509
12976TIP3    H160419   1.952   0.942  12.821  0.0414  2.5658 -0.5781
12976TIP3    H260420   1.958   0.910  12.969  2.9576 -1.7519 -1.4441
12977TIP3   OH260421   6.547   2.989   1.309  0.5734 -0.3170  0.4899
12977TIP3    H160422   6.617   2.926   1.293  0.1147 -0.7550  0.1966
12977TIP3    H260423   6.591   3.064   1.351  1.3338 -0.2836 -0.3407
12978TIP3   OH260424   2.693   2.135   5.735  0.0069 -0.0140 -0.2726
12978TIP3    H160425   2.770   2.126   5.680 -0.7578 -2.5105 -1.0644
12978TIP3    H260426   2.726   2.173   5.816  1.8799 -0.0743 -0.9555
12979TIP3   OH260427   3.122   0.564   5.501  0.2319 -0.4366 -0.0554
12979TIP3    H160428   3.120   0.646   5.451 -2.2491  1.3156  2.5808
12979TIP3    H260429   3.054   0.510   5.459  0.1270 -0.1319 -0.2895
12980TIP3   OH260430   1.147   6.083   2.845  0.1169  0.7184 -0.2310
12980TIP3    H160431   1.201   6.064   2.921  0.7152  0.9787 -0.5840
12980TIP3    H260432   1.126   6.176   2.854 -2.7097  0.0460  1.4352
12981TIP3   OH260433   1.658   1.292   2.252 -0.0752  0.3488 -0.0868
12981TIP3    H160434   1.716   1.365   2.275  2.3554 -1.6854  0.6967
12981TIP3    H260435   1.717   1.223   2.223 -2.2026 -1.6288  0.0125
12982TIP3   OH260436   2.733   2.959  16.668  0.0652 -0.8795 -0.2051
12982TIP3    H160437   2.653   2.999  16.633  0.5954  1.0319  0.6097
12982TIP3    H260438   2.745   2.880  16.616 -1.9626 -0.8412 -0.8108
12983TIP3   OH260439   6.092   4.510  14.769  0.3444 -0.0993  0.1906
12983TIP3    H160440   6.064   4.573  14.702  0.3763  0.2957  0.5439
12983TIP3    H260441   6.134   4.564  14.836 -1.3048 -0.2615  1.4067
12984TIP3   OH260442   2.000   4.971   4.982  0.0385  0.5935  0.3816
12984TIP3    H160443   2.046   4.890   5.006  0.7950  0.9437  0.1508
12984TIP3    H260444   2.070   5.032   4.958 -0.5925  0.8729 -0.8330
12985TIP3   OH260445   0.036   4.636   0.284 -0.1612  0.1547 -0.2779
12985TIP3    H160446  -0.007   4.586   0.353 -0.4152  0.6796 -0.0491
12985TIP3    H260447   0.128   4.641   0.311 -0.6612  2.2489  1.1785
12986TIP3   OH260448   4.777   1.893  14.575  0.7325  0.2154  0.2629
12986TIP3    H160449   4.713   1.945  14.623  1.0383 -0.2010  1.1463
12986TIP3    H260450   4.861   1.932  14.597  0.7573  1.3935 -1.6778
12987TIP3   OH260451   4.541   3.887   1.286  0.2858 -0.4566 -0.4621
12987TIP3    H160452   4.588   3.810   1.318 -0.6040 -0.5090  0.8103
12987TIP3    H260453   4.485   3.913   1.360  0.6414  1.4662 -0.8115
12988TIP3   OH260454   5.119   2.472   4.918 -0.2916 -0.3570 -0.0563
12988TIP3    H160455   5.204   2.431   4.934 -1.0146 -1.9620 -0.1294
12988TIP3    H260456   5.131   2.522   4.837  0.5478 -0.6405 -0.1158
12989TIP3   OH260457   3.687   1.084   6.611 -0.0191 -0.6761  0.2810
12989TIP3    H160458   3.629   1.022   6.567 -0.9684  0.2087  0.2423
12989TIP3    H260459   3.772   1.073   6.568 -0.8380 -0.0407 -1.6364
12990TIP3   OH260460   2.298   1.022   4.988 -1.0551  0.5649 -0.2317
12990TIP3    H160461   2.232   1.088   4.970 -2.3584 -0.8308 -0.8196
12990TIP3    H260462   2.370   1.043   4.929 -1.3431  1.5783 -0.2398
12991TIP3   OH260463   1.115   1.521  13.910  0.3448  0.6569  0.4591
12991TIP3    H160464   1.122   1.604  13.958 -1.4129  1.8927 -1.2575
12991TIP3    H260465   1.116   1.547  13.818 -0.2064 -1.2618 -0.1301
12992TIP3   OH260466   3.064   1.387   5.145 -0.7635  0.8309 -0.0574
12992TIP3    H160467   3.042   1.339   5.065  0.2500  1.8434 -0.9777
12992TIP3    H260468   3.159   1.385   5.149 -0.8129 -0.0675  1.7105
12993TIP3   OH260469   1.734   1.104   3.606  0.2255  0.0362  0.0331
12993TIP3    H160470   1.702   1.019   3.634 -1.6108 -0.0887 -2.2099
12993TIP3    H260471   1.678   1.167   3.652  0.3569 -0.0166  0.2664
12994TIP3   OH260472   6.423   1.270  13.948  0.4043  0.0932  0.1773
12994TIP3    H160473   6.515   1.264  13.973  0.4647 -1.1449 -0.2626
12994TIP3    H260474   6.425   1.279  13.852  0.1295  2.9624  0.3674
12995TIP3   OH260475   5.896   1.526   2.132  0.2995  0.1799 -0.3682
12995TIP3    H160476   5.809   1.489   2.152  0.0211  0.3307 -1.2498
12995TIP3    H260477   5.933   1.464   2.069  1.0113 -0.0979  0.3057
12996TIP3   OH260478   0.482   3.048   2.426  0.2367  0.0734 -0.6652
12996TIP3    H160479   0.530   3.099   2.361 -0.1172 -0.9037 -1.7207
12996TIP3    H260480   0.469   2.963   2.385  0.5068 -0.7657  0.9148
12997TIP3   OH260481   3.425   3.252   5.988 -0.0003 -0.0315 -0.7059
12997TIP3    H160482   3.464   3.231   6.073  1.0470 -0.0073 -1.1710
12997TIP3    H260483   3.343   3.202   5.987  0.3666 -0.6662 -0.0100
12998TIP3   OH260484   4.186   2.190   4.592 -0.0347  0.0425 -0.2051
12998TIP3    H160485   4.205   2.283   4.608  0.0227  0.4110 -2.1078
12998TIP3    H260486   4.096   2.189   4.560 -0.0813 -0.5655 -0.0596
12999TIP3   OH260487   3.176   4.122  13.869 -0.1501  0.0463 -0.1152
12999TIP3    H160488   3.193   4.154  13.780  1.3320  0.8215  0.4132
12999TIP3    H260489   3.235   4.173  13.924 -1.2061 -0.2722  1.3558
13000TIP3   OH260490   3.378   6.135   6.596  0.0863  0.1309 -0.4107
13000TIP3    H160491   3.427   6.054   6.581 -1.4071 -0.5050 -2.2711
13000TIP3    H260492   3.412   6.169   6.679  1.7116 -1.6729 -0.2706
13001TIP3   OH260493   3.674   3.991   6.086 -0.2045 -0.3090 -0.5446
13001TIP3    H160494   3.611   3.919   6.084  0.2956 -0.8570  1.1299
13001TIP3    H260495   3.664   4.029   6.173  0.8394  0.4475 -0.7340
13002TIP3   OH260496   3.550   0.487   5.260  0.5897  0.4600 -0.4007
13002TIP3    H160497   3.533   0.472   5.353  0.1813 -1.0934 -0.6933
13002TIP3    H260498   3.507   0.414   5.216  0.4000  1.3976 -1.8578
13003TIP3   OH260499   3.661   6.477   6.014 -0.0797 -0.7280  0.0091
13003TIP3    H160500   3.569   6.484   5.987  0.0007 -0.8672 -0.3109
13003TIP3    H260501   3.667   6.531   6.092 -0.1012  0.5255 -0.8253
13004TIP3   OH260502   5.185   3.271   1.564  0.0683 -0.2501  0.5311
13004TIP3    H160503   5.118   3.322   1.518 -0.7496  0.7132  2.6938
13004TIP3    H260504   5.217   3.210   1.498  0.0755  2.0744 -1.7758
13005TIP3   OH260505   2.866   4.329   2.916  1.1220 -0.0561  0.0098
13005TIP3    H160506   2.780   4.330   2.958  0.4948  0.8037 -1.2372
13005TIP3    H260507   2.848   4.343   2.823  2.7405  2.8475  0.0049
13006TIP3   OH260508   6.450   4.805   5.220  0.0417  0.4101 -0.3915
13006TIP3    H160509   6.461   4.719   5.260 -0.3500  0.9113  0.8503
13006TIP3    H260510   6.533   4.850   5.238 -0.0022  0.5189 -0.4644
13007TIP3   OH260511   3.594   3.839   5.439  0.5092  0.2946  0.0904
13007TIP3    H160512   3.519   3.846   5.498 -0.1153 -1.5115 -0.3990
13007TIP3    H260513   3.576   3.901   5.369 -1.5611 -1.4184 -1.0099
13008TIP3   OH260514   2.074   2.652   4.821  0.7601 -0.0046  0.1852
13008TIP3    H160515   2.052   2.740   4.791  1.3482  0.0855 -0.0149
13008TIP3    H260516   2.157   2.663   4.868  1.3672 -0.5830 -0.6936
13009TIP3   OH260517   3.896   0.241   4.572 -0.0866  0.8262  0.4186
13009TIP3    H160518   3.818   0.240   4.628  0.6127  0.5901  1.4222
13009TIP3    H260519   3.892   0.158   4.524  0.5557 -0.1671  1.9697
13010TIP3   OH260520   1.421   2.524   2.938  0.0728 -0.4477  0.0797
13010TIP3    H160521   1.504   2.561   2.970 -0.9023  2.6064 -0.5597
13010TIP3    H260522   1.378   2.489   3.016  2.0958 -2.5691  0.3562
13011TIP3   OH260523   0.793   0.817  11.574 -0.0810 -0.2110  0.0942
13011TIP3    H160524   0.889   0.817  11.571 -0.0686 -1.1186  0.3341
13011TIP3    H260525   0.767   0.799  11.484  0.0586 -4.4989  0.7307
13012TIP3   OH260526   5.515   3.822   4.418  0.2482  0.0435 -0.1322
13012TIP3    H160527   5.448   3.875   4.461 -0.5936 -1.5562  0.6000
13012TIP3    H260528   5.466   3.765   4.359  0.6611 -2.4469  1.7507
13013TIP3   OH260529   3.579   6.023  13.692  0.5481  0.2204 -0.1942
13013TIP3    H160530   3.541   5.941  13.725  1.6858 -0.3969 -0.3936
13013TIP3    H260531   3.635   5.997  13.620  2.1388  0.9940  0.7198
13014TIP3   OH260532   5.948   3.618   0.758 -0.1846  0.3053 -0.1780
13014TIP3    H160533   6.026   3.563   0.754 -0.3224  0.0172  0.8953
13014TIP3    H260534   5.903   3.602   0.675 -0.0331 -0.9087 -0.0314
13015TIP3   OH260535   2.590   5.547  12.078 -0.1938 -0.5196  0.1054
13015TIP3    H160536   2.609   5.630  12.035 -1.8090 -0.9542 -1.5524
13015TIP3    H260537   2.670   5.495  12.067  0.0263  0.0058 -0.8461
13016TIP3   OH260538   1.607   4.323  14.004 -0.7199 -0.4405  0.2766
13016TIP3    H160539   1.541   4.267  14.044 -1.9954  0.0588 -1.0610
13016TIP3    H260540   1.653   4.266  13.942 -1.8067 -0.1193 -0.8530
13017TIP3   OH260541   2.776   4.281   1.887  1.3622  0.5234  0.3367
13017TIP3    H160542   2.871   4.284   1.870  1.3172  1.6668  0.2090
13017TIP3    H260543   2.743   4.364   1.853  0.2909  0.0936  0.3025
13018TIP3   OH260544   3.416   0.161   6.476  0.3978 -0.2583 -0.1034
13018TIP3    H160545   3.469   0.081   6.482  1.3828  0.3428 -0.5429
13018TIP3    H260546   3.475   0.231   6.505 -0.8466  0.1778  1.5279
13019TIP3   OH260547   2.719   4.785   5.117  0.5208  0.0999 -0.0866
13019TIP3    H160548   2.767   4.765   5.037  1.4115 -1.8462  0.8776
13019TIP3    H260549   2.764   4.862   5.153  1.2360 -0.0862 -0.5564
13020TIP3   OH260550   4.080   4.992  11.692 -0.3621  0.5346  0.3945
13020TIP3    H160551   4.129   4.912  11.712 -1.8312 -0.4182  0.3353
13020TIP3    H260552   4.092   5.005  11.598 -2.1601 -1.0852 -0.1034
13021TIP3   OH260553   0.259   1.880  15.945 -0.1889  0.4880  0.4402
13021TIP3    H160554   0.172   1.845  15.965  0.6944 -2.5681 -0.5885
13021TIP3    H260555   0.317   1.842  16.011  0.8436 -0.0801 -0.7498
13022TIP3   OH260556   4.976   0.261   5.223  0.3099  0.8616  0.2675
13022TIP3    H160557   5.044   0.272   5.290  0.1815 -0.7618  0.6986
13022TIP3    H260558   4.899   0.304   5.260  0.4743  0.7041  0.7991
13023TIP3   OH260559   4.412   3.988  13.542 -0.0755  0.4199 -0.9359
13023TIP3    H160560   4.479   3.921  13.528  1.9594  1.9350  0.9120
13023TIP3    H260561   4.354   3.951  13.608  0.2816 -0.0029 -0.8565
13024TIP3   OH260562   2.075   3.546   4.369  0.4148 -0.3443 -0.1452
13024TIP3    H160563   2.055   3.453   4.357  1.2557 -0.6418  0.6379
13024TIP3    H260564   2.031   3.589   4.296  0.1852 -1.3813 -0.6443
13025TIP3   OH260565   6.753   4.380  13.163 -0.2014 -0.5833  0.1745
13025TIP3    H160566   6.669   4.348  13.195 -0.2530 -0.2346  0.3953
13025TIP3    H260567   6.759   4.469  13.197 -0.2495 -0.2026 -0.7654
13026TIP3   OH260568   1.944   4.668  14.563  0.4619  0.4806 -0.2849
13026TIP3    H160569   1.979   4.588  14.524  0.5485  0.5064 -0.2609
13026TIP3    H260570   2.013   4.699  14.622 -0.8358 -1.2610  2.3700
13027TIP3   OH260571   2.496   6.015  11.570 -0.5907 -0.3673  0.4762
13027TIP3    H160572   2.423   5.959  11.546 -0.6223 -0.0645 -0.1468
13027TIP3    H260573   2.573   5.975  11.530 -0.4091 -0.6680  1.1039
13028TIP3   OH260574   4.261   1.468  12.058  0.4701 -1.0826  0.6961
13028TIP3    H160575   4.356   1.454  12.058  0.5867 -0.3119  0.6977
13028TIP3    H260576   4.250   1.562  12.045 -0.3175 -1.2562  0.0413
13029TIP3   OH260577   4.384   1.816  13.439 -0.0867  0.1547  0.7263
13029TIP3    H160578   4.409   1.727  13.465  0.6876 -0.2730 -1.2824
13029TIP3    H260579   4.291   1.822  13.463  0.2680 -0.5424  2.4549
13030TIP3   OH260580   3.058   2.061   3.708  0.2930  0.4697  0.0881
13030TIP3    H160581   3.004   2.102   3.776  1.2009  2.3930 -0.2886
13030TIP3    H260582   3.017   2.088   3.626 -0.0548 -0.7873 -0.1695
13031TIP3   OH260583   1.194   1.140  11.594 -0.1655  0.1250  0.2765
13031TIP3    H160584   1.152   1.183  11.520  0.3680  0.2003  0.0167
13031TIP3    H260585   1.288   1.144  11.575 -0.0886 -0.9698  0.3374
13032TIP3   OH260586   1.696   0.182  11.657  0.1127 -0.3263 -0.2539
13032TIP3    H160587   1.739   0.254  11.612  0.7242 -0.6351 -0.1747
13032TIP3    H260588   1.610   0.217  11.682 -0.3753 -0.2332 -1.9044
13033TIP3   OH260589   3.970   3.027  11.947  0.0451 -0.4632  0.0522
13033TIP3    H160590   3.952   2.980  11.865  0.3764  2.0248 -1.5573
13033TIP3    H260591   3.883   3.040  11.986 -0.1493 -1.3955 -0.0346
13034TIP3   OH260592   6.596   5.808   1.696 -0.1872  0.4908  0.0176
13034TIP3    H160593   6.670   5.848   1.742  1.2419 -0.9736 -0.8996
13034TIP3    H260594   6.622   5.807   1.604  0.8114 -4.1382  0.1103
13035TIP3   OH260595   3.916   1.953   4.814 -0.3949 -0.2268 -0.4182
13035TIP3    H160596   3.835   1.995   4.786 -0.0594  0.3705 -0.5042
13035TIP3    H260597   3.952   2.011   4.881 -0.9448 -1.3855  0.9483
13036TIP3   OH260598   5.255   1.150   5.450  0.2892 -0.1402 -0.3258
13036TIP3    H160599   5.328   1.128   5.508 -0.5312 -0.2077  0.7093
13036TIP3    H260600   5.243   1.244   5.461 -2.1702 -0.6282  2.4967
13037TIP3   OH260601   1.310   2.003   5.926 -0.0897  0.2989  0.0533
13037TIP3    H160602   1.392   1.963   5.895 -1.1515 -0.3631 -2.0968
13037TIP3    H260603   1.327   2.097   5.922  0.9437  0.1658  0.8184
13038TIP3   OH260604   2.243   3.993   3.566  0.1035 -0.2867 -0.1979
13038TIP3    H160605   2.152   3.972   3.547  0.4100 -0.7760 -1.1443
13038TIP3    H260606   2.245   4.006   3.661 -1.0601  0.3016 -0.2400
13039TIP3   OH260607   0.585   1.594  14.562 -0.2150 -0.1635  0.3159
13039TIP3    H160608   0.636   1.528  14.609 -1.1902 -0.4952  0.9396
13039TIP3    H260609   0.567   1.553  14.477 -1.8358 -1.2524  1.1230
13040TIP3   OH260610   3.395   6.482  12.202  0.9702  0.1023  0.5059
13040TIP3    H160611   3.463   6.498  12.137  0.1857  2.0794  0.0725
13040TIP3    H260612   3.323   6.540  12.175 -0.7279 -1.6074  1.1602
13041TIP3   OH260613   3.669   4.813  15.568  0.7603 -1.0508 -0.9243
13041TIP3    H160614   3.734   4.877  15.538  1.4962 -1.3886 -0.0848
13041TIP3    H260615   3.625   4.784  15.488  0.6269  0.2601 -1.3508
13042TIP3   OH260616   3.522   4.218  11.317  0.3036  0.0947  0.1975
13042TIP3    H160617   3.428   4.197  11.310 -0.0813  1.7233  0.0088
13042TIP3    H260618   3.551   4.172  11.396 -0.6763 -0.3447  0.3239
13043TIP3   OH260619   4.190   1.152   1.556 -0.3929  0.0250  0.1582
13043TIP3    H160620   4.266   1.206   1.579 -0.4030  1.2815 -2.4292
13043TIP3    H260621   4.228   1.070   1.525  0.1303  1.1063 -2.3563
13044TIP3   OH260622   1.045   3.197   3.537 -0.0477  0.5467  0.0429
13044TIP3    H160623   0.959   3.238   3.535  0.3037  1.3149 -2.3958
13044TIP3    H260624   1.049   3.154   3.622 -2.1496  1.9253  0.9170
13045TIP3   OH260625   0.612   3.514  17.063 -0.1777  0.0421  0.0299
13045TIP3    H160626   0.692   3.520  17.011 -0.3769 -1.5213 -0.4998
13045TIP3    H260627   0.582   3.424  17.052 -1.7035  0.4271  0.6902
13046TIP3   OH260628   5.489   1.647  13.955 -0.0930  0.3867 -0.1513
13046TIP3    H160629   5.403   1.683  13.931  0.2733  0.8714 -0.7613
13046TIP3    H260630   5.493   1.564  13.907 -0.5232 -0.0000  0.4661
13047TIP3   OH260631   5.255   1.588  16.785 -0.1669  0.0355  0.2015
13047TIP3    H160632   5.288   1.625  16.866 -1.6992  0.8701  0.4990
13047TIP3    H260633   5.173   1.545  16.810 -0.7103  0.3893 -0.8933
13048TIP3   OH260634   4.398   0.482   5.422 -0.2704  0.1708 -0.1655
13048TIP3    H160635   4.458   0.462   5.494  1.3078 -0.3749 -1.5949
13048TIP3    H260636   4.393   0.578   5.421 -1.5118  0.1912  1.5662
13049TIP3   OH260637   1.468   2.655   0.882 -0.0789  0.2973  0.1730
13049TIP3    H160638   1.415   2.734   0.888  1.2428  1.2158  0.2546
13049TIP3    H260639   1.444   2.604   0.960  0.4327  1.5300  1.1811
13050TIP3   OH260640   1.663   1.355   4.957  0.4537 -0.3359  0.0906
13050TIP3    H160641   1.643   1.317   5.043 -0.8784 -1.9396 -0.8493
13050TIP3    H260642   1.648   1.449   4.968 -1.6527 -0.7239  1.1378
13051TIP3   OH260643   0.992   2.925  14.010 -0.5650  0.3170  0.1008
13051TIP3    H160644   1.066   2.979  13.981 -0.1942 -0.2573 -0.0410
13051TIP3    H260645   1.019   2.835  13.991 -1.9040  0.1698 -1.3193
13052TIP3   OH260646   5.212   4.712   3.356 -0.0504  0.2798  0.2247
13052TIP3    H160647   5.215   4.691   3.262  0.0945 -0.5535  0.4160
13052TIP3    H260648   5.275   4.653   3.396 -0.0061  0.7324  0.8393
13053TIP3   OH260649   2.122   6.601  11.120  0.3104  0.1086 -0.3335
13053TIP3    H160650   2.055   6.624  11.184  0.3703  0.1894 -0.2991
13053TIP3    H260651   2.079   6.609  11.035  0.2711  0.1415 -0.3099
13054TIP3   OH260652   4.318   1.176  11.966 -0.1553  0.5053 -0.3803
13054TIP3    H160653   4.297   1.085  11.986  0.1457  1.1943  4.1554
13054TIP3    H260654   4.235   1.217  11.943 -1.0667 -0.1331  1.6227
13055TIP3   OH260655   0.253   3.601   0.693 -0.0090 -0.3117 -0.1841
13055TIP3    H160656   0.273   3.681   0.645 -0.9274  0.4935  0.7450
13055TIP3    H260657   0.299   3.610   0.776 -0.7601 -0.3760  0.2460
13056TIP3   OH260658   5.796   6.569  11.936  0.1237  0.0681 -0.0987
13056TIP3    H160659   5.781   6.479  11.908 -1.4693  0.3499 -0.2127
13056TIP3    H260660   5.814   6.616  11.854  1.2762 -0.1826 -0.0082
13057TIP3   OH260661   5.421   5.666   1.463  0.0521 -0.2898 -0.0489
13057TIP3    H160662   5.492   5.664   1.399  0.5618 -2.5574  0.5103
13057TIP3    H260663   5.375   5.748   1.445  2.4640  0.9843 -0.7813
13058TIP3   OH260664   5.411   2.419   4.005  0.1491 -0.4369 -0.1935
13058TIP3    H160665   5.422   2.513   4.021  4.0569 -0.8359  0.3747
13058TIP3    H260666   5.323   2.400   4.038 -0.4448  2.8243  0.5198
13059TIP3   OH260667   6.649   6.466   5.879 -0.0358  0.0858  0.3245
13059TIP3    H160668   6.732   6.504   5.850 -0.0392  0.7497  1.1271
13059TIP3    H260669   6.662   6.372   5.873 -0.2946  0.1612 -2.4483
13060TIP3   OH260670   5.621   5.539  16.463 -0.6355  0.4779 -0.2463
13060TIP3    H160671   5.606   5.630  16.436 -1.8065 -0.3577 -2.7759
13060TIP3    H260672   5.711   5.539  16.497 -1.1777  2.8676  1.4428
13061TIP3   OH260673   4.972   5.161  12.506  0.2725 -0.2211  0.4888
13061TIP3    H160674   5.008   5.110  12.578  0.6921 -0.9328 -0.2069
13061TIP3    H260675   4.974   5.251  12.537 -0.0705 -0.5737  1.5698
13062TIP3   OH260676   1.148   1.422  16.915  0.0892 -0.0221  0.5591
13062TIP3    H160677   1.140   1.361  16.841 -0.5273 -0.7542  1.2070
13062TIP3    H260678   1.237   1.407  16.948  0.1922 -0.0496  0.2748
13063TIP3   OH260679   6.044   2.708   1.233 -0.1870  0.1360  0.4015
13063TIP3    H160680   5.991   2.630   1.249 -1.6102  0.4816 -2.0657
13063TIP3    H260681   6.046   2.754   1.317 -0.0214 -2.0903  1.6898
13064TIP3   OH260682   4.097   1.848  11.679  0.1497  0.0407  0.0227
13064TIP3    H160683   4.038   1.911  11.719 -1.2209 -2.5101  2.3349
13064TIP3    H260684   4.048   1.813  11.604  1.3275  2.2885 -1.9365
13065TIP3   OH260685   4.100   6.725  17.319  0.2554  0.1884 -0.4323
13065TIP3    H160686   4.064   6.636  17.321 -0.3037  0.4130  0.2193
13065TIP3    H260687   4.110   6.748  17.411 -1.3550  1.4635 -0.5239
13066TIP3   OH260688   0.102   3.991   0.369  0.2880  0.2661  0.1137
13066TIP3    H160689   0.123   3.921   0.307 -0.8951 -0.7662  0.8362
13066TIP3    H260690   0.073   4.064   0.313 -1.4735 -0.8952 -0.5710
13067TIP3   OH260691   5.968   2.394  15.335 -0.2478  0.5683 -0.0445
13067TIP3    H160692   5.884   2.418  15.375 -0.3150  2.8507 -1.4447
13067TIP3    H260693   6.018   2.475  15.333  1.6580 -0.5550 -0.1348
13068TIP3   OH260694   3.351   3.262   4.054  0.2302  0.4302  0.4049
13068TIP3    H160695   3.256   3.277   4.049  0.0953 -0.7133 -1.2794
13068TIP3    H260696   3.369   3.250   4.147 -1.4364 -0.2246  0.6774
13069TIP3   OH260697   5.835   3.614   4.045 -0.0271 -0.0976 -0.4455
13069TIP3    H160698   5.903   3.582   4.103 -0.2911 -2.0807 -1.1739
13069TIP3    H260699   5.879   3.677   3.988  1.4082 -1.9420 -1.4407
13070TIP3   OH260700   3.075   5.695  15.138 -0.1600  0.1293  0.0773
13070TIP3    H160701   3.066   5.674  15.045 -2.3317  0.3352  0.1924
13070TIP3    H260702   3.048   5.786  15.145 -1.6248 -0.3460  1.0998
13071TIP3   OH260703   4.131   5.816   2.794 -0.7967  0.4030  0.1215
13071TIP3    H160704   4.049   5.845   2.755 -1.8331  0.0068  1.8874
13071TIP3    H260705   4.112   5.808   2.888  0.6403 -1.7700  0.3052
13072TIP3   OH260706   3.219   3.593   2.470 -0.3813 -0.4790  0.4716
13072TIP3    H160707   3.148   3.534   2.493 -0.2161 -0.4102  1.1985
13072TIP3    H260708   3.287   3.575   2.534  0.8007 -1.4694 -1.0109
13073TIP3   OH260709   0.572   5.268  10.355 -0.1640  0.0817  0.3029
13073TIP3    H160710   0.601   5.179  10.336  0.0268  0.2789 -0.3551
13073TIP3    H260711   0.646   5.308  10.401  0.2624  0.2898 -0.5377
13074TIP3   OH260712   2.022   3.359  16.036 -0.3112 -0.2210  0.3997
13074TIP3    H160713   1.938   3.340  16.079 -0.1460 -1.5470  0.1562
13074TIP3    H260714   2.060   3.273  16.018  0.8269  0.3618 -0.0475
13075TIP3   OH260715   4.666   5.004   4.054  0.0549 -0.4296 -0.4380
13075TIP3    H160716   4.707   4.963   3.978  1.3904  0.9371 -0.5127
13075TIP3    H260717   4.588   5.047   4.019 -0.2490 -1.1992 -0.7189
13076TIP3   OH260718   3.861   1.698  14.006 -0.0363 -0.1235  0.4581
13076TIP3    H160719   3.802   1.773  14.014  1.5716  1.1729  0.7903
13076TIP3    H260720   3.843   1.645  14.084 -1.9826 -0.7235 -0.3502
13077TIP3   OH260721   2.808   0.361  16.760  0.3921 -0.4681  0.6426
13077TIP3    H160722   2.791   0.404  16.676  1.8789 -2.6977 -0.8860
13077TIP3    H260723   2.898   0.385  16.782  0.1192 -0.1597  1.4636
13078TIP3   OH260724   5.638   5.413  13.227 -0.5550 -0.0393  0.6110
13078TIP3    H160725   5.664   5.353  13.297 -2.0301 -1.4937 -0.0018
13078TIP3    H260726   5.569   5.467  13.266 -0.3534  0.1514  0.7021
13079TIP3   OH260727   4.020   0.893   2.060  0.1317 -0.4979  0.4980
13079TIP3    H160728   4.020   0.800   2.038  0.6594 -0.3127 -0.3700
13079TIP3    H260729   3.972   0.935   1.988  1.4906  0.0816 -0.1117
13080TIP3   OH260730   6.523   4.647  16.807  0.9245  0.1782  0.3589
13080TIP3    H160731   6.599   4.632  16.752 -0.3785 -0.0685 -1.4689
13080TIP3    H260732   6.486   4.560  16.823  0.0621  0.4160 -0.2501
13081TIP3   OH260733   2.795   3.621  11.669 -0.2153 -0.5096 -0.1009
13081TIP3    H160734   2.770   3.529  11.664 -0.3993 -0.3820 -2.6449
13081TIP3    H260735   2.830   3.641  11.583  2.3178  1.1479  1.2006
13082TIP3   OH260736   5.698   6.181  16.903 -0.0552 -0.6381 -0.1207
13082TIP3    H160737   5.724   6.268  16.935 -1.6341 -0.0489 -0.3132
13082TIP3    H260738   5.705   6.124  16.980  0.6857 -0.2653  0.0913
13083TIP3   OH260739   1.801   1.145   4.606 -0.1033 -0.0739  0.3402
13083TIP3    H160740   1.771   1.125   4.518  0.9227  0.1932 -0.0922
13083TIP3    H260741   1.728   1.123   4.663 -0.9254  0.1367 -0.6163
13084TIP3   OH260742   2.152   5.166  17.236  0.0290  0.1034 -0.0072
13084TIP3    H160743   2.187   5.242  17.190  0.0151  0.1903  0.1253
13084TIP3    H260744   2.185   5.090  17.187  0.7643  0.1671  0.3631
13085TIP3   OH260745   6.736   1.839  15.589  0.1539 -0.1907  0.1731
13085TIP3    H160746   6.763   1.854  15.498 -1.8567 -1.6266 -0.7508
13085TIP3    H260747   6.760   1.919  15.635  1.9945  0.2494 -1.4105
13086TIP3   OH260748   2.512   3.596   4.543 -0.7344  0.0160  0.1252
13086TIP3    H160749   2.504   3.674   4.599  0.6755 -0.6815  1.3477
13086TIP3    H260750   2.574   3.622   4.474  1.4477 -0.6283  1.7528
13087TIP3   OH260751   3.996   4.753   0.619 -0.0576 -0.0930  0.2827
13087TIP3    H160752   3.939   4.700   0.564 -1.4402  1.3933  0.2254
13087TIP3    H260753   4.044   4.809   0.558  2.0603 -1.8101  0.2713
13088TIP3   OH260754   5.963   0.137   5.652  0.5848  0.0159 -0.5715
13088TIP3    H160755   5.901   0.176   5.713 -0.9665 -0.8754 -1.5052
13088TIP3    H260756   5.913   0.124   5.572  2.0521 -0.5592 -1.4449
13089TIP3   OH260757   5.093   4.567  16.817  0.2379  0.1147  0.0268
13089TIP3    H160758   5.144   4.648  16.825 -0.0527  0.1829  1.4398
13089TIP3    H260759   5.091   4.531  16.905 -0.7401 -0.7641 -0.3329
13090TIP3   OH260760   6.180   3.164  13.068  0.2471 -0.4352 -0.5774
13090TIP3    H160761   6.119   3.206  13.128 -1.1699 -3.1828  0.0726
13090TIP3    H260762   6.135   3.166  12.983 -0.6995 -2.1927 -0.1597
13091TIP3   OH260763   5.623   6.367  11.784  0.1359  0.1748  0.1415
13091TIP3    H160764   5.605   6.285  11.737  1.7210 -0.7674  1.1128
13091TIP3    H260765   5.536   6.402  11.803 -0.6206  0.4059 -3.0656
13092TIP3   OH260766   5.586   1.324  12.565 -0.0232 -0.0836  0.0448
13092TIP3    H160767   5.513   1.378  12.534  0.5365 -0.8625 -2.9819
13092TIP3    H260768   5.659   1.386  12.574 -0.1990  0.1768 -0.2682
13093TIP3   OH260769   1.053   0.562   1.419 -0.3764  0.2302 -0.2335
13093TIP3    H160770   1.121   0.511   1.376 -0.4564  1.0738 -1.4021
13093TIP3    H260771   1.051   0.645   1.372  0.5650  1.8395  2.3503
13094TIP3   OH260772   5.289   3.739   1.323 -0.0233 -0.6387 -0.0366
13094TIP3    H160773   5.382   3.717   1.313  0.5367  0.7806  1.6270
13094TIP3    H260774   5.281   3.828   1.288 -1.1012 -1.2821 -1.5439
13095TIP3   OH260775   6.200   6.177  14.502  0.4137 -0.1487  0.1969
13095TIP3    H160776   6.243   6.097  14.475 -0.1878  0.3075 -2.3199
13095TIP3    H260777   6.131   6.148  14.562  2.0309 -1.1768  1.6399
13096TIP3   OH260778   4.328   0.371   1.095  0.5201  0.0210 -0.3019
13096TIP3    H160779   4.234   0.369   1.077  0.3145  1.1456  0.5336
13096TIP3    H260780   4.366   0.422   1.023  0.6099 -1.0567 -1.0393
13097TIP3   OH260781   2.642   5.611   5.596  0.2650  0.3165  0.9492
13097TIP3    H160782   2.616   5.528   5.557 -2.9253  1.5057  0.2603
13097TIP3    H260783   2.608   5.608   5.685 -1.6919  1.5492  0.3144
13098TIP3   OH260784   0.869   2.592   1.469  0.4440  0.1312 -0.1536
13098TIP3    H160785   0.791   2.591   1.524  0.6352 -2.4160  0.1806
13098TIP3    H260786   0.901   2.502   1.471  2.6521  0.8188 -1.3579
13099TIP3   OH260787   3.984   2.214   4.983 -0.0967  0.1760 -0.2858
13099TIP3    H160788   4.048   2.257   5.039  0.2909 -0.8914  0.1175
13099TIP3    H260789   3.982   2.267   4.904  2.6089 -0.6820 -1.0417
13100TIP3   OH260790   1.077   6.018   3.991  0.0090 -0.5052 -0.2774
13100TIP3    H160791   1.046   6.012   3.901 -0.4393 -0.1133 -0.1525
13100TIP3    H260792   1.158   5.967   3.991 -1.3666 -2.8298 -0.2325
13101TIP3   OH260793   1.574   3.998  16.922  0.1027 -0.1093  0.5390
13101TIP3    H160794   1.514   4.047  16.978  1.3181  0.2997  1.5462
13101TIP3    H260795   1.590   3.916  16.970  1.6280  0.5033  1.1528
13102TIP3   OH260796   3.981   6.024  13.860  0.4167  0.0668 -0.4685
13102TIP3    H160797   3.910   6.001  13.920  0.1476 -0.4071 -0.9487
13102TIP3    H260798   4.052   5.964  13.883  0.8800  0.9107  0.3800
13103TIP3   OH260799   5.783   0.042  12.955  0.6568  0.1169  0.0908
13103TIP3    H160800   5.859   0.097  12.973  0.1633  0.5180  1.0092
13103TIP3    H260801   5.715   0.074  13.014  0.3483 -1.4831  0.6634
13104TIP3   OH260802   6.068   5.738   5.572 -0.1126 -0.3818 -0.1719
13104TIP3    H160803   6.135   5.806   5.566 -0.1541  0.0797  3.0321
13104TIP3    H260804   5.987   5.782   5.545  0.4479 -0.3289 -1.8900
13105TIP3   OH260805   3.558   2.726   5.790  0.2978 -0.1908  0.3305
13105TIP3    H160806   3.587   2.804   5.742  0.0564 -0.5346 -0.3862
13105TIP3    H260807   3.466   2.744   5.811  1.3640  1.8229  4.4259
13106TIP3   OH260808   3.686   2.842  14.675 -0.3460 -0.1451 -0.3849
13106TIP3    H160809   3.720   2.890  14.751 -0.4009  0.3533 -0.6663
13106TIP3    H260810   3.746   2.768  14.664  0.7207  0.7677 -0.9296
13107TIP3   OH260811   3.774   1.487  12.288  0.2049  0.1584  0.2731
13107TIP3    H160812   3.717   1.560  12.264  0.7713  0.3438 -0.5762
13107TIP3    H260813   3.826   1.521  12.361  1.3414  1.0957 -0.9064
13108TIP3   OH260814   1.561   2.295  10.735 -0.1004  0.0348  0.2648
13108TIP3    H160815   1.609   2.271  10.656  1.1192 -0.3799  1.1049
13108TIP3    H260816   1.602   2.244  10.805  0.1800  1.8669  1.5203
13109TIP3   OH260817   6.068   1.552   5.130  0.5676 -0.2879 -0.1525
13109TIP3    H160818   6.001   1.607   5.089  1.0071 -0.5806 -1.2789
13109TIP3    H260819   6.077   1.477   5.071  3.1170  0.5552 -0.9695
13110TIP3   OH260820   2.477   6.250  15.503  0.0878  0.5630 -0.0890
13110TIP3    H160821   2.390   6.279  15.530  0.5434  2.4487 -0.5019
13110TIP3    H260822   2.515   6.327  15.460  1.3737 -0.7084 -1.2915
13111TIP3   OH260823   4.244   3.745   3.547 -0.3378  0.0348  0.2640
13111TIP3    H160824   4.233   3.763   3.454  1.5506  0.0158 -0.0071
13111TIP3    H260825   4.334   3.773   3.566  0.7800 -3.5738  1.1557
13112TIP3   OH260826   6.458   1.663   1.503  0.1347 -0.0418  0.3868
13112TIP3    H160827   6.373   1.696   1.476  0.1449  0.0727  0.4920
13112TIP3    H260828   6.521   1.718   1.457  0.1855 -1.5791 -1.5180
13113TIP3   OH260829   1.262   3.641  16.848  0.2367  0.1967  0.1650
13113TIP3    H160830   1.276   3.723  16.896  0.5216 -0.0312  0.4746
13113TIP3    H260831   1.182   3.604  16.885 -0.7394  1.0657 -1.0048
13114TIP3   OH260832   3.129   4.242   0.057  0.1207 -0.3274  0.2907
13114TIP3    H160833   3.079   4.176   0.106  0.7575 -1.1627 -0.1704
13114TIP3    H260834   3.220   4.228   0.084  0.2016  0.7640  0.6371
13115TIP3   OH260835   2.263   3.569   5.102 -0.4254  0.0199 -0.2664
13115TIP3    H160836   2.270   3.574   5.198 -2.4394  0.1554 -0.0783
13115TIP3    H260837   2.221   3.485   5.085  1.7449 -0.9508 -1.2173
13116TIP3   OH260838   4.915   6.268  14.311 -0.6364 -0.1726 -0.0544
13116TIP3    H160839   4.996   6.223  14.288 -1.5740 -1.7754 -0.3425
13116TIP3    H260840   4.914   6.346  14.256  0.5314 -0.3268 -0.3043
13117TIP3   OH260841   0.255   1.741   1.707  0.6258 -0.1573  0.0311
13117TIP3    H160842   0.183   1.801   1.727 -0.3200 -1.4568  0.6725
13117TIP3    H260843   0.251   1.730   1.612 -1.2836 -1.6889  0.2390
13118TIP3   OH260844   3.327   1.818  12.062 -0.2637 -0.3458 -0.0818
13118TIP3    H160845   3.319   1.913  12.066 -1.4823 -0.4429  0.2419
13118TIP3    H260846   3.239   1.788  12.037  0.6732 -1.2681 -2.5957
13119TIP3   OH260847   6.664   6.098   2.652 -0.2452  0.0533 -0.3302
13119TIP3    H160848   6.743   6.046   2.636  0.2187  0.4062  0.7183
13119TIP3    H260849   6.593   6.043   2.620  0.2006 -1.3920  1.0076
13120TIP3   OH260850   6.524   2.058  11.547  0.4048 -0.2685 -0.0086
13120TIP3    H160851   6.618   2.066  11.567  0.2078  0.6471  0.6475
13120TIP3    H260852   6.508   2.126  11.482 -0.0521  0.4786  0.8639
13121TIP3   OH260853   2.323   6.245  16.053  0.0709 -0.5054 -0.4935
13121TIP3    H160854   2.321   6.164  16.105  0.5204 -1.0781 -1.3349
13121TIP3    H260855   2.232   6.273  16.048  0.0080 -0.5115  0.4858
13122TIP3   OH260856   6.530   0.426   4.086  0.5334  0.2327 -0.2792
13122TIP3    H160857   6.544   0.390   4.174  0.3150  1.2606  0.2042
13122TIP3    H260858   6.615   0.420   4.044  0.1340 -2.3393 -0.8350
13123TIP3   OH260859   5.389   5.029   3.536 -0.3720 -0.0741  0.2931
13123TIP3    H160860   5.476   5.059   3.510 -0.6349  0.9834  0.5781
13123TIP3    H260861   5.343   5.108   3.565 -0.3616 -1.0132  3.2519
13124TIP3   OH260862   4.100   0.205   3.140 -0.5230  0.0990 -0.1046
13124TIP3    H160863   4.140   0.274   3.193  2.6589  1.3398 -3.6156
13124TIP3    H260864   4.023   0.246   3.102 -1.5332 -0.0702  1.6642
13125TIP3   OH260865   4.202   5.048  13.010 -0.0352 -0.0821  0.6177
13125TIP3    H160866   4.264   5.064  12.939 -1.1809  0.6754 -0.2596
13125TIP3    H260867   4.252   5.064  13.090  1.3956 -1.3496  0.0250
13126TIP3   OH260868   1.946   1.278  13.209 -0.4324 -0.4668  0.0863
13126TIP3    H160869   1.990   1.302  13.128 -0.7034  1.1745  0.3901
13126TIP3    H260870   2.004   1.214  13.250  2.1024  2.0380  0.7685
13127TIP3   OH260871   1.471   4.371   2.219 -0.0134 -0.3935  0.3137
13127TIP3    H160872   1.470   4.452   2.269  0.5386 -0.7097  0.8548
13127TIP3    H260873   1.407   4.385   2.149 -1.7006 -0.3607  1.7830
13128TIP3   OH260874   3.897   0.831  13.178  0.6216  0.1379  0.0839
13128TIP3    H160875   3.868   0.889  13.248 -0.9175  0.2921 -0.6242
13128TIP3    H260876   3.975   0.788  13.212  1.3394  2.0209  0.9344
13129TIP3   OH260877   0.672   1.241  13.051 -0.3304  0.3612  0.0050
13129TIP3    H160878   0.732   1.295  12.999  0.7317 -0.1986  0.6240
13129TIP3    H260879   0.649   1.297  13.126  1.1103 -0.1578  0.8733
13130TIP3   OH260880   2.253   3.741  12.349  0.7684  0.4905 -0.1634
13130TIP3    H160881   2.203   3.731  12.430  2.2709 -0.4949  0.6840
13130TIP3    H260882   2.251   3.835  12.331  0.7080  0.7729  1.2295
13131TIP3   OH260883   4.317   3.113  15.111 -0.3864  0.7696 -0.4458
13131TIP3    H160884   4.365   3.089  15.190 -2.6728 -0.7865  0.5710
13131TIP3    H260885   4.364   3.189  15.077  2.4475 -0.3039  0.7031
13132TIP3   OH260886   5.067   4.654   4.552  0.0733 -0.0781  0.8177
13132TIP3    H160887   5.135   4.615   4.607  0.8067 -0.6515 -0.4387
13132TIP3    H260888   5.114   4.717   4.497 -0.5084 -0.0465  0.3427
13133TIP3   OH260889   6.535   2.747  14.495  0.0738  0.3815 -0.0112
13133TIP3    H160890   6.607   2.748  14.558  1.3383 -1.2697 -1.3342
13133TIP3    H260891   6.577   2.762  14.411 -1.4883  1.8272 -0.5923
13134TIP3   OH260892   4.026   5.271  12.058 -0.1337  0.2412 -0.3925
13134TIP3    H160893   3.944   5.288  12.104 -0.2987  1.2295 -1.0359
13134TIP3    H260894   4.072   5.355  12.058  0.5793 -0.1366 -0.6427
13135TIP3   OH260895   3.493   4.157   1.987  0.3658  0.2412 -0.5695
13135TIP3    H160896   3.535   4.080   1.949  0.6193  0.4737 -0.7630
13135TIP3    H260897   3.514   4.228   1.927 -1.2639  0.1618 -1.2774
13136TIP3   OH260898   2.074   5.824   1.469 -0.3146  0.4041  0.2011
13136TIP3    H160899   2.019   5.750   1.496 -1.3703  1.2607  0.4632
13136TIP3    H260900   2.044   5.898   1.522  0.1046  1.2419 -0.6911
13137TIP3   OH260901   1.637   6.067   1.740  0.7717 -0.4913 -0.0894
13137TIP3    H160902   1.560   6.016   1.767  0.3924  0.4124  0.5782
13137TIP3    H260903   1.687   6.079   1.821  0.1539  1.3569  0.0601
13138TIP3   OH260904   6.743   3.801  15.387  0.4891  0.5259 -0.2044
13138TIP3    H160905   6.765   3.893  15.403 -0.5409  0.6123  0.7645
13138TIP3    H260906   6.777   3.754  15.463 -1.3635  0.4768  0.6275
13139TIP3   OH260907   0.725   1.403   4.514 -0.1109 -0.0845  0.6803
13139TIP3    H160908   0.665   1.336   4.548  0.7428 -1.4917 -0.5005
13139TIP3    H260909   0.799   1.354   4.478  0.6856  1.5129  0.0401
13140TIP3   OH260910   5.047   4.131   0.114  0.1105 -0.3681 -0.0576
13140TIP3    H160911   5.018   4.065   0.051  0.7947 -1.6071  0.8824
13140TIP3    H260912   5.052   4.084   0.198  3.9991 -0.1067  0.0331
13141TIP3   OH260913   3.781   2.616   1.017 -0.4392  0.4780 -0.4264
13141TIP3    H160914   3.722   2.578   1.082  1.1534 -0.3057  0.6380
13141TIP3    H260915   3.866   2.576   1.035  0.5177  1.8130 -1.6711
13142TIP3   OH260916   6.166   2.609  14.669  0.2142  0.2997 -0.3886
13142TIP3    H160917   6.202   2.663  14.599 -1.0590  1.8305  0.0769
13142TIP3    H260918   6.144   2.526  14.627  0.3338  0.8591 -1.5827
13143TIP3   OH260919   3.979   5.989   4.735  0.2024 -0.6069 -0.1922
13143TIP3    H160920   4.059   6.030   4.701  0.8224 -1.1301  0.6066
13143TIP3    H260921   3.916   6.062   4.742 -0.0662 -0.5264 -2.7050
13144TIP3   OH260922   1.735   3.218   5.369  0.7308  0.0409 -0.1856
13144TIP3    H160923   1.650   3.180   5.350 -0.2459  1.1000  1.7172
13144TIP3    H260924   1.748   3.284   5.300 -1.1904  1.5809  0.8075
13145TIP3   OH260925   5.520   2.345   0.318 -0.2144  0.3276  0.3669
13145TIP3    H160926   5.443   2.394   0.346 -0.1866  0.2400  0.5988
13145TIP3    H260927   5.489   2.287   0.249 -0.1243  1.1407 -0.3863
13146TIP3   OH260928   0.201   4.546   3.212  0.1589 -0.0183  0.1106
13146TIP3    H160929   0.120   4.502   3.236  0.1056  0.1003  0.1444
13146TIP3    H260930   0.203   4.625   3.266 -0.6251  0.9655 -1.2467
13147TIP3   OH260931   0.954   3.441   3.822 -0.0705 -0.7811 -0.0934
13147TIP3    H160932   1.036   3.452   3.869  0.0303  0.7322 -0.5659
13147TIP3    H260933   0.935   3.348   3.828  0.8836 -0.9162  1.3372
13148TIP3   OH260934   5.366   1.558   4.560 -0.1590  0.4062  0.5959
13148TIP3    H160935   5.387   1.642   4.602 -0.9626  0.8846  0.0769
13148TIP3    H260936   5.352   1.581   4.468 -0.6689 -0.2511  0.5047
13149TIP3   OH260937   1.420   4.857   3.086  0.2764  0.4651  0.2069
13149TIP3    H160938   1.464   4.818   3.162  0.5645  0.2113 -0.0883
13149TIP3    H260939   1.491   4.889   3.031  0.0783  0.3373 -0.1218
13150TIP3   OH260940   5.167   0.822   0.953 -0.2698  0.0473 -0.4977
13150TIP3    H160941   5.211   0.906   0.966  0.7615 -0.5690  0.2072
13150TIP3    H260942   5.075   0.839   0.974 -0.1555  1.0829 -0.7813
13151TIP3   OH260943   4.155   2.366   2.137  0.2521  0.8586  0.0551
13151TIP3    H160944   4.152   2.282   2.183  1.7386  1.1688  0.7527
13151TIP3    H260945   4.086   2.418   2.178 -2.3109 -0.7183 -1.9357
13152TIP3   OH260946   1.012   0.964  16.219 -0.0117 -0.4981 -1.0547
13152TIP3    H160947   1.006   0.948  16.314 -0.6675 -0.0976 -1.0236
13152TIP3    H260948   0.991   0.879  16.179 -1.1397 -0.3268 -0.8572
13153TIP3   OH260949   0.197   5.372   5.584  0.0287 -0.1820 -0.8187
13153TIP3    H160950   0.243   5.454   5.602  0.1795 -0.3329 -0.4991
13153TIP3    H260951   0.183   5.333   5.671 -0.0767 -0.4736 -0.9644
13154TIP3   OH260952   2.370   0.452  16.280 -0.0482  0.4020  0.0502
13154TIP3    H160953   2.325   0.373  16.252  0.4760 -0.4351  1.4276
13154TIP3    H260954   2.313   0.488  16.349  1.0292 -0.3541  1.3991
13155TIP3   OH260955   1.484   2.294  16.631  0.3603 -0.1359  0.7660
13155TIP3    H160956   1.559   2.354  16.623  0.2831  0.1180  1.7911
13155TIP3    H260957   1.407   2.350  16.618  0.2982 -0.0581  1.4264
13156TIP3   OH260958   2.753   3.053   0.364 -0.1830 -0.5256  0.1125
13156TIP3    H160959   2.661   3.043   0.387 -0.1396  0.6334  0.8978
13156TIP3    H260960   2.785   3.121   0.423  1.0975 -0.6791 -0.3698
13157TIP3   OH260961   6.140   2.656  16.660  0.0584  0.6232 -0.1096
13157TIP3    H160962   6.229   2.678  16.635 -0.4579  1.1346 -1.5755
13157TIP3    H260963   6.115   2.585  16.601 -0.6884  0.8425 -0.0646
13158TIP3   OH260964   1.778   5.053   0.539 -0.2675 -0.2077 -0.6057
13158TIP3    H160965   1.755   5.124   0.598  0.3037 -0.7866  0.3434
13158TIP3    H260966   1.869   5.070   0.516 -0.6772  0.3695 -1.8534
13159TIP3   OH260967   4.883   1.016   3.960 -0.1243 -1.2220 -0.7513
13159TIP3    H160968   4.805   0.988   3.913 -1.0619 -0.1680  0.1021
13159TIP3    H260969   4.887   1.111   3.945  1.3414 -1.3310 -1.2542
13160TIP3   OH260970   5.622   1.815   5.174  0.6544 -0.2682 -0.3296
13160TIP3    H160971   5.629   1.893   5.228  0.8357 -0.5028 -0.0115
13160TIP3    H260972   5.545   1.831   5.119  0.1132 -0.2798  0.4086
13161TIP3   OH260973   5.894   0.809  12.855 -0.1245  0.5760  0.1146
13161TIP3    H160974   5.866   0.808  12.946  1.0907 -1.0296  0.5189
13161TIP3    H260975   5.976   0.858  12.856  1.8773 -2.5240  0.6269
13162TIP3   OH260976   2.040   4.458   6.146 -0.1037  0.2556 -0.3190
13162TIP3    H160977   1.986   4.523   6.190  0.0999 -0.1827  0.6083
13162TIP3    H260978   2.025   4.377   6.195 -2.7616 -1.2369 -3.2719
13163TIP3   OH260979   6.202   3.803  14.887 -0.1653 -0.6737 -0.1894
13163TIP3    H160980   6.217   3.822  14.979  2.0846 -2.2086 -0.1347
13163TIP3    H260981   6.115   3.764  14.884 -0.8663  0.7211  1.0395
13164TIP3   OH260982   0.300   4.572   5.744  0.2658 -0.2518 -0.1212
13164TIP3    H160983   0.205   4.560   5.740  0.1208  0.4994  0.7609
13164TIP3    H260984   0.335   4.502   5.689 -0.7907 -0.6136 -0.3631
13165TIP3   OH260985   2.088   3.964  15.752 -0.0280  0.2284  0.6153
13165TIP3    H160986   2.152   3.961  15.681 -0.7160  1.6657 -0.1291
13165TIP3    H260987   2.007   3.929  15.714  0.3936 -2.0837  1.7068
13166TIP3   OH260988   3.674   3.905  16.933 -0.3409 -0.7129 -0.7235
13166TIP3    H160989   3.613   3.877  17.002 -0.3651  0.8924 -0.0302
13166TIP3    H260990   3.619   3.954  16.871 -0.2618 -1.8780 -1.7546
13167TIP3   OH260991   4.609   5.065   4.427  0.2524  0.4299 -0.0287
13167TIP3    H160992   4.649   5.112   4.500  0.8800 -0.8730  0.4985
13167TIP3    H260993   4.522   5.041   4.459  1.0624 -1.4474  0.9153
13168TIP3   OH260994   0.501   1.091   3.709  0.3880 -0.7933 -0.1327
13168TIP3    H160995   0.506   1.002   3.674  3.8090 -2.1304  3.1238
13168TIP3    H260996   0.453   1.082   3.792 -1.9410  1.1157 -1.1340
13169TIP3   OH260997   2.009   6.421  14.031  0.0820 -0.5192  0.5322
13169TIP3    H160998   2.015   6.463  14.118 -1.2856  0.0568  0.3668
13169TIP3    H260999   2.063   6.476  13.975  0.3621 -0.4550  0.8605
13170TIP3   OH261000   2.756   2.224   3.118 -0.6257 -0.1113 -0.4485
13170TIP3    H161001   2.746   2.160   3.188  0.6658 -1.0664 -1.0891
13170TIP3    H261002   2.719   2.305   3.154  2.3938  0.1906  2.3951
13171TIP3   OH261003   4.385   3.489   3.806  0.3138 -0.0130 -0.2989
13171TIP3    H161004   4.331   3.469   3.730 -0.3814  1.9321 -0.3651
13171TIP3    H261005   4.325   3.486   3.880  0.4610  0.5206 -0.1531
13172TIP3   OH261006   5.048   4.037   1.635  0.1702 -0.2617  0.3380
13172TIP3    H161007   5.141   4.036   1.613 -0.3200  0.1319 -1.9846
13172TIP3    H261008   5.004   4.055   1.552 -1.8831  1.8324  1.7849
13173TIP3   OH261009   1.101   0.986  16.966 -0.1801 -0.4739 -0.4216
13173TIP3    H161010   1.053   0.904  16.958 -0.3288 -0.6156  1.5733
13173TIP3    H261011   1.182   0.971  16.918 -1.3247 -0.8256 -2.3706
13174TIP3   OH261012   3.224   6.564   4.367  0.7729 -0.5015  0.2930
13174TIP3    H161013   3.252   6.534   4.280  2.6621 -0.2083  0.7542
13174TIP3    H261014   3.213   6.484   4.418 -0.2209 -0.6681 -0.1538
13175TIP3   OH261015   4.061   1.819   2.783 -0.3983 -0.2178 -0.2261
13175TIP3    H161016   4.141   1.833   2.834 -0.7058  1.1989 -0.1142
13175TIP3    H261017   3.990   1.832   2.845 -0.7439  0.2116 -0.7061
13176TIP3   OH261018   2.976   6.035   1.541 -0.0992 -0.0882 -0.4004
13176TIP3    H161019   3.005   6.004   1.627  0.5793  0.5014 -0.4029
13176TIP3    H261020   3.056   6.062   1.497 -0.3656 -1.0249 -1.4961
13177TIP3   OH261021   3.419   4.909   5.424  0.2595 -0.3326  1.1223
13177TIP3    H161022   3.366   4.978   5.464  0.6749  0.3183  0.5700
13177TIP3    H261023   3.506   4.919   5.464  0.5750  0.0783  0.3513
13178TIP3   OH261024   0.844   5.711   4.302  0.3584 -0.1139 -0.5284
13178TIP3    H161025   0.886   5.631   4.333  0.2863 -0.0496 -0.2590
13178TIP3    H261026   0.824   5.694   4.210  0.6619 -0.2730 -0.5654
13179TIP3   OH261027   2.576   2.961   3.323  0.3021 -0.3627 -0.4970
13179TIP3    H161028   2.662   2.990   3.354 -1.3439  2.2999  2.0923
13179TIP3    H261029   2.576   2.983   3.230  2.8320 -1.7504 -0.9408
13180TIP3   OH261030   0.984   4.395   1.379  0.1935 -0.0787 -0.0396
13180TIP3    H161031   0.910   4.425   1.327 -0.3079  0.0879  0.7576
13180TIP3    H261032   0.945   4.341   1.448  0.6783  1.0098  1.1214
13181TIP3   OH261033   5.228   1.236  17.335 -0.2405 -0.1451 -0.0792
13181TIP3    H161034   5.274   1.227  17.251  0.7988 -0.8893  0.5298
13181TIP3    H261035   5.238   1.328  17.358  1.9310 -0.4743  0.5254
13182TIP3   OH261036   3.726   2.403   4.068 -0.1002 -0.1391  0.1295
13182TIP3    H161037   3.693   2.336   4.008  0.3337 -1.2988  1.1469
13182TIP3    H261038   3.821   2.404   4.054 -0.1168  0.3868  0.0131
13183TIP3   OH261039   6.771   3.974   3.538  0.5279 -0.0552  0.4262
13183TIP3    H161040   6.799   4.036   3.605  0.0155  2.1564 -1.2981
13183TIP3    H261041   6.852   3.928   3.513  1.0075  0.2083  1.4439
13184TIP3   OH261042   3.099   5.714  14.822  0.1295  0.0284 -0.5422
13184TIP3    H161043   3.167   5.650  14.800 -0.0398 -0.2627 -0.2258
13184TIP3    H261044   3.132   5.797  14.786  2.7235  0.8485  3.1308
13185TIP3   OH261045   0.622   3.852  15.556 -0.1578  0.2943 -0.2118
13185TIP3    H161046   0.531   3.877  15.544  0.0621  0.3970 -1.9388
13185TIP3    H261047   0.618   3.758  15.574 -0.6701  0.5694  1.2323
13186TIP3   OH261048   4.909   4.666   5.248 -0.5025  0.2936  0.0772
13186TIP3    H161049   4.852   4.727   5.295 -0.5279  1.1076 -0.9809
13186TIP3    H261050   4.849   4.608   5.201 -0.4610  0.4277 -0.1395
13187TIP3   OH261051   3.333   1.644   6.403 -0.2711  0.7321  0.3405
13187TIP3    H161052   3.303   1.708   6.339  1.2313  0.5275 -0.6185
13187TIP3    H261053   3.422   1.622   6.375 -0.2481 -0.7336  1.4565
13188TIP3   OH261054   0.361   0.032   0.232  0.0627 -0.1595 -0.5276
13188TIP3    H161055   0.351   0.076   0.148  0.3369 -1.3700 -1.2136
13188TIP3    H261056   0.297  -0.039   0.231  1.8087 -1.8295 -0.8668
13189TIP3   OH261057   2.565   5.816  15.379  0.5264  0.0872  0.1911
13189TIP3    H161058   2.504   5.754  15.338  1.3327 -1.0975  0.7368
13189TIP3    H261059   2.649   5.770  15.380  1.3926  1.6041 -0.3325
13190TIP3   OH261060   1.774   0.888  13.964  0.4331 -0.1319 -0.3725
13190TIP3    H161061   1.704   0.954  13.962 -0.2247 -0.6726  1.9291
13190TIP3    H261062   1.729   0.805  13.950  0.9642 -0.2882 -1.1947
13191TIP3   OH261063   2.528   0.188   5.818  0.8328  0.4083 -0.4515
13191TIP3    H161064   2.528   0.283   5.827  0.5713  0.3968 -0.2984
13191TIP3    H261065   2.437   0.163   5.833  1.2029 -0.0216  1.2374
13192TIP3   OH261066   3.845   2.371   1.942 -0.4191 -0.2894 -0.5386
13192TIP3    H161067   3.774   2.395   1.882 -1.2419 -1.3150 -0.0032
13192TIP3    H261068   3.870   2.454   1.983 -1.1752  0.1141 -0.8671
13193TIP3   OH261069   0.381   3.081  13.474 -0.2936 -0.0309 -0.7072
13193TIP3    H161070   0.406   2.990  13.457  0.5027  0.3124 -1.3993
13193TIP3    H261071   0.430   3.132  13.410  0.4600  1.0380  0.6716
13194TIP3   OH261072   2.295   5.710   1.279 -0.1315  0.1152 -0.1299
13194TIP3    H161073   2.203   5.687   1.282 -0.5792  1.7658 -0.2607
13194TIP3    H261074   2.328   5.668   1.199 -0.5446 -1.1912  0.3755
13195TIP3   OH261075   0.345   0.577   5.174 -0.2450  0.3221 -0.2264
13195TIP3    H161076   0.304   0.663   5.173  1.7160  1.3149 -1.3279
13195TIP3    H261077   0.358   0.556   5.081  1.6254  0.0487  0.0606
13196TIP3   OH261078   4.895   6.104   4.611 -0.1119  0.0821  0.0322
13196TIP3    H161079   4.945   6.153   4.545 -0.1053 -0.9762 -0.7753
13196TIP3    H261080   4.958   6.089   4.682  0.6673 -0.9706 -0.8397
13197TIP3   OH261081   1.833   2.371  15.908  0.6063  0.1980  0.3965
13197TIP3    H161082   1.754   2.336  15.868  0.5825 -0.2288  0.7973
13197TIP3    H261083   1.847   2.316  15.985 -0.2724  1.9803  1.9161
13198TIP3   OH261084   1.073   0.908   6.856 -0.1389 -0.5127  0.4859
13198TIP3    H161085   1.098   0.850   6.928 -0.3665  0.2083  1.1587
13198TIP3    H261086   0.996   0.955   6.888  0.8064  1.1033  0.4759
13199TIP3   OH261087   6.621   2.185   3.923  0.0141 -0.2643  0.0570
13199TIP3    H161088   6.614   2.187   3.828 -1.8656  2.4724  0.1652
13199TIP3    H261089   6.627   2.277   3.949  0.0549 -0.9214  2.6397
13200TIP3   OH261090   0.914   1.423   4.188  0.0378 -0.4195 -0.3766
13200TIP3    H161091   0.840   1.371   4.222  0.1756 -0.2693  0.1704
13200TIP3    H261092   0.987   1.361   4.183 -0.0893 -0.5409 -0.8084
13201TIP3   OH261093   3.896   5.738  13.952  0.1118 -0.3824  0.0911
13201TIP3    H161094   3.891   5.643  13.953 -1.5132 -0.3424  1.8729
13201TIP3    H261095   3.918   5.762  14.042  1.5648  0.9266 -0.5561
13202TIP3   OH261096   2.266   6.331  17.275 -0.3498  0.3385 -0.2405
13202TIP3    H161097   2.312   6.391  17.334  0.5330  0.0273 -0.6005
13202TIP3    H261098   2.335   6.287  17.226 -0.9542 -1.3641  0.3677
13203TIP3   OH261099   3.287   5.495  15.221 -0.2836  0.4765 -0.0205
13203TIP3    H161100   3.252   5.580  15.197 -0.0945  0.2794 -1.0550
13203TIP3    H261101   3.287   5.445  15.139  0.4553 -0.2087  0.3776
13204TIP3   OH261102   6.072   6.442   6.019 -0.1753  0.1069 -0.1189
13204TIP3    H161103   6.017   6.503   5.971 -0.3729  1.1153  1.3277
13204TIP3    H261104   6.028   6.431   6.103  2.0269  1.3354  1.2864
13205TIP3   OH261105   0.243   3.782   0.234 -0.5063  0.2210 -0.2263
13205TIP3    H161106   0.270   3.767   0.324 -0.0092  3.0161  0.1812
13205TIP3    H261107   0.316   3.749   0.181 -0.2519 -0.3002  0.4355
13206TIP3   OH261108   1.354   1.352   0.307 -0.5041  0.3367  0.2158
13206TIP3    H161109   1.318   1.440   0.295 -2.4602 -0.2660  1.3344
13206TIP3    H261110   1.315   1.301   0.236  0.0480  0.1818  0.0163
13207TIP3   OH261111   2.385   5.611   1.046  0.6426  1.4303  0.3001
13207TIP3    H161112   2.468   5.641   1.008  1.2830 -1.3066 -0.6732
13207TIP3    H261113   2.318   5.665   1.002  1.7733  2.3105 -0.3928
13208TIP3   OH261114   1.773   1.557  12.244  0.3445  0.5015  0.3350
13208TIP3    H161115   1.856   1.566  12.291  0.3460 -1.0141  0.6739
13208TIP3    H261116   1.742   1.469  12.266 -1.0654  0.8156 -0.2607
13209TIP3   OH261117   2.010   1.099   5.397  0.5540 -0.1644  0.1148
13209TIP3    H161118   2.003   1.182   5.350  0.2448 -0.3469 -0.1608
13209TIP3    H261119   2.083   1.054   5.355 -0.4510 -0.8281 -0.9798
13210TIP3   OH261120   3.951   2.830   3.595  0.2815  0.7471 -0.0394
13210TIP3    H161121   4.008   2.888   3.544  1.2527  0.0078  0.1749
13210TIP3    H261122   3.863   2.845   3.559  0.9869 -0.0602 -2.2672
13211TIP3   OH261123   2.763   1.202  16.028  0.0305  0.0198 -0.3646
13211TIP3    H161124   2.679   1.157  16.023  0.2454 -0.4211 -0.0645
13211TIP3    H261125   2.751   1.282  15.977 -0.7266  0.2015  0.0900
13212TIP3   OH261126   6.212   6.107  11.660  0.3900 -0.0879  1.1329
13212TIP3    H161127   6.167   6.075  11.582  0.7067  0.2118  0.8276
13212TIP3    H261128   6.301   6.128  11.631  0.8017 -0.8870  1.7820
13213TIP3   OH261129   0.543   6.251  15.230 -0.3269 -0.2016  0.1134
13213TIP3    H161130   0.566   6.332  15.184  1.3968 -0.9460 -0.4193
13213TIP3    H261131   0.535   6.277  15.322  1.7737  0.3440  0.1910
13214TIP3   OH261132   0.464   3.673  14.318  0.4544  0.5428  0.0517
13214TIP3    H161133   0.444   3.626  14.399  1.1215  3.1221  1.8340
13214TIP3    H261134   0.443   3.764  14.337  3.6213  1.7699 -1.5369
13215TIP3   OH261135   0.060   6.012  13.564  0.1599 -0.1932 -0.5094
13215TIP3    H161136   0.046   6.016  13.469  0.4471  0.0522 -0.5445
13215TIP3    H261137   0.010   6.085  13.599  1.0726  0.5007 -0.6062
13216TIP3   OH261138   3.984   2.469   6.473  0.0299 -1.1610 -0.0049
13216TIP3    H161139   3.934   2.480   6.392 -0.8695  1.2680  0.7791
13216TIP3    H261140   4.060   2.526   6.462  0.0690 -1.0710  0.7011
13217TIP3   OH261141   5.270   5.567  12.153  0.2427  0.1791 -0.1109
13217TIP3    H161142   5.301   5.511  12.081  1.5800 -1.2829  1.5114
13217TIP3    H261143   5.350   5.602  12.192 -0.4789  1.1799  0.5023
13218TIP3   OH261144   1.324   1.628   4.442  0.0658 -0.8014  0.3068
13218TIP3    H161145   1.263   1.558   4.418  0.3353 -0.4711 -1.4400
13218TIP3    H261146   1.286   1.707   4.405  1.7530 -0.6578 -1.2361
13219TIP3   OH261147   0.048   5.758   3.887 -0.1118  0.0469 -0.5458
13219TIP3    H161148   0.035   5.725   3.976  2.9764  0.2395  0.1007
13219TIP3    H261149   0.017   5.849   3.889  0.9671  0.4085  0.6984
13220TIP3   OH261150   1.892   1.304   3.396 -0.0974  0.2840  0.2182
13220TIP3    H161151   1.911   1.287   3.488 -1.4233  0.2593  0.5074
13220TIP3    H261152   1.950   1.244   3.348 -2.1661 -2.6816  1.1421
13221TIP3   OH261153   0.928   2.306   1.479 -0.8377  0.2932 -0.4480
13221TIP3    H161154   0.851   2.255   1.505  1.0486 -2.2247  0.5772
13221TIP3    H261155   0.970   2.329   1.562 -0.4037  1.5837 -0.9989
13222TIP3   OH261156   6.388   0.057   1.005  0.7842 -0.1070 -0.1670
13222TIP3    H161157   6.479   0.068   1.033  1.1672 -0.7300 -1.1240
13222TIP3    H261158   6.353   0.146   1.001  1.1558  0.0919  0.8218
13223TIP3   OH261159   0.399   0.782  15.595  0.1210 -0.3557 -0.2061
13223TIP3    H161160   0.316   0.797  15.640 -0.6091 -1.4735 -1.1209
13223TIP3    H261161   0.379   0.714  15.530  1.9332 -1.1939  0.0679
13224TIP3   OH261162   0.806   3.841   5.238  0.3040  0.7763  0.9553
13224TIP3    H161163   0.817   3.778   5.167  1.9615  0.6445  1.2719
13224TIP3    H261164   0.745   3.906   5.203 -0.6035 -0.4132  0.2305
13225TIP3   OH261165   6.421   0.322   3.505 -0.6861  0.2763  1.1318
13225TIP3    H161166   6.438   0.298   3.414 -1.1266 -1.2921  1.4330
13225TIP3    H261167   6.497   0.289   3.553 -1.4094 -0.8008  1.5888
13226TIP3   OH261168   2.283   0.086  15.726 -0.7196  0.1642  0.0036
13226TIP3    H161169   2.202   0.057  15.768 -0.3268  0.4155  0.9602
13226TIP3    H261170   2.288   0.179  15.745 -0.3500  0.2127 -0.3106
13227TIP3   OH261171   1.205   4.117  11.653 -0.3661 -0.1049 -0.3687
13227TIP3    H161172   1.279   4.175  11.671 -1.1796  1.1818 -1.0526
13227TIP3    H261173   1.128   4.166  11.683 -1.2749  0.0352 -2.7467
13228TIP3   OH261174   4.639   2.214  11.241 -0.3335 -0.0418 -0.4198
13228TIP3    H161175   4.582   2.141  11.263  0.6537 -1.2448 -1.6539
13228TIP3    H261176   4.673   2.192  11.154  1.0827  1.1975 -0.2183
13229TIP3   OH261177   2.814   2.772  17.390 -0.6166 -0.3337  0.4004
13229TIP3    H161178   2.808   2.775  17.485 -0.6159 -1.5026  0.4520
13229TIP3    H261179   2.859   2.853  17.366 -0.4106 -0.1355  1.4139
13230TIP3   OH261180   1.710   3.655  16.105 -0.2509 -0.1452  0.5239
13230TIP3    H161181   1.729   3.614  16.190 -0.6460  1.3384  1.3626
13230TIP3    H261182   1.795   3.682  16.072 -0.0116 -1.3888  0.0712
13231TIP3   OH261183   2.681   2.433  14.035 -0.8688  0.1784 -0.0718
13231TIP3    H161184   2.627   2.486  13.978  0.0917  2.0443  0.6645
13231TIP3    H261185   2.670   2.472  14.122  0.2244 -0.5397  0.4154
13232TIP3   OH261186   5.295   3.227  10.710  0.2262 -0.5273 -0.2651
13232TIP3    H161187   5.330   3.316  10.713  1.5525 -1.0502  1.0114
13232TIP3    H261188   5.352   3.181  10.649  0.1724 -0.7630 -0.1378
13233TIP3   OH261189   5.668   3.593  15.225  0.3451 -0.0105 -0.4565
13233TIP3    H161190   5.641   3.608  15.135  1.3401  3.6664 -0.3080
13233TIP3    H261191   5.586   3.586  15.274 -0.2104 -2.4076 -1.5548
13234TIP3   OH261192   0.478   2.569  14.850  0.7026  0.0760  0.1667
13234TIP3    H161193   0.560   2.583  14.898  0.4073 -0.7207  0.9439
13234TIP3    H261194   0.445   2.485  14.884 -0.1632  0.1271 -0.5198
13235TIP3   OH261195   1.026   3.747  12.640 -0.0565  0.3773 -0.2006
13235TIP3    H161196   1.076   3.669  12.617 -0.1948  0.2732 -0.1466
13235TIP3    H261197   0.947   3.742  12.585 -0.7747 -0.2843  0.8665
13236TIP3   OH261198   1.140   4.685   6.610 -0.2397 -0.2165 -0.0204
13236TIP3    H161199   1.197   4.609   6.618 -0.3945 -0.1690  2.1163
13236TIP3    H261200   1.059   4.658   6.653 -1.1563  0.3663 -1.3366
13237TIP3   OH261201   5.091   5.870   2.531 -0.1920  0.2634  0.4409
13237TIP3    H161202   5.093   5.879   2.435  1.1581  2.5398  0.6080
13237TIP3    H261203   5.068   5.957   2.563 -0.5240 -0.4349  2.2215
13238TIP3   OH261204   0.615   0.385  15.118  0.1175 -0.4487 -0.1495
13238TIP3    H161205   0.657   0.449  15.175 -0.9510  0.0541  0.1097
13238TIP3    H261206   0.564   0.330  15.178  1.6380 -2.0743 -0.2743
13239TIP3   OH261207   6.133   2.671   2.325  0.1383 -0.3794 -0.1644
13239TIP3    H161208   6.113   2.615   2.250 -1.9199  0.3317 -0.2202
13239TIP3    H261209   6.057   2.729   2.331  1.1615  0.8579  1.2980
13240TIP3   OH261210   2.730   0.702   3.784  0.2163  0.1932  0.3840
13240TIP3    H161211   2.642   0.721   3.814  0.4688  1.2539  0.4878
13240TIP3    H261212   2.780   0.686   3.864 -0.2956 -2.4524  0.2536
13241TIP3   OH261213   6.719   3.882  14.333  0.0048 -0.1465 -0.1454
13241TIP3    H161214   6.762   3.948  14.278  1.5050 -0.0297  1.0853
13241TIP3    H261215   6.731   3.914  14.422  0.2257 -1.7705  0.4475
13242TIP3   OH261216   2.816   3.602   3.989  0.4995 -0.0475 -0.4016
13242TIP3    H161217   2.877   3.594   3.916  0.9447 -2.2635  0.1430
13242TIP3    H261218   2.871   3.597   4.067 -0.0745  1.2360  0.1122
13243TIP3   OH261219   2.908   6.312  13.839  0.1606  0.0615  0.2526
13243TIP3    H161220   2.963   6.367  13.895 -0.0578 -1.2670  1.8572
13243TIP3    H261221   2.861   6.255  13.901 -0.8804 -0.7675 -1.2432
13244TIP3   OH261222   1.769   0.097  16.739  0.0843  0.1659 -0.3640
13244TIP3    H161223   1.826   0.155  16.687 -0.9572 -0.5817 -2.4565
13244TIP3    H261224   1.728   0.039  16.674 -0.6690 -1.3984  1.4131
13245TIP3   OH261225   5.448   6.386   3.583  0.4192  0.2233  0.0802
13245TIP3    H161226   5.446   6.436   3.501  0.7153  0.8613  0.4519
13245TIP3    H261227   5.362   6.399   3.621  0.9405  1.6391  0.8552
13246TIP3   OH261228   1.773   2.700  12.176 -0.7172 -0.1606  0.4206
13246TIP3    H161229   1.829   2.775  12.193 -0.2804 -0.7695  1.8649
13246TIP3    H261230   1.808   2.630  12.231 -3.0937 -0.4564  1.7265
13247TIP3   OH261231   0.120   1.377   5.774  0.1284  0.5976 -0.0065
13247TIP3    H161232   0.040   1.413   5.736  0.3171 -0.6182 -1.6031
13247TIP3    H261233   0.091   1.303   5.827  0.1743  0.4195 -0.2348
13248TIP3   OH261234   5.679   1.794  14.076 -0.3813 -0.5891  0.3118
13248TIP3    H161235   5.628   1.875  14.067  0.1275 -0.4125 -1.3840
13248TIP3    H261236   5.635   1.732  14.017  0.3538 -0.9457  0.1336
13249TIP3   OH261237   0.826   4.256   3.100  0.0483  1.0621  0.6672
13249TIP3    H161238   0.846   4.332   3.046 -1.1192  2.6904  2.4091
13249TIP3    H261239   0.750   4.216   3.057 -0.8357  2.3079  1.0020
13250TIP3   OH261240   1.087   2.617   3.705  0.2626 -0.8495  0.5589
13250TIP3    H161241   1.035   2.698   3.702  0.1374 -0.8966  1.2448
13250TIP3    H261242   1.145   2.629   3.780  1.2601 -0.7936 -0.2168
13251TIP3   OH261243   5.749   3.646   0.474 -0.0119  0.3951 -0.0598
13251TIP3    H161244   5.800   3.676   0.399  0.5922 -0.1317  0.1334
13251TIP3    H261245   5.681   3.713   0.485  0.4656  0.9582 -0.4906
13252TIP3   OH261246   0.036   5.453  11.110  0.3808  0.0662  0.0755
13252TIP3    H161247   0.121   5.481  11.142 -0.0304  1.5812 -0.1146
13252TIP3    H261248  -0.019   5.531  11.113 -0.7956 -0.6990 -0.5282
13253TIP3   OH261249   6.661   4.296   0.064  0.1632  0.2742 -0.2613
13253TIP3    H161250   6.680   4.207   0.036  0.4478  0.5793 -1.0491
13253TIP3    H261251   6.688   4.299   0.156  2.0141  0.1056 -0.7637
13254TIP3   OH261252   1.727   5.196  13.248 -0.4046 -0.0156  0.0857
13254TIP3    H161253   1.809   5.161  13.212  0.3354  1.0226  0.6949
13254TIP3    H261254   1.659   5.139  13.213  0.4977 -0.4069 -1.1042
13255TIP3   OH261255   1.842   4.018  14.303  0.1136  0.1893 -0.5265
13255TIP3    H161256   1.826   4.107  14.335 -0.8385  0.1701 -0.9259
13255TIP3    H261257   1.936   4.016  14.284  0.2711  0.8904  0.1359
13256TIP3   OH261258   6.730   4.479   0.481 -0.1884  0.0178 -0.4809
13256TIP3    H161259   6.682   4.551   0.522 -2.0548 -2.6371  2.5033
13256TIP3    H261260   6.807   4.467   0.537  0.5027  0.1197 -1.3910
13257TIP3   OH261261   0.972   4.409  15.432 -0.1898 -0.0114  0.2102
13257TIP3    H161262   0.921   4.487  15.409 -2.3204 -1.6057 -0.7959
13257TIP3    H261263   1.039   4.404  15.364 -0.0040  0.9221  0.3024
13258TIP3   OH261264   1.473   2.748   1.554  0.2513  0.5408  0.8478
13258TIP3    H161265   1.378   2.733   1.558  0.2233  0.3597 -0.2998
13258TIP3    H261266   1.486   2.802   1.476  1.0221  1.2476  1.4411
13259TIP3   OH261267   6.679   4.158  11.804 -0.4786  0.0799 -0.2083
13259TIP3    H161268   6.623   4.229  11.835 -0.6926 -0.1880  0.0207
13259TIP3    H261269   6.763   4.174  11.847 -1.2079 -1.1710  1.8023
13260TIP3   OH261270   0.155   5.194   4.357 -0.1243 -0.0127 -0.3606
13260TIP3    H161271   0.182   5.104   4.335  2.2606  0.5948 -0.2616
13260TIP3    H261272   0.216   5.220   4.426 -0.2915  1.9425 -0.9078
13261TIP3   OH261273   0.677   4.604  15.928  0.1913  0.1497 -0.9732
13261TIP3    H161274   0.721   4.688  15.939 -1.0585  0.7236 -0.1193
13261TIP3    H261275   0.587   4.626  15.905  0.0278 -0.9724 -1.4914
13262TIP3   OH261276   6.800   6.026  10.746 -0.1086  0.1477  0.2690
13262TIP3    H161277   6.839   5.948  10.707  1.3164  0.6134  0.6904
13262TIP3    H261278   6.752   5.993  10.822 -1.7363 -0.5920 -1.0323
13263TIP3   OH261279   1.318   0.791  15.082 -0.2098 -0.3213  0.6351
13263TIP3    H161280   1.351   0.820  14.996 -0.3787  1.0779  1.0223
13263TIP3    H261281   1.383   0.822  15.144 -0.4796 -0.6590  1.0893
13264TIP3   OH261282   5.383   4.013  16.876 -0.0338 -0.4473 -0.2022
13264TIP3    H161283   5.374   4.019  16.972  1.6480 -2.7735  0.1709
13264TIP3    H261284   5.327   3.940  16.852 -0.5237  0.1937 -1.0507
13265TIP3   OH261285   2.609   5.501   4.517  0.0770 -0.4273  0.0347
13265TIP3    H161286   2.518   5.481   4.497  0.0775 -1.4054  0.9182
13265TIP3    H261287   2.629   5.447   4.594  1.3899 -0.2236 -0.1399
13266TIP3   OH261288   6.226   0.797  12.501  0.4511  0.5752  0.0448
13266TIP3    H161289   6.259   0.813  12.413 -0.6115 -2.1601 -0.9512
13266TIP3    H261290   6.303   0.766  12.550  0.7350  0.6579 -0.3408
13267TIP3   OH261291   5.988   2.619   6.721  0.1335 -0.1443 -0.3726
13267TIP3    H161292   6.051   2.652   6.657  2.0712  1.2599  2.0878
13267TIP3    H261293   5.932   2.694   6.741 -0.1239 -0.4223 -0.0273
13268TIP3   OH261294   1.145   6.104   4.968 -0.5140  0.1566  0.1567
13268TIP3    H161295   1.166   6.022   5.013  1.1112  0.5059  0.0843
13268TIP3    H261296   1.191   6.171   5.018 -0.5999  0.8429 -0.6605
13269TIP3   OH261297   6.590   6.593  15.095 -0.3542 -0.5985  0.3378
13269TIP3    H161298   6.583   6.527  15.165  0.0967 -0.2714  0.7020
13269TIP3    H261299   6.661   6.561  15.039 -0.1511 -0.4405  0.5014
13270TIP3   OH261300   2.971   0.402  11.243  0.0350 -0.3927  0.1011
13270TIP3    H161301   3.064   0.384  11.252  0.0522 -0.5091 -0.2765
13270TIP3    H261302   2.928   0.319  11.262  0.0961 -0.7697 -1.2749
13271TIP3   OH261303   6.247   4.814  12.909 -0.7016 -0.0481  0.4833
13271TIP3    H161304   6.252   4.778  12.997  0.0068  0.2562  0.5739
13271TIP3    H261305   6.333   4.854  12.894 -0.4969 -0.8644 -0.6725
13272TIP3   OH261306   2.507   2.319   1.505 -0.5510 -0.3294 -0.6524
13272TIP3    H161307   2.434   2.290   1.452  0.7266 -1.2621 -1.9874
13272TIP3    H261308   2.579   2.331   1.443  0.5455  0.2044  0.6490
13273TIP3   OH261309   4.138   6.500  13.481  0.0138 -0.4128 -0.1723
13273TIP3    H161310   4.142   6.554  13.402  0.6924  2.4918  1.6668
13273TIP3    H261311   4.050   6.464  13.481  0.1607 -0.9296 -2.4642
13274TIP3   OH261312   0.934   2.185   4.354 -0.9160  0.2641 -0.3908
13274TIP3    H161313   0.942   2.109   4.296  2.0008 -0.0968  0.3397
13274TIP3    H261314   0.907   2.148   4.438  0.4191  0.0244 -0.0577
13275TIP3   OH261315   3.684   2.911   3.435 -0.3969  0.2139 -0.0647
13275TIP3    H161316   3.698   3.004   3.414 -0.3462 -0.0329 -1.1620
13275TIP3    H261317   3.610   2.885   3.381 -0.5519 -0.3373  0.4072
13276TIP3   OH261318   3.615   1.811   4.981 -0.1234 -0.1006 -0.2164
13276TIP3    H161319   3.572   1.886   4.939 -1.3551 -0.1646  0.8571
13276TIP3    H261320   3.637   1.843   5.069 -0.0966 -0.7956  0.0350
13277TIP3   OH261321   2.482   5.675  16.385  0.1279 -0.2424  0.7961
13277TIP3    H161322   2.386   5.673  16.383  0.0933 -3.7903 -0.0434
13277TIP3    H261323   2.508   5.679  16.293  0.7092 -1.3184  0.8942
13278TIP3   OH261324   6.629   2.643   4.488 -0.7567 -0.4883  0.3937
13278TIP3    H161325   6.666   2.702   4.422  1.1825  0.6739  2.3860
13278TIP3    H261326   6.535   2.643   4.470 -0.2054 -1.2766 -3.1053
13279TIP3   OH261327   5.058   5.232  13.102  0.8447 -0.0831  0.8977
13279TIP3    H161328   5.072   5.291  13.176  1.1611  0.8848  0.1018
13279TIP3    H261329   5.147   5.214  13.069  0.6540  0.4422  0.0609
13280TIP3   OH261330   4.498   4.804  15.756 -0.2707  0.2086  0.2841
13280TIP3    H161331   4.496   4.873  15.823 -1.0249  0.1169  0.3717
13280TIP3    H261332   4.505   4.852  15.673 -1.7671  0.4705  0.2759
13281TIP3   OH261333   1.097   2.337  16.671  0.2899  0.3147  0.7715
13281TIP3    H161334   1.098   2.289  16.754 -1.8674  0.9518  1.2499
13281TIP3    H261335   1.044   2.415  16.690 -0.0299  0.6019 -1.1490
13282TIP3   OH261336   3.896   3.342  14.764  0.4254  0.2733  0.3303
13282TIP3    H161337   3.952   3.301  14.698 -1.8071 -1.1898 -0.7782
13282TIP3    H261338   3.913   3.292  14.844  0.4041 -0.4392 -0.1030
13283TIP3   OH261339   4.346   6.584  12.615  0.2338  0.0734 -0.1405
13283TIP3    H161340   4.352   6.666  12.663  0.8631 -0.9444  1.6279
13283TIP3    H261341   4.430   6.576  12.570  0.9594 -0.5001  1.2702
13284TIP3   OH261342   0.237   3.566   4.271  0.1756 -0.5741 -0.3238
13284TIP3    H161343   0.226   3.491   4.329 -1.6289 -0.9568 -1.0789
13284TIP3    H261344   0.327   3.559   4.239  0.3386 -1.8791  0.3452
13285TIP3   OH261345   2.447   1.827   4.105  0.7029 -0.3565  0.0948
13285TIP3    H161346   2.511   1.826   4.034 -0.4908  0.6355 -1.0507
13285TIP3    H261347   2.381   1.763   4.078  1.6238 -2.1091  1.7342
13286TIP3   OH261348   6.030   2.041   0.443 -0.6210  0.0000 -0.6701
13286TIP3    H161349   6.035   1.945   0.450 -0.8398 -0.0320 -0.9302
13286TIP3    H261350   6.088   2.073   0.512  1.7538 -0.3569 -2.3479
13287TIP3   OH261351   4.613   2.585   0.286 -0.0075  0.5580  0.0513
13287TIP3    H161352   4.593   2.669   0.329  0.8127  0.8849 -0.1899
13287TIP3    H261353   4.694   2.555   0.328  1.9346  1.8198 -2.5072
13288TIP3   OH261354   0.295   3.136  11.125  0.5003  0.0227  0.4090
13288TIP3    H161355   0.379   3.099  11.151  1.3299  1.1038 -0.6425
13288TIP3    H261356   0.277   3.204  11.191  0.6479  0.0678  0.4017
13289TIP3   OH261357   1.145   3.455   2.492  0.1631  0.6182  0.3681
13289TIP3    H161358   1.127   3.549   2.484 -1.6371  0.4167  1.4792
13289TIP3    H261359   1.059   3.415   2.501  0.9391 -1.0941  0.5152
13290TIP3   OH261360   0.438   4.488   0.430  0.5903 -0.1707  0.0892
13290TIP3    H161361   0.360   4.450   0.388  0.1280  0.9790 -0.1526
13290TIP3    H261362   0.504   4.489   0.360  0.4447 -0.0629 -0.0483
13291TIP3   OH261363   5.803   0.936   1.940  0.3846 -0.0471  0.2579
13291TIP3    H161364   5.835   1.008   1.994  1.2472  0.0859 -0.4028
13291TIP3    H261365   5.714   0.920   1.971 -0.0821  1.7573 -0.0456
13292TIP3   OH261366   3.297   1.260  17.057 -0.2235 -0.2893  0.3054
13292TIP3    H161367   3.296   1.356  17.062  0.3011 -0.2651  0.0067
13292TIP3    H261368   3.224   1.233  17.112 -0.5297  0.2928  0.1926
13293TIP3   OH261369   6.427   5.160  16.265 -0.3736  0.2889  0.0888
13293TIP3    H161370   6.433   5.150  16.361 -0.9662 -1.5501 -0.0238
13293TIP3    H261371   6.370   5.088  16.237  0.7624  0.0535 -1.7740
13294TIP3   OH261372   0.434   4.553  10.931 -0.3203  0.5591 -0.4546
13294TIP3    H161373   0.473   4.466  10.933  0.6276  0.9493 -0.7920
13294TIP3    H261374   0.483   4.602  10.997  0.0784  1.1746 -1.1807
13295TIP3   OH261375   1.865   1.683  11.827 -0.1950  0.2592 -0.8471
13295TIP3    H161376   1.843   1.673  11.735  1.2972 -0.1749 -1.1929
13295TIP3    H261377   1.956   1.712  11.827  0.4569 -1.5347  0.4843
13296TIP3   OH261378   4.000   5.154   1.103  0.1801  0.1581 -0.6278
13296TIP3    H161379   4.029   5.232   1.056 -0.4699  0.9432  0.2343
13296TIP3    H261380   4.080   5.115   1.138  0.3736  1.3658  0.3331
13297TIP3   OH261381   0.462   5.563   3.866  0.3932 -0.1631 -0.4636
13297TIP3    H161382   0.503   5.477   3.855  1.3176  0.2216 -0.1295
13297TIP3    H261383   0.416   5.557   3.950  0.9993 -0.1343 -0.1192
13298TIP3   OH261384   4.869   3.456   4.208 -0.4222  0.4265 -0.6679
13298TIP3    H161385   4.783   3.498   4.216  0.2842  1.8199 -0.0064
13298TIP3    H261386   4.880   3.410   4.291  0.0193  1.3762 -0.1806
13299TIP3   OH261387   5.991   0.322   2.690 -0.3612 -0.2831  0.5201
13299TIP3    H161388   5.900   0.342   2.710 -0.3195  0.0076  0.4318
13299TIP3    H261389   5.990   0.296   2.598 -0.0802  1.7031 -0.0950
13300TIP3   OH261390   5.917   2.732  14.634 -0.1426  0.1716  0.1990
13300TIP3    H161391   5.991   2.672  14.630 -0.3100 -0.0786  0.7223
13300TIP3    H261392   5.873   2.711  14.717  0.7617  2.1103  1.2688
13301TIP3   OH261393   0.350   3.769   0.509  0.0432  0.3997  0.3341
13301TIP3    H161394   0.401   3.850   0.502 -0.3609  0.8226  2.0024
13301TIP3    H261395   0.413   3.700   0.488  0.6915  1.0568  0.0650
13302TIP3   OH261396   5.991   3.868   1.068  0.3838  0.5667  0.2150
13302TIP3    H161397   5.913   3.814   1.058 -0.2964  0.8827  3.1068
13302TIP3    H261398   5.965   3.954   1.036  0.5692 -0.0315 -1.6829
13303TIP3   OH261399   1.246   3.431  16.642  0.3325  0.0952  0.2812
13303TIP3    H161400   1.268   3.502  16.702 -2.6540  1.6803 -0.3139
13303TIP3    H261401   1.287   3.456  16.559 -0.5268  1.0663  0.1311
13304TIP3   OH261402   3.622   3.026   3.754 -0.3140 -0.4510 -0.1507
13304TIP3    H161403   3.646   3.042   3.663  1.6876  0.7371  0.5254
13304TIP3    H261404   3.706   3.012   3.798 -1.1811 -0.1532  1.6636
13305TIP3   OH261405   0.176   5.572  13.773 -0.0239  0.8875 -0.0480
13305TIP3    H161406   0.173   5.664  13.749 -0.0095  0.2796 -2.6788
13305TIP3    H261407   0.088   5.539  13.754  0.9720 -0.4061 -2.9423
13306TIP3   OH261408   3.254   2.965  13.116 -0.3899 -0.0286 -0.4874
13306TIP3    H161409   3.161   2.974  13.137 -0.6391  0.3213 -1.6604
13306TIP3    H261410   3.273   3.039  13.059  0.6215 -0.0767 -0.2195
13307TIP3   OH261411   4.838   0.048   1.234 -0.4106 -0.4990  0.4180
13307TIP3    H161412   4.906   0.036   1.168  0.1552  1.0894  0.6605
13307TIP3    H261413   4.806  -0.040   1.252  1.4871 -1.2792  0.2026
13308TIP3   OH261414   2.885   0.130  12.818  0.0173  0.5342  0.2961
13308TIP3    H161415   2.954   0.146  12.753  2.1525 -1.2815  1.9296
13308TIP3    H261416   2.932   0.128  12.901 -2.2992  0.6955  1.6812
13309TIP3   OH261417   6.424   5.846  15.791  0.2411  0.1897 -0.0554
13309TIP3    H161418   6.349   5.899  15.763  0.2769  0.0071 -0.5123
13309TIP3    H261419   6.444   5.791  15.715  0.2183 -0.4661  0.4048
13310TIP3   OH261420   0.790   5.921   5.567  0.8740  0.4785 -0.0997
13310TIP3    H161421   0.722   5.859   5.593 -1.7591  2.7338 -0.9861
13310TIP3    H261422   0.860   5.868   5.532 -0.5630 -2.0182  0.5869
13311TIP3   OH261423   1.830   1.642  15.499 -0.0101 -0.0160  0.2752
13311TIP3    H161424   1.909   1.639  15.445 -0.0270 -0.3690  0.2727
13311TIP3    H261425   1.759   1.647  15.435  0.0606  1.6219  0.2798
13312TIP3   OH261426   0.380   5.959   4.331 -0.3014  0.1374 -0.3245
13312TIP3    H161427   0.475   5.967   4.329 -0.1131 -1.5797 -0.0530
13312TIP3    H261428   0.350   5.997   4.248  0.5948  0.7985 -0.3568
13313TIP3   OH261429   4.964   5.345   2.608  0.4261 -0.2341  0.0654
13313TIP3    H161430   4.969   5.339   2.704  0.3416 -0.2549  0.0687
13313TIP3    H261431   4.998   5.432   2.588 -0.3725  0.1120  0.1826
13314TIP3   OH261432   4.769   2.453  15.890 -0.2084  0.5773  0.0558
13314TIP3    H161433   4.717   2.413  15.959 -0.4038 -1.6845 -1.2977
13314TIP3    H261434   4.704   2.491  15.830 -0.2243 -0.3640 -0.5394
13315TIP3   OH261435   2.424   6.184  16.829  0.4440 -0.5464 -0.1034
13315TIP3    H161436   2.374   6.110  16.863  1.1807 -0.3460  1.5379
13315TIP3    H261437   2.509   6.177  16.873  0.7128  0.9710 -0.3436
13316TIP3   OH261438   3.334   1.034  15.026 -0.2127 -0.4804  0.3360
13316TIP3    H161439   3.418   1.000  15.056 -0.0941 -0.2259  0.3011
13316TIP3    H261440   3.269   0.973  15.061 -0.1148  0.0723  1.5317
13317TIP3   OH261441   3.351   0.068   0.843  0.3489 -0.2912 -0.1772
13317TIP3    H161442   3.387   0.150   0.875 -0.5089 -0.2006  0.5937
13317TIP3    H261443   3.394   0.001   0.895  0.9262 -0.3391 -0.6937
13318TIP3   OH261444   2.263   5.475  13.946 -0.0880 -0.7797 -0.8430
13318TIP3    H161445   2.289   5.521  14.026 -2.5130 -1.4859  0.4462
13318TIP3    H261446   2.314   5.395  13.946 -0.8645 -1.3077  0.6440
13319TIP3   OH261447   1.813   3.472  15.158 -0.2861 -0.1955 -0.4925
13319TIP3    H161448   1.725   3.436  15.168  0.2305 -0.7779  3.9104
13319TIP3    H261449   1.807   3.560  15.196  1.0750 -0.3849  0.2234
13320TIP3   OH261450   0.603   2.563   1.616 -0.3140 -0.1667 -0.4111
13320TIP3    H161451   0.527   2.618   1.597  1.5340  2.7910  0.1335
13320TIP3    H261452   0.621   2.579   1.709  1.0572 -0.6438 -0.5739
13321TIP3   OH261453   2.635   4.783  17.118  0.1393 -0.0528  0.1644
13321TIP3    H161454   2.681   4.708  17.080 -1.7196 -0.4429 -1.4547
13321TIP3    H261455   2.567   4.804  17.055 -0.4075  2.0161  1.3475
13322TIP3   OH261456   2.618   5.275  13.496  0.0646  0.3017 -0.6828
13322TIP3    H161457   2.669   5.217  13.552  0.4934  0.5288 -0.8285
13322TIP3    H261458   2.527   5.253  13.515  0.1764  0.8757  0.6511
13323TIP3   OH261459   4.171   3.846   6.380 -0.0317  0.1015 -0.1626
13323TIP3    H161460   4.196   3.816   6.292 -2.7583 -1.5446 -0.4967
13323TIP3    H261461   4.255   3.857   6.426  1.5388  1.6064 -3.0624
13324TIP3   OH261462   3.669   6.236  12.774 -0.1348 -0.3518 -0.1417
13324TIP3    H161463   3.617   6.156  12.771  0.8316 -0.9901  0.0397
13324TIP3    H261464   3.728   6.225  12.848 -1.5094  1.4964  1.3465
13325TIP3   OH261465   1.263   2.486  14.093  0.5341  0.3158 -0.4131
13325TIP3    H161466   1.255   2.416  14.157  0.7601  0.2846 -0.4179
13325TIP3    H261467   1.309   2.446  14.019 -0.8488 -0.0109 -1.1315
13326TIP3   OH261468   0.621   1.665   4.374 -0.2165 -0.4418 -0.4807
13326TIP3    H161469   0.552   1.658   4.308 -0.3831  1.0760 -0.4958
13326TIP3    H261470   0.616   1.582   4.422  1.7535 -2.9056 -4.0857
13327TIP3   OH261471   2.421   6.501  12.726  0.2870 -0.9625 -0.0025
13327TIP3    H161472   2.487   6.568  12.708  0.2870 -0.9201  0.1536
13327TIP3    H261473   2.414   6.452  12.644 -1.5840  0.8201 -0.9998
13328TIP3   OH261474   1.074   6.628   4.343  0.4570 -0.0629 -0.0612
13328TIP3    H161475   1.116   6.565   4.402 -0.4855 -0.1642  0.5233
13328TIP3    H261476   1.111   6.712   4.368  0.2080 -0.1305  0.5609
13329TIP3   OH261477   1.966   3.008   1.818 -0.1756  0.4635 -0.4768
13329TIP3    H161478   1.928   2.950   1.883 -1.6810  1.2430 -0.6183
13329TIP3    H261479   1.905   3.006   1.744  1.4894 -0.4016 -1.9080
13330TIP3   OH261480   5.199   4.860  16.791 -0.0477  0.0380 -0.1562
13330TIP3    H161481   5.153   4.891  16.870  0.4117  0.5617 -0.0878
13330TIP3    H261482   5.178   4.925  16.724 -1.2167 -0.9090 -0.7503
13331TIP3   OH261483   4.335   1.501   2.589 -0.7641  0.2335  0.4285
13331TIP3    H161484   4.282   1.480   2.667  1.1035  0.5652  1.8560
13331TIP3    H261485   4.308   1.590   2.567 -1.5142  0.0382  0.5018
13332TIP3   OH261486   2.577   0.534  13.619 -0.1271  0.2417  0.5052
13332TIP3    H161487   2.541   0.453  13.583 -0.3993  0.3067  0.6358
13332TIP3    H261488   2.504   0.595  13.622  0.3042  0.8282 -0.5586
13333TIP3   OH261489   5.569   4.288  13.969  0.1691 -0.7451 -0.1885
13333TIP3    H161490   5.520   4.369  13.977  1.4185  0.2269 -1.7081
13333TIP3    H261491   5.522   4.225  14.024 -3.4372 -0.2076 -2.3196
13334TIP3   OH261492   5.461   4.142  10.503  0.0574  0.1406  0.0946
13334TIP3    H161493   5.390   4.154  10.566 -0.2882 -1.7507  0.1027
13334TIP3    H261494   5.524   4.086  10.548 -0.2417 -1.3189 -1.2169
13335TIP3   OH261495   4.739   3.872   0.328 -0.2673  0.1504  0.2816
13335TIP3    H161496   4.682   3.883   0.404 -1.0337  0.9134 -0.3927
13335TIP3    H261497   4.684   3.831   0.262  0.2584 -0.0560 -0.0387
13336TIP3   OH261498   0.333   1.367   4.560 -0.4344 -0.2819  0.0507
13336TIP3    H161499   0.397   1.296   4.551  0.6992  0.8681 -1.9106
13336TIP3    H261500   0.256   1.336   4.513 -0.1584 -0.4740 -0.2845
13337TIP3   OH261501   0.553   2.150  14.473  0.1679  0.3115  0.4738
13337TIP3    H161502   0.512   2.197  14.545 -0.4711  0.8195 -0.2064
13337TIP3    H261503   0.527   2.198  14.395  2.4828  1.0032  0.0275
13338TIP3   OH261504   6.363   1.695  12.741 -0.1290  0.3929 -0.2305
13338TIP3    H161505   6.385   1.780  12.781  0.4408  0.5315 -0.8251
13338TIP3    H261506   6.411   1.631  12.794 -0.7576  0.4048  0.3757
13339TIP3   OH261507   1.266   0.675  14.616 -0.1131  0.7331 -0.1220
13339TIP3    H161508   1.219   0.757  14.629 -1.0785 -0.1583  2.8893
13339TIP3    H261509   1.324   0.669  14.692  0.4164 -1.0414 -0.6283
13340TIP3   OH261510   4.442   2.746  10.964 -0.2494 -0.4866 -0.3063
13340TIP3    H161511   4.492   2.683  10.912 -2.7468 -2.3346 -0.6327
13340TIP3    H261512   4.407   2.807  10.900  0.0704 -0.2680 -0.2780
13341TIP3   OH261513   5.252   4.772   2.750  0.3669  0.1262 -0.5123
13341TIP3    H161514   5.244   4.685   2.711 -1.5243  0.5543 -1.1671
13341TIP3    H261515   5.339   4.772   2.791  0.7621 -1.7427 -1.2612
13342TIP3   OH261516   6.184   1.539  14.115 -0.2060 -0.1212  0.5537
13342TIP3    H161517   6.199   1.633  14.104  0.5341 -0.4320 -1.4342
13342TIP3    H261518   6.241   1.515  14.189  2.2340  0.4360 -1.0364
13343TIP3   OH261519   4.800   2.987   2.518  0.1863  0.3029 -0.1910
13343TIP3    H161520   4.827   2.995   2.427 -0.1347 -1.4231 -0.4768
13343TIP3    H261521   4.881   2.986   2.568  0.6412 -2.3918 -0.8231
13344TIP3   OH261522   6.126   1.147   2.049 -0.6652  0.1046  0.3888
13344TIP3    H161523   6.154   1.065   2.008 -0.3816 -0.3146  1.3938
13344TIP3    H261524   6.033   1.135   2.067 -0.9189  0.4902 -0.5610
13345TIP3   OH261525   4.144   0.993  15.664 -0.5869  0.4416  0.3404
13345TIP3    H161526   4.217   0.976  15.604 -1.2761 -1.6307  0.0081
13345TIP3    H261527   4.177   1.061  15.723  0.6737  1.4178 -1.3801
13346TIP3   OH261528   4.963   1.874   1.658  0.3307  0.6384  0.2944
13346TIP3    H161529   4.975   1.907   1.747 -0.4807  1.2544  0.1906
13346TIP3    H261530   4.906   1.798   1.668  0.2301  0.7147  0.3040
13347TIP3   OH261531   6.374   5.628  14.753 -0.3328 -0.0556 -0.4916
13347TIP3    H161532   6.395   5.629  14.847 -0.6550  0.5884 -0.4177
13347TIP3    H261533   6.442   5.573  14.714 -0.6552 -0.9962  0.2252
13348TIP3   OH261534   0.017   1.749   5.856 -0.8219  0.8272  0.5093
13348TIP3    H161535   0.032   1.700   5.775  0.5634 -1.0941  1.8213
13348TIP3    H261536  -0.077   1.741   5.872 -1.1643  1.4870 -1.0283
13349TIP3   OH261537   3.757   3.954   2.928 -0.4771  0.3426 -0.8252
13349TIP3    H161538   3.701   4.028   2.952 -0.0249  0.9926 -1.7026
13349TIP3    H261539   3.744   3.943   2.834  0.0447 -0.1974 -0.8417
13350TIP3   OH261540   5.862   6.190  16.519 -0.6634 -0.3472  0.0098
13350TIP3    H161541   5.895   6.277  16.538  0.1887 -0.3380 -1.3804
13350TIP3    H261542   5.921   6.131  16.566 -1.9031 -0.1877  1.8730
13351TIP3   OH261543   3.326   4.179  10.624  0.4140  0.0777 -1.1895
13351TIP3    H161544   3.345   4.273  10.619 -0.0605  0.1390 -2.1578
13351TIP3    H261545   3.273   4.161  10.546 -0.6282 -0.7335 -0.3223
13352TIP3   OH261546   1.813   6.326  11.459 -0.3137 -0.0243 -0.5532
13352TIP3    H161547   1.872   6.259  11.427 -1.2149 -1.2002  0.1774
13352TIP3    H261548   1.725   6.293  11.439 -0.7595  1.3643 -1.0077
13353TIP3   OH261549   2.363   1.754  11.397  0.0585  0.2210  0.3072
13353TIP3    H161550   2.419   1.828  11.374 -1.7310  1.7663  0.6400
13353TIP3    H261551   2.412   1.677  11.368  0.6893  1.6520 -2.8892
13354TIP3   OH261552   3.626   4.491  10.748 -0.4592  0.2953  0.2057
13354TIP3    H161553   3.685   4.446  10.809  1.2634 -1.5020 -2.5782
13354TIP3    H261554   3.664   4.578  10.737 -0.6888  0.5779  1.4863
13355TIP3   OH261555   2.794   2.604   2.309 -0.0769  0.2068 -0.0458
13355TIP3    H161556   2.769   2.525   2.358 -1.1393  1.6651  1.9146
13355TIP3    H261557   2.844   2.657   2.371 -1.0658  1.9333 -0.6418
13356TIP3   OH261558   2.033   0.573  13.322  0.1177 -0.2908 -0.3238
13356TIP3    H161559   1.985   0.652  13.344  0.3361 -0.4294  0.7015
13356TIP3    H261560   1.990   0.540  13.243  0.2573  1.0299 -0.9810
13357TIP3   OH261561   5.922   1.177   3.100 -0.3863 -0.0572 -0.2293
13357TIP3    H161562   5.864   1.140   3.167  0.6294 -0.6728  0.3332
13357TIP3    H261563   5.877   1.160   3.018 -0.8196 -0.8887  0.1667
13358TIP3   OH261564   2.410   1.569  16.625 -0.1847 -0.0719  0.1879
13358TIP3    H161565   2.490   1.528  16.592 -0.5445 -2.4097  1.9551
13358TIP3    H261566   2.342   1.538  16.565  0.1449  1.9576 -1.3455
13359TIP3   OH261567   4.182   4.300  14.855 -0.1963  0.0248  0.2197
13359TIP3    H161568   4.211   4.256  14.934  2.7218 -2.3173 -1.9230
13359TIP3    H261569   4.158   4.230  14.795  1.5976  1.3763 -2.2872
13360TIP3   OH261570   4.323   5.355  16.655  0.1730 -0.4136 -0.4771
13360TIP3    H161571   4.258   5.325  16.719  0.2360  2.5678  1.1822
13360TIP3    H261572   4.271   5.376  16.577 -0.5677 -0.0821  0.0890
13361TIP3   OH261573   2.182   2.943   2.975  0.3563  0.5352 -0.4846
13361TIP3    H161574   2.124   2.903   2.911  0.0747 -0.7318  0.5245
13361TIP3    H261575   2.253   2.880   2.986  2.0032  2.0613 -1.7145
13362TIP3   OH261576   5.495   2.131  13.384  0.1774 -0.5826 -0.8274
13362TIP3    H161577   5.470   2.134  13.291  1.3255 -0.3836 -1.1400
13362TIP3    H261578   5.481   2.220  13.415 -0.2129 -0.6498 -0.8063
13363TIP3   OH261579   2.462   3.059  12.112 -0.7127  0.1737 -0.5243
13363TIP3    H161580   2.383   3.099  12.076 -0.4345  1.3304  0.0755
13363TIP3    H261581   2.514   3.134  12.143 -0.0391 -0.6490  0.4047
13364TIP3   OH261582   5.007   1.023  14.720 -0.1699  0.2366  0.3761
13364TIP3    H161583   4.929   1.051  14.768  0.4583  1.6597  0.6243
13364TIP3    H261584   4.986   1.038  14.628 -0.6648 -0.6430  0.3403
13365TIP3   OH261585   0.766   6.616  12.998  0.2671  0.4386 -0.7004
13365TIP3    H161586   0.823   6.650  13.066  1.7933 -2.4657 -0.3527
13365TIP3    H261587   0.678   6.623  13.035  1.1940 -3.7521  3.1622
13366TIP3   OH261588   0.235   3.166   3.257  0.4400 -0.2680  0.1755
13366TIP3    H161589   0.294   3.158   3.332 -0.8278  1.2922  1.4324
13366TIP3    H261590   0.209   3.076   3.238  2.3874 -0.8851  0.2466
13367TIP3   OH261591   1.237   1.323  12.441 -0.5128  0.3414 -0.6021
13367TIP3    H161592   1.306   1.336  12.376  0.0606  1.4872  0.2007
13367TIP3    H261593   1.247   1.397  12.502 -1.1508 -0.5820  0.6716
13368TIP3   OH261594   6.196   2.604  14.028  0.0026 -0.5001  0.4102
13368TIP3    H161595   6.265   2.584  13.965 -1.0587 -0.0514 -0.9510
13368TIP3    H261596   6.151   2.520  14.041 -0.2519 -0.4422 -0.0499
13369TIP3   OH261597   6.139   2.120   4.331 -0.3717 -0.2497  0.0068
13369TIP3    H161598   6.153   2.039   4.379 -0.5683  0.4012  1.2240
13369TIP3    H261599   6.130   2.094   4.240  0.1087 -1.5277  0.3100
13370TIP3   OH261600   5.051   5.273  15.155 -0.7459 -0.6376 -0.5714
13370TIP3    H161601   5.043   5.187  15.195  0.1778 -0.4043  0.1491
13370TIP3    H261602   5.078   5.256  15.065  0.9057 -1.0675 -0.0107
13371TIP3   OH261603   2.732   4.246   4.506 -0.5107  0.4484 -0.4021
13371TIP3    H161604   2.728   4.209   4.418 -3.1294 -0.4045 -0.0378
13371TIP3    H261605   2.715   4.171   4.563  2.6208  0.6680  1.0150
13372TIP3   OH261606   3.411   4.268   0.503 -0.4800  0.0593 -0.6135
13372TIP3    H161607   3.356   4.305   0.572  0.6193  1.0606 -0.2439
13372TIP3    H261608   3.389   4.174   0.502 -0.3232 -0.0185  1.2732
13373TIP3   OH261609   4.654   0.134   0.920 -0.4740  0.1317  0.1181
13373TIP3    H161610   4.567   0.126   0.880  0.1210 -0.9031 -1.0836
13373TIP3    H261611   4.712   0.089   0.858  0.5847 -1.1787  1.9745
13374TIP3   OH261612   6.678   1.503   5.715  0.7922 -0.0407 -0.1480
13374TIP3    H161613   6.601   1.494   5.772  2.4205  0.6652  2.3263
13374TIP3    H261614   6.653   1.569   5.650  0.1698  2.2747  2.2885
13375TIP3   OH261615   1.368   0.184   3.561  0.2189 -0.0396  0.7922
13375TIP3    H161616   1.337   0.120   3.497  1.1283 -0.0139  0.3074
13375TIP3    H261617   1.317   0.263   3.542 -0.4429 -0.4197  0.9662
13376TIP3   OH261618   4.019   0.672  11.963 -0.0664  0.2809  0.1944
13376TIP3    H161619   4.056   0.692  12.049  0.8978 -1.0471  0.1183
13376TIP3    H261620   4.057   0.738  11.905 -0.4090  0.9367  0.6929
13377TIP3   OH261621   6.035   5.459   0.190 -0.1079 -0.1950  0.0020
13377TIP3    H161622   6.077   5.395   0.132 -0.2029  0.6122 -1.0000
13377TIP3    H261623   5.976   5.406   0.245  1.6310 -1.2457  0.9240
13378TIP3   OH261624   1.917   5.654  15.003  0.0732  0.1859 -0.3609
13378TIP3    H161625   2.002   5.623  15.033  0.5064  0.5562 -1.1808
13378TIP3    H261626   1.908   5.617  14.915 -1.0908 -0.7361  0.1184
13379TIP3   OH261627   4.596   1.097   0.668 -0.7196  0.3338 -0.9714
13379TIP3    H161628   4.557   1.096   0.581 -1.5310  0.6951 -0.6191
13379TIP3    H261629   4.672   1.155   0.660 -1.6902  1.6424 -1.0715
13380TIP3   OH261630   3.032   6.273   0.121  0.1599  0.2005 -0.5892
13380TIP3    H161631   2.940   6.247   0.125  0.3304 -0.8289  5.2668
13380TIP3    H261632   3.029   6.366   0.098 -2.2583  0.0657 -1.1376
13381TIP3   OH261633   4.422   0.504   1.668 -0.6080 -0.2506  0.1442
13381TIP3    H161634   4.442   0.515   1.575  3.1494  0.6043  0.8860
13381TIP3    H261635   4.464   0.422   1.692 -0.3404  0.2188  1.3402
13382TIP3   OH261636   5.609   0.595  16.865 -0.1309 -0.4253 -0.2845
13382TIP3    H161637   5.598   0.556  16.778 -1.9833 -0.4278 -0.0827
13382TIP3    H261638   5.633   0.686  16.847 -1.9581 -0.0145 -0.8612
13383TIP3   OH261639   6.715   2.172   1.689  0.0686 -0.0678  0.1858
13383TIP3    H161640   6.677   2.129   1.612 -0.4287 -1.3230  1.0975
13383TIP3    H261641   6.640   2.206   1.737  0.4201  1.3086 -0.1975
13384TIP3   OH261642   1.458   2.005   5.147 -0.0516  0.6340 -0.1555
13384TIP3    H161643   1.400   2.069   5.188  1.4313  0.6461  2.0766
13384TIP3    H261644   1.398   1.944   5.103 -1.7849  0.8775  1.7094
13385TIP3   OH261645   4.599   2.183  13.612  0.0773 -0.1734 -0.3126
13385TIP3    H161646   4.613   2.257  13.671  0.6699 -1.2902  1.0061
13385TIP3    H261647   4.687   2.156  13.586 -0.0804 -0.9334 -0.0850
13386TIP3   OH261648   1.728   6.497  12.346 -0.3308  0.2786  0.5122
13386TIP3    H161649   1.662   6.449  12.396 -2.0064  0.9369 -0.9771
13386TIP3    H261650   1.811   6.455  12.370 -1.3917 -1.3229  1.5797
13387TIP3   OH261651   3.866   0.781   2.434  0.0362  0.0603 -0.1630
13387TIP3    H161652   3.904   0.847   2.376  0.1510  1.7795  1.7925
13387TIP3    H261653   3.797   0.740   2.381  0.8573  0.7762 -1.8692
13388TIP3   OH261654   5.968   6.371   5.274  0.0402  0.4343  0.5268
13388TIP3    H161655   5.907   6.394   5.344 -1.9096  0.5756 -1.1215
13388TIP3    H261656   6.055   6.388   5.311 -0.9547  1.6881  2.4615
13389TIP3   OH261657   5.922   0.895  11.297  0.8395  0.2792 -0.3236
13389TIP3    H161658   5.867   0.840  11.243  1.3215 -0.6495  0.1063
13389TIP3    H261659   5.922   0.980  11.254 -0.1823  0.0334 -0.8146
13390TIP3   OH261660   1.452   1.536   0.922  0.2435 -0.2908 -0.2650
13390TIP3    H161661   1.385   1.468   0.921 -1.6999  1.4813  1.2262
13390TIP3    H261662   1.514   1.509   0.990  0.1522 -1.1000 -0.4909
13391TIP3   OH261663   6.129   5.012  12.598  1.0081 -0.1941 -0.3817
13391TIP3    H161664   6.164   4.942  12.544  1.7671 -1.8164  2.0212
13391TIP3    H261665   6.078   4.967  12.666 -2.0391  1.8472 -1.0845
13392TIP3   OH261666   1.131   3.519  12.213 -0.5005  0.3729  0.1535
13392TIP3    H161667   1.180   3.589  12.256  2.1849 -0.5355 -1.1892
13392TIP3    H261668   1.180   3.502  12.132 -1.6417 -2.3395 -0.0683
13393TIP3   OH261669   3.991   5.164   3.358 -0.2886  0.1388 -0.6285
13393TIP3    H161670   4.027   5.149   3.446  1.0230 -1.2463 -1.3496
13393TIP3    H261671   3.908   5.118   3.358  0.1126 -0.6055 -0.3659
13394TIP3   OH261672   4.900   6.196  10.628  0.2839  0.0429  0.6023
13394TIP3    H161673   4.915   6.258  10.699  0.1540  0.3865  0.3331
13394TIP3    H261674   4.928   6.111  10.663  2.3841  0.5602  0.2910
13395TIP3   OH261675   5.185   0.850   4.686  0.3422  0.0900 -0.3990
13395TIP3    H161676   5.158   0.869   4.596 -1.9126 -0.0527  0.1664
13395TIP3    H261677   5.126   0.780   4.714  1.4774 -0.3586  0.9580
13396TIP3   OH261678   1.180   4.757   2.828 -0.3020 -0.0460  0.1421
13396TIP3    H161679   1.154   4.830   2.885  0.2283  0.4997 -0.2959
13396TIP3    H261680   1.098   4.713   2.806 -0.4582 -0.7057  1.8863
13397TIP3   OH261681   4.014   6.691  16.518  0.2631 -0.6039  0.4625
13397TIP3    H161682   4.054   6.749  16.454  0.8767 -0.8058  0.6586
13397TIP3    H261683   3.921   6.714  16.516  0.7054  1.5749  1.7436
13398TIP3   OH261684   5.023   1.766   1.003  0.1713  0.2629 -0.3921
13398TIP3    H161685   4.927   1.767   1.001  0.1758 -0.1103 -0.8345
13398TIP3    H261686   5.045   1.695   1.064  0.1735 -1.1423 -1.9716
13399TIP3   OH261687   1.825   5.250  13.508  0.5990 -0.3911  0.1247
13399TIP3    H161688   1.776   5.219  13.431 -0.2458  0.7021  0.1968
13399TIP3    H261689   1.905   5.198  13.508 -1.2916 -3.6172  1.0235
13400TIP3   OH261690   4.992   5.011   0.147  0.5221 -0.3380  0.1941
13400TIP3    H161691   4.915   4.956   0.131  0.3331 -0.1654  0.4931
13400TIP3    H261692   5.032   4.975   0.226  2.1734 -1.9763 -1.3090
13401TIP3   OH261693   4.280   3.253   2.775 -0.9057 -0.3597 -0.7270
13401TIP3    H161694   4.229   3.253   2.694 -0.5973  1.1762 -0.9623
13401TIP3    H261695   4.217   3.280   2.843 -0.8858 -0.4787 -0.6607
13402TIP3   OH261696   2.915   4.568   0.909 -0.1826  0.1570  0.4281
13402TIP3    H161697   2.843   4.627   0.884 -0.0386  0.3842  0.5438
13402TIP3    H261698   2.944   4.602   0.994 -0.1841 -0.1609  0.5565
13403TIP3   OH261699   1.443   5.368  14.785 -0.5722  0.9107 -0.4776
13403TIP3    H161700   1.433   5.422  14.706 -0.9052  0.8126 -0.5008
13403TIP3    H261701   1.357   5.329  14.799 -1.2034  2.7672  1.2889
13404TIP3   OH261702   1.168   5.953   0.706  0.4431 -0.4915 -0.1171
13404TIP3    H161703   1.251   5.949   0.658  0.7184 -1.2462  0.4027
13404TIP3    H261704   1.140   6.044   0.696  0.6676 -0.5376 -1.3902
13405TIP3   OH261705   1.957   0.283  11.213 -0.0474 -0.4856  0.4310
13405TIP3    H161706   1.968   0.216  11.145 -2.6854 -0.4936 -0.0694
13405TIP3    H261707   2.008   0.249  11.287  0.8611 -1.6968 -0.6767
13406TIP3   OH261708   0.185   1.188  14.067 -0.2809 -0.4607 -0.4939
13406TIP3    H161709   0.120   1.129  14.027  0.3011 -0.7400 -1.0441
13406TIP3    H261710   0.254   1.130  14.099 -0.0465 -0.1267 -0.3911
13407TIP3   OH261711   0.711   6.660  11.430  0.7142  0.2926 -0.5512
13407TIP3    H161712   0.627   6.677  11.472  1.3407  1.2503  0.3657
13407TIP3    H261713   0.742   6.579  11.469  0.3196  0.0477 -0.7410
13408TIP3   OH261714   1.100   5.380   2.359  0.9095  0.0483 -0.3810
13408TIP3    H161715   1.140   5.300   2.393  0.0657 -0.1446  0.1634
13408TIP3    H261716   1.082   5.433   2.436 -0.8704 -0.3241 -0.4988
13409TIP3   OH261717   0.388   6.440   1.686 -1.2611 -0.4827 -0.2985
13409TIP3    H161718   0.418   6.530   1.680 -0.3994 -0.6026  1.3902
13409TIP3    H261719   0.405   6.415   1.777 -1.7967 -2.2366 -0.6295
13410TIP3   OH261720   6.798   5.418  15.343 -0.2380 -0.2079 -0.5814
13410TIP3    H161721   6.825   5.509  15.334 -2.0069  0.5135  0.7687
13410TIP3    H261722   6.855   5.383  15.413  0.4479 -0.1698 -1.1082
13411TIP3   OH261723   1.223   5.048   3.106 -0.8316  0.2350 -0.4631
13411TIP3    H161724   1.293   4.985   3.093 -0.9789  0.1060 -0.6397
13411TIP3    H261725   1.155   5.000   3.153  0.4376  1.1750  2.6220
13412TIP3   OH261726   0.678   1.398  14.741  0.2153 -0.1012  0.1423
13412TIP3    H161727   0.623   1.332  14.783  1.1203 -0.1126  1.3780
13412TIP3    H261728   0.752   1.349  14.704  0.1058  0.0599 -0.3008
13413TIP3   OH261729   2.711   0.126  13.397  0.2405  0.3348  0.0779
13413TIP3    H161730   2.766   0.060  13.354 -0.6552  0.4136 -1.2207
13413TIP3    H261731   2.771   0.170  13.458  1.1797 -0.7483 -0.0191
13414TIP3   OH261732   0.725   3.463  11.476 -0.5090  0.0978 -0.4164
13414TIP3    H161733   0.801   3.474  11.533 -0.3720  2.1563 -0.8876
13414TIP3    H261734   0.668   3.401  11.522 -0.7902  2.2681  2.4253
13415TIP3   OH261735   0.659   6.539  14.204  0.2863  0.2483  0.5352
13415TIP3    H161736   0.749   6.558  14.231  0.8446 -0.7465 -0.5370
13415TIP3    H261737   0.641   6.452  14.238  1.0648 -1.1122 -2.1976
13416TIP3   OH261738   1.274   2.749   0.215 -0.3229  0.5681 -0.1897
13416TIP3    H161739   1.275   2.797   0.132  1.0451  0.4419 -0.2667
13416TIP3    H261740   1.284   2.657   0.189 -1.8167  0.3237  0.0229
13417TIP3   OH261741   5.785   1.063   2.661 -0.3842 -0.1118 -0.1968
13417TIP3    H161742   5.737   0.984   2.637  0.4798 -0.4983 -0.6793
13417TIP3    H261743   5.784   1.117   2.582 -0.7032  0.2418  0.0378
13418TIP3   OH261744   3.009   3.939   1.681  0.4028 -0.2566  0.1065
13418TIP3    H161745   2.926   3.971   1.716 -0.1621 -0.2896 -1.1709
13418TIP3    H261746   3.002   3.844   1.683  0.4401 -0.2607  0.0597
13419TIP3   OH261747   4.640   5.731   3.450  0.3347 -0.1053  0.0262
13419TIP3    H161748   4.623   5.762   3.538  0.1874  2.2718 -0.7794
13419TIP3    H261749   4.735   5.726   3.444  0.4333  1.6042 -0.2373
13420TIP3   OH261750   6.771   6.174   2.926  0.3046  0.2911  0.1210
13420TIP3    H161751   6.841   6.110   2.935  1.5316  1.5174 -0.4938
13420TIP3    H261752   6.729   6.153   2.842  0.3953  0.0142  0.1450
13421TIP3   OH261753   1.759   5.157   3.209 -0.1368 -0.1392 -0.0659
13421TIP3    H161754   1.743   5.119   3.123 -4.6885  1.3360 -0.1365
13421TIP3    H261755   1.786   5.247   3.192 -1.5387  0.3114 -0.0495
13422TIP3   OH261756   5.029   5.236  14.168 -0.2222 -0.4029 -0.8492
13422TIP3    H161757   4.950   5.280  14.135 -0.0231 -0.2363 -1.1176
13422TIP3    H261758   5.021   5.146  14.136 -0.7324 -0.6204 -0.1242
13423TIP3   OH261759   1.278   5.839   2.825 -0.0010 -0.1794  0.1151
13423TIP3    H161760   1.193   5.833   2.870 -1.0359 -3.6289 -1.9163
13423TIP3    H261761   1.258   5.882   2.742 -0.5774 -3.5464 -1.6549
13424TIP3   OH261762   1.930   5.653  12.349  0.5154 -0.0369 -0.3080
13424TIP3    H161763   1.962   5.594  12.417 -0.1962 -2.2957 -1.8482
13424TIP3    H261764   2.003   5.663  12.288  0.9353  1.4722  0.3759
13425TIP3   OH261765   2.015   1.439   4.689 -0.1243  0.2225  0.2372
13425TIP3    H161766   1.934   1.451   4.640  1.1311  0.1672 -1.9526
13425TIP3    H261767   2.022   1.518   4.744 -1.6009  0.2466  0.4324
13426TIP3   OH261768   0.989   0.726  12.884  0.6535  0.4005  0.5553
13426TIP3    H161769   0.952   0.728  12.796  2.0253 -0.4745 -0.0895
13426TIP3    H261770   0.915   0.713  12.942 -0.2443  0.7054 -0.5001
13427TIP3   OH261771   5.308   2.134   3.961  0.4864  0.0067 -0.2116
13427TIP3    H161772   5.356   2.096   4.034 -0.4008  0.6133  0.7112
13427TIP3    H261773   5.359   2.210   3.935  1.0779 -0.5071 -0.5860
13428TIP3   OH261774   1.833   3.512   3.102  0.0315 -0.1904 -0.7409
13428TIP3    H161775   1.769   3.505   3.173 -0.2499  1.5331 -0.7695
13428TIP3    H261776   1.887   3.433   3.110 -0.2364 -0.2315  1.1532
13429TIP3   OH261777   4.715   5.712  14.408  0.3097  0.4263 -0.2535
13429TIP3    H161778   4.771   5.634  14.405  0.3665  0.4583 -0.0496
13429TIP3    H261779   4.777   5.785  14.409  0.3028  0.4372  1.0961
13430TIP3   OH261780   1.496   5.592   6.055 -0.6092  0.4302  0.1538
13430TIP3    H161781   1.557   5.660   6.026  0.0212  0.0299  0.5027
13430TIP3    H261782   1.412   5.616   6.016 -0.2738  1.1094 -0.1644
13431TIP3   OH261783   3.298   6.650   0.235  0.0967  0.5074 -0.2289
13431TIP3    H161784   3.319   6.561   0.209  2.9777  0.8353  0.6049
13431TIP3    H261785   3.340   6.705   0.169  0.4091  1.2481  0.5711
13432TIP3   OH261786   5.048   0.638  13.119  0.2110  0.1916  0.3576
13432TIP3    H161787   5.022   0.714  13.172  0.9706  0.0065  1.0200
13432TIP3    H261788   5.140   0.654  13.099  0.3318 -0.4859  0.3692
13433TIP3   OH261789   3.846   5.875  16.489  0.9261  0.3345  0.2858
13433TIP3    H161790   3.865   5.888  16.582  1.8277 -1.3525  0.3829
13433TIP3    H261791   3.753   5.893  16.481  0.7569  0.1759  1.5920
13434TIP3   OH261792   4.723   2.472   1.569 -0.0519 -0.5055  0.0369
13434TIP3    H161793   4.770   2.404   1.521  1.4400 -0.6295  1.5859
13434TIP3    H261794   4.765   2.475   1.655 -1.4043  0.9909  0.7074
13435TIP3   OH261795   4.367   2.013   4.993 -0.1495  0.2733  0.3839
13435TIP3    H161796   4.347   2.006   4.900 -0.8691 -2.0014  0.6512
13435TIP3    H261797   4.306   2.079   5.026 -1.2338 -0.2992 -0.4134
13436TIP3   OH261798   1.317   0.944  13.094  0.4280 -0.0101  0.5463
13436TIP3    H161799   1.316   1.034  13.126 -1.1170  0.5154 -0.8506
13436TIP3    H261800   1.248   0.900  13.143  0.6126 -0.2217  0.6193
13437TIP3   OH261801   6.642   1.525  17.308  0.3614 -0.0268  0.2389
13437TIP3    H161802   6.550   1.512  17.286 -0.7040 -0.9093  4.3600
13437TIP3    H261803   6.686   1.448  17.273 -0.0418  1.0944 -3.0781
13438TIP3   OH261804   6.739   3.280   0.783 -0.3358  0.5332  0.0163
13438TIP3    H161805   6.699   3.205   0.739  1.5277 -0.7878  0.4849
13438TIP3    H261806   6.830   3.255   0.798 -0.4666  1.4635  3.2741
13439TIP3   OH261807   0.931   2.429  16.026  0.2974  0.0228  0.0596
13439TIP3    H161808   0.957   2.514  16.062  0.5956  0.0253 -0.1556
13439TIP3    H261809   0.865   2.396  16.087  0.6950  0.0898  0.5336
13440TIP3   OH261810   5.346   1.112   2.023 -0.0097  0.5983  0.0044
13440TIP3    H161811   5.303   1.191   2.057  0.0449  0.6528 -0.0550
13440TIP3    H261812   5.283   1.042   2.041 -0.2933  0.7377 -0.4364
13441TIP3   OH261813   5.919   2.378   0.984 -0.6715  0.2508  0.2713
13441TIP3    H161814   5.905   2.331   0.902 -2.4559  0.2844  0.5157
13441TIP3    H261815   5.885   2.466   0.967  2.2316  1.4245 -0.0436
13442TIP3   OH261816   4.140   4.897  10.586 -0.4625  0.7933  0.1938
13442TIP3    H161817   4.090   4.858  10.514 -0.0538 -0.2018  0.4340
13442TIP3    H261818   4.107   4.855  10.664 -0.3197  1.2657  0.5156
13443TIP3   OH261819   3.302   2.111  14.872  0.1676 -0.2418  0.1596
13443TIP3    H161820   3.353   2.192  14.868  1.3217 -0.9616 -0.7224
13443TIP3    H261821   3.242   2.117  14.798  0.0058 -0.0321  0.3088
13444TIP3   OH261822   0.487   3.063  15.571 -0.3358 -0.0703  0.2795
13444TIP3    H161823   0.398   3.040  15.594 -0.7966 -2.0879 -2.7945
13444TIP3    H261824   0.539   2.985  15.593  0.3605  0.4640  0.5744
13445TIP3   OH261825   3.649   1.342   0.336 -0.1138  0.2005  0.0361
13445TIP3    H161826   3.710   1.284   0.291  1.3915  2.1135 -0.5168
13445TIP3    H261827   3.676   1.430   0.311 -3.7567  1.1766 -1.0922
13446TIP3   OH261828   2.665   3.734   4.286 -0.4778  0.3970 -0.0244
13446TIP3    H161829   2.694   3.645   4.304 -0.9737  0.3900  0.7895
13446TIP3    H261830   2.586   3.724   4.233 -0.5406  0.3478  0.0775
13447TIP3   OH261831   1.540   3.992  11.777 -0.4825 -0.0138 -0.1321
13447TIP3    H161832   1.550   4.086  11.762  2.8289 -0.3768 -0.8297
13447TIP3    H261833   1.567   3.951  11.694  0.7015 -1.6236  0.9735
13448TIP3   OH261834   1.907   3.334  16.534 -0.1059 -0.0027 -0.6873
13448TIP3    H161835   1.947   3.412  16.495 -0.8884  0.6347 -0.2427
13448TIP3    H261836   1.876   3.363  16.620  0.3692 -1.0350 -0.1394
13449TIP3   OH261837   0.328   0.695  11.429  0.1009  0.1555  0.0424
13449TIP3    H161838   0.413   0.651  11.425  0.2829  0.1857  2.1408
13449TIP3    H261839   0.340   0.777  11.382  1.2686  0.1768  0.3530
13450TIP3   OH261840   3.019   0.450   3.057  0.1780 -0.0750  0.2855
13450TIP3    H161841   3.012   0.463   3.151 -3.1332 -1.9549  0.4293
13450TIP3    H261842   2.970   0.523   3.019 -0.8185 -0.8054  0.1578
13451TIP3   OH261843   3.525   3.979  13.371 -0.0043 -0.0679 -0.5448
13451TIP3    H161844   3.550   4.047  13.434 -0.6084  1.3338 -1.7655
13451TIP3    H261845   3.550   4.014  13.286 -0.3431 -1.3810 -1.2184
13452TIP3   OH261846   1.616   3.810  17.119 -0.5985 -0.6884  0.1243
13452TIP3    H161847   1.582   3.721  17.109  0.7967 -1.2705  0.3744
13452TIP3    H261848   1.710   3.799  17.133 -0.3615  0.8414 -0.0443
13453TIP3   OH261849   1.868   2.732  14.018  0.1379  0.3637 -0.1272
13453TIP3    H161850   1.776   2.723  13.997  0.3543 -0.4866 -0.7807
13453TIP3    H261851   1.903   2.642  14.014  0.9102  0.6164  0.4953
13454TIP3   OH261852   1.659   3.349  12.778 -0.0765  0.1118 -0.6122
13454TIP3    H161853   1.612   3.331  12.860  1.8127 -2.0035  0.0935
13454TIP3    H261854   1.591   3.382  12.719 -2.5688 -2.8578  0.3114
13455TIP3   OH261855   4.932   0.015   0.237 -0.2696  0.0686  0.0202
13455TIP3    H161856   4.916   0.102   0.272  0.2062  1.1837 -2.3249
13455TIP3    H261857   4.988   0.030   0.161 -0.1869 -2.2922 -0.4552
13456TIP3   OH261858   3.557   2.690  13.830  0.1078  0.0412 -0.0240
13456TIP3    H161859   3.539   2.742  13.909  0.7129  0.4358 -0.1399
13456TIP3    H261860   3.505   2.731  13.761 -2.7892 -2.0310  0.7031
13457TIP3   OH261861   3.845   5.658   6.364  0.4076 -0.3242  0.0754
13457TIP3    H161862   3.890   5.629   6.284  3.5868 -0.7764  1.8590
13457TIP3    H261863   3.870   5.592   6.430  0.3930  1.6157  2.1321
13458TIP3   OH261864   5.242   4.607   4.109  0.4329 -0.7376  0.0578
13458TIP3    H161865   5.244   4.551   4.031  0.5849 -0.8028  0.1090
13458TIP3    H261866   5.172   4.570   4.163 -1.2845  0.6748 -1.0735
13459TIP3   OH261867   0.131   3.929  12.568 -0.6509 -0.3142  0.1557
13459TIP3    H161868   0.070   3.896  12.634 -1.2264  2.1914  1.0203
13459TIP3    H261869   0.210   3.951  12.617 -0.2615 -0.5053 -0.3816
13460TIP3   OH261870   1.050   1.739  12.263  0.0173  0.1280 -0.2999
13460TIP3    H161871   1.016   1.796  12.194 -1.4626 -1.1004 -0.6317
13460TIP3    H261872   1.011   1.773  12.343 -0.8806 -0.4139 -0.4985
13461TIP3   OH261873   6.438   1.752  15.460 -0.0088  0.1755  0.6350
13461TIP3    H161874   6.459   1.827  15.515 -2.8166  2.2017 -0.7767
13461TIP3    H261875   6.429   1.788  15.372 -3.2139 -1.3544  0.1731
13462TIP3   OH261876   6.589   2.782   6.510  0.2745  0.1108  0.7194
13462TIP3    H161877   6.504   2.824   6.524  0.6934  0.7431  1.4406
13462TIP3    H261878   6.649   2.830   6.567  1.0267 -0.6369  0.5718
13463TIP3   OH261879   0.396   4.542  15.906  0.4205  0.1805 -0.4351
13463TIP3    H161880   0.352   4.627  15.903  0.3664  0.1195 -1.4042
13463TIP3    H261881   0.417   4.530  15.999 -1.8962  0.0647  0.1368
13464TIP3   OH261882   5.077   6.115   1.399 -0.2338  0.1140  0.7597
13464TIP3    H161883   5.094   6.183   1.464 -0.0546  0.3974  0.4186
13464TIP3    H261884   5.068   6.035   1.450  0.3960  0.2533  1.0970
13465TIP3   OH261885   1.149   6.481  15.125 -0.3644 -0.0590  0.2466
13465TIP3    H161886   1.176   6.395  15.158 -1.6061 -0.9006 -0.8282
13465TIP3    H261887   1.055   6.485  15.144 -0.2911  1.1459  0.4280
13466TIP3   OH261888   3.660   0.281  11.489 -0.0797 -0.2730  0.1013
13466TIP3    H161889   3.579   0.299  11.537 -0.3866 -1.0283 -0.1276
13466TIP3    H261890   3.729   0.290  11.555 -0.1240  2.1623 -0.0641
13467TIP3   OH261891   4.261   5.326   4.385  0.2816 -0.1009  0.1334
13467TIP3    H161892   4.192   5.260   4.396  1.1525 -1.4492 -1.8589
13467TIP3    H261893   4.225   5.386   4.319 -0.2364  1.0789  1.4524
13468TIP3   OH261894   6.044   1.327   2.610  0.5819 -0.5161 -0.3228
13468TIP3    H161895   6.130   1.350   2.576  0.8426 -0.3762  0.4176
13468TIP3    H261896   5.984   1.342   2.537  1.0262  0.5173 -0.4911
13469TIP3   OH261897   3.197   1.272  15.012  0.4996 -0.2440 -0.5996
13469TIP3    H161898   3.240   1.186  15.016  0.0467 -0.4428  3.0433
13469TIP3    H261899   3.104   1.251  15.002  0.4108 -0.1771  0.0756
13470TIP3   OH261900   5.380   4.208  16.673 -0.1588 -0.2859 -0.0479
13470TIP3    H161901   5.354   4.143  16.738 -1.1653 -0.2359 -0.3774
13470TIP3    H261902   5.475   4.202  16.669 -0.0576 -0.1877  1.5249
13471TIP3   OH261903   2.510   3.533   2.068  0.2041 -0.6448  0.1524
13471TIP3    H161904   2.575   3.522   1.998  0.3224 -0.7806  0.2827
13471TIP3    H261905   2.440   3.584   2.028 -0.1041 -1.4149 -0.3075
13472TIP3   OH261906   2.971   4.586  17.231 -0.2753  0.4921 -0.6809
13472TIP3    H161907   3.004   4.630  17.153  0.5551 -1.1002 -1.2698
13472TIP3    H261908   3.049   4.549  17.273 -0.7962  0.7099  0.5307
13473TIP3   OH261909   4.397   6.339   3.934  0.5399  0.1967  0.8773
13473TIP3    H161910   4.347   6.309   4.010  0.9571 -0.7068  0.8114
13473TIP3    H261911   4.447   6.413   3.967 -0.2832  0.6506  1.1307
13474TIP3   OH261912   2.946   0.981  14.048  0.2013  0.2123 -0.0705
13474TIP3    H161913   2.912   0.920  13.982  0.9695 -0.9753  0.6151
13474TIP3    H261914   2.893   0.964  14.126 -0.2588  1.1540 -0.1575
13475TIP3   OH261915   3.807   2.135  12.063  0.0935  0.5120  0.0408
13475TIP3    H161916   3.898   2.120  12.089 -0.0605 -0.2886  0.1421
13475TIP3    H261917   3.755   2.085  12.125 -0.4122  0.8244 -0.1218
13476TIP3   OH261918   5.124   1.314   2.091 -0.1213  0.4673  0.1602
13476TIP3    H161919   5.043   1.273   2.059 -0.3595  1.1480 -0.1214
13476TIP3    H261920   5.119   1.404   2.060 -0.3356  1.1606  2.0432
13477TIP3   OH261921   4.319   4.680   6.614 -0.2743  0.7813  0.2418
13477TIP3    H161922   4.377   4.604   6.613 -0.0307  0.9659 -0.2141
13477TIP3    H261923   4.245   4.654   6.670 -0.9020 -0.3125 -1.0369
13478TIP3   OH261924   5.667   2.563   0.972 -0.0592  0.1803 -0.5833
13478TIP3    H161925   5.613   2.507   0.916 -0.4976 -1.1231  1.0465
13478TIP3    H261926   5.603   2.610   1.026  0.3302 -1.6346  1.6122
13479TIP3   OH261927   2.722   6.174   1.586 -0.5157  0.3216  0.0409
13479TIP3    H161928   2.803   6.142   1.547 -1.2301 -0.2391 -1.0368
13479TIP3    H261929   2.750   6.234   1.656  0.8012  0.8377 -0.9035
13480TIP3   OH261930   0.031   3.867   5.975  0.1878  0.1635 -0.4706
13480TIP3    H161931  -0.025   3.939   6.005  0.4218  0.5036 -0.8410
13480TIP3    H261932   0.022   3.800   6.043  1.7870  1.4762  1.1563
13481TIP3   OH261933   2.050   1.241  14.982  0.1862  0.2713 -0.1801
13481TIP3    H161934   1.981   1.176  14.990  1.0026 -0.6112 -0.0294
13481TIP3    H261935   2.127   1.199  15.021  0.3489  1.9681  1.5163
13482TIP3   OH261936   0.247   3.086  13.716 -0.4191  0.2210  0.4074
13482TIP3    H161937   0.337   3.061  13.738 -0.5554 -3.3152 -2.3006
13482TIP3    H261938   0.253   3.123  13.628 -1.6304  0.0178  0.2226
13483TIP3   OH261939   5.398   0.874  14.236 -0.1599 -0.0274  0.5960
13483TIP3    H161940   5.311   0.836  14.245 -0.2893 -0.2355 -1.1036
13483TIP3    H261941   5.458   0.800  14.248 -0.1920  0.1628  2.0093
13484TIP3   OH261942   1.531   3.988   6.081  0.4879  0.4661  0.1937
13484TIP3    H161943   1.445   3.948   6.070  0.5040  0.3210  0.5774
13484TIP3    H261944   1.529   4.066   6.026  0.3954  0.0351 -0.4216
13485TIP3   OH261945   2.806   3.699  17.244 -0.3249 -0.2728  0.0414
13485TIP3    H161946   2.768   3.624  17.291  0.9124 -2.1251 -1.7210
13485TIP3    H261947   2.901   3.681  17.243  0.1381  1.8794  0.4505
13486TIP3   OH261948   1.658   6.440   6.084  0.2791  0.3569  0.2988
13486TIP3    H161949   1.609   6.425   6.165  0.5491  0.2807  0.4523
13486TIP3    H261950   1.738   6.389   6.096  0.4217  0.5296  0.0791
13487TIP3   OH261951   2.411   5.589   1.745 -0.1993 -0.0789 -0.1253
13487TIP3    H161952   2.470   5.514   1.749 -0.5910 -0.3706  0.4566
13487TIP3    H261953   2.441   5.640   1.670  2.3161  1.0549  1.4896
13488TIP3   OH261954   5.945   1.753  17.194  0.0201 -0.6884 -1.0574
13488TIP3    H161955   6.027   1.778  17.152  0.4441  0.6611  0.4989
13488TIP3    H261956   5.966   1.748  17.287 -1.7067 -0.0519 -0.6003
13489TIP3   OH261957   2.766   4.297   2.295 -0.7350 -0.3990 -0.5130
13489TIP3    H161958   2.718   4.360   2.240 -0.8417  0.5758  0.6520
13489TIP3    H261959   2.706   4.279   2.368  0.7604  1.1514  1.1962
13490TIP3   OH261960   5.785   1.180   0.416  0.5133 -0.9576  0.1406
13490TIP3    H161961   5.703   1.216   0.450  0.1675 -1.4377 -0.1689
13490TIP3    H261962   5.832   1.150   0.494  2.0247  2.5068  0.7276
13491TIP3   OH261963   0.096   5.563   2.381 -0.1379 -0.3058 -0.2049
13491TIP3    H161964   0.071   5.644   2.336 -0.7041 -0.8280 -0.8523
13491TIP3    H261965   0.030   5.553   2.450 -1.2629 -1.2422 -1.3814
13492TIP3   OH261966   3.672   0.643   3.511 -0.0106  0.2079  0.0274
13492TIP3    H161967   3.679   0.580   3.440 -2.6938 -0.1359 -0.0616
13492TIP3    H261968   3.578   0.662   3.516  0.1108  0.5074  3.2413
13493TIP3   OH261969   4.509   6.556   5.113 -0.5288 -0.1408  0.0618
13493TIP3    H161970   4.496   6.645   5.079 -2.1100  0.1627  1.3019
13493TIP3    H261971   4.570   6.567   5.186  0.2988 -0.2983 -0.5885
13494TIP3   OH261972   2.863   1.424   5.313  0.3688  0.2548  0.4456
13494TIP3    H161973   2.922   1.475   5.368  1.8596  0.0383 -0.8675
13494TIP3    H261974   2.921   1.377   5.253 -1.0080 -1.9228  0.6903
13495TIP3   OH261975   3.751   4.092   4.649  0.5338  0.1817  0.1719
13495TIP3    H161976   3.755   4.004   4.613  1.4612 -0.3040  1.3680
13495TIP3    H261977   3.662   4.122   4.631 -0.0066 -1.2540  0.3307
13496TIP3   OH261978   3.410   5.815   2.042 -0.1453  0.0027 -0.7746
13496TIP3    H161979   3.457   5.849   1.965 -0.6336  0.1097 -1.0277
13496TIP3    H261980   3.327   5.862   2.043 -0.8843 -1.2423 -1.2012
13497TIP3   OH261981   0.770   6.592  14.885  0.4372 -0.3639 -0.3522
13497TIP3    H161982   0.789   6.619  14.795  1.4500  1.1066  0.2554
13497TIP3    H261983   0.798   6.666  14.939 -0.2827 -1.1471  1.1782
13498TIP3   OH261984   6.581   3.733   6.782  0.0989 -0.3750  0.0115
13498TIP3    H161985   6.613   3.805   6.729 -0.5585  0.1553  0.3192
13498TIP3    H261986   6.651   3.668   6.780  0.1604 -0.2895 -1.3487
13499TIP3   OH261987   4.313   1.930  16.611 -0.7320  0.6996 -0.4057
13499TIP3    H161988   4.263   1.987  16.669  0.9458  1.2199  0.6118
13499TIP3    H261989   4.404   1.938  16.642 -0.3007 -1.8554 -0.7908
13500TIP3   OH261990   2.711   5.327  14.945 -0.2185 -0.4100 -0.6145
13500TIP3    H161991   2.783   5.385  14.919  0.2408 -0.8144 -0.2657
13500TIP3    H261992   2.639   5.350  14.886  0.1609  0.0770 -0.8941
13501TIP3   OH261993   5.002   6.591  15.694  0.2926 -0.5407 -0.7356
13501TIP3    H161994   4.986   6.617  15.784  1.0555 -0.1790 -0.6943
13501TIP3    H261995   5.029   6.671  15.650 -0.3550 -0.6560 -1.3607
13502TIP3   OH261996   5.495   4.799   2.939  0.1806 -0.3436 -0.2737
13502TIP3    H161997   5.560   4.734   2.913 -0.7358 -0.6740 -1.9171
13502TIP3    H261998   5.447   4.757   3.011  1.0581 -0.5468  0.1997
13503TIP3   OH261999   6.741   4.269   0.315  0.3017 -0.2379  0.4990
13503TIP3    H162000   6.667   4.208   0.322  0.1884 -0.4036 -1.5088
13503TIP3    H262001   6.736   4.322   0.395 -0.7952 -1.5422  1.3336
13504TIP3   OH262002   0.344   3.718   6.100 -0.2141  0.0715 -0.3054
13504TIP3    H162003   0.345   3.704   6.005 -2.0828  1.4447 -0.5909
13504TIP3    H262004   0.251   3.712   6.123  0.1412  0.4830  1.3312
13505TIP3   OH262005   1.365   5.435  11.650  0.5001  0.2798  0.5220
13505TIP3    H162006   1.411   5.515  11.675  1.0169 -0.1105  0.8729
13505TIP3    H262007   1.317   5.457  11.571 -0.9756  1.4932  1.6921
13506TIP3   OH262008   5.891   3.952  16.472 -0.0992 -0.2461  0.1006
13506TIP3    H162009   5.891   4.018  16.402  0.1157 -1.1303 -0.7653
13506TIP3    H262010   5.934   3.994  16.546 -0.7554  0.8768 -0.1359
13507TIP3   OH262011   0.763   3.440   1.670  0.7836 -0.4332 -0.1165
13507TIP3    H162012   0.781   3.351   1.640 -0.2577 -0.7882  0.2497
13507TIP3    H262013   0.719   3.428   1.754 -1.7842  0.2829 -1.2528
13508TIP3   OH262014   1.293   5.416   0.134  0.0206 -0.3931 -0.4180
13508TIP3    H162015   1.315   5.491   0.189  1.6675 -1.5509  0.5942
13508TIP3    H262016   1.270   5.454   0.049  0.3675  1.2634  0.1937
13509TIP3   OH262017   0.870   5.698  12.739  0.4541  0.3052 -0.2554
13509TIP3    H162018   0.881   5.792  12.753  0.5174  0.1483  0.8451
13509TIP3    H262019   0.874   5.660  12.827  0.0558 -0.6897 -0.6538
13510TIP3   OH262020   3.845   5.816   5.907  0.4614 -0.3021  0.2854
13510TIP3    H162021   3.931   5.795   5.871  0.2733 -0.7027  0.0711
13510TIP3    H262022   3.783   5.793   5.838  0.1804 -0.0006  0.4315
13511TIP3   OH262023   2.114   6.032   4.826  0.4227  0.4871  0.2392
13511TIP3    H162024   2.169   5.962   4.791  1.1610  1.5015 -0.6691
13511TIP3    H262025   2.113   6.016   4.921 -1.6451 -2.3175 -0.1139
13512TIP3   OH262026   6.389   4.766  14.425 -0.1797 -0.0765 -0.7470
13512TIP3    H162027   6.484   4.776  14.417 -0.0642  0.2812  0.7108
13512TIP3    H262028   6.374   4.672  14.415  0.5602 -0.3838  0.7791
13513TIP3   OH262029   3.317   6.056  16.450  0.5192  0.3623  0.3576
13513TIP3    H162030   3.254   6.060  16.522 -0.9827  2.1542 -0.9297
13513TIP3    H262031   3.290   5.979  16.400  1.2200 -0.5653  1.3633
13514TIP3   OH262032   5.141   3.137  16.289  0.0323  0.9286  0.7412
13514TIP3    H162033   5.211   3.073  16.303  0.8176  1.3691 -0.8783
13514TIP3    H262034   5.071   3.110  16.348  0.3517 -1.4093  0.1415
13515TIP3   OH262035   0.277   1.996  17.114 -0.3658 -0.5228  0.2234
13515TIP3    H162036   0.362   2.034  17.093  0.3290 -1.9182  0.4239
13515TIP3    H262037   0.229   2.068  17.157  1.3708 -0.2055  1.7725
13516TIP3   OH262038   1.425   5.011   2.679 -0.1314  0.2050  0.4082
13516TIP3    H162039   1.407   5.101   2.708  0.9069  1.0406 -1.3608
13516TIP3    H262040   1.340   4.979   2.648 -1.2937 -0.7304  4.0509
13517TIP3   OH262041   0.689   0.550   0.720 -0.6192  0.1306 -0.4371
13517TIP3    H162042   0.684   0.580   0.810  0.7884 -0.5891 -0.0954
13517TIP3    H262043   0.772   0.584   0.688 -1.3515  0.8543 -1.6661
13518TIP3   OH262044   1.551   4.773   6.237  0.3227 -0.0200  0.7860
13518TIP3    H162045   1.584   4.794   6.324 -0.0500  1.0349  0.6811
13518TIP3    H262046   1.613   4.813   6.177 -0.1992  0.5090  0.5845
13519TIP3   OH262047   5.585   2.398  13.677  0.4038  0.1790  0.0179
13519TIP3    H162048   5.630   2.482  13.671  0.6309  0.0973  0.5431
13519TIP3    H262049   5.528   2.395  13.599 -1.4725  1.9019  1.2287
13520TIP3   OH262050   4.742   2.201  16.241 -0.0762  0.3863  0.4442
13520TIP3    H162051   4.680   2.274  16.242 -0.9999 -0.3711  1.7917
13520TIP3    H262052   4.828   2.243  16.247 -0.3531  1.4830 -2.0443
13521TIP3   OH262053   4.344   6.481  16.116  0.2520  0.0417  0.0509
13521TIP3    H162054   4.376   6.546  16.179 -1.5449  1.8237 -0.7520
13521TIP3    H262055   4.249   6.494  16.114  0.2014 -0.0788 -2.7963
13522TIP3   OH262056   2.816   5.806   1.546  0.1395 -0.1233 -0.5361
13522TIP3    H162057   2.725   5.835   1.540 -0.5466 -2.1076 -0.6479
13522TIP3    H262058   2.867   5.882   1.522 -1.5627  0.6307 -2.0265
13523TIP3   OH262059   1.918   5.823   2.218  1.1048  0.3435  0.2752
13523TIP3    H162060   1.954   5.874   2.145  0.4189  1.8604  0.9332
13523TIP3    H262061   1.870   5.752   2.176  2.1386  0.2009 -0.6925
13524TIP3   OH262062   6.674   5.295   3.659 -0.5936  0.3308 -0.3167
13524TIP3    H162063   6.672   5.321   3.567  1.7578 -1.4725 -0.9797
13524TIP3    H262064   6.721   5.366   3.702 -0.7353  0.6725 -0.7137
13525TIP3   OH262065   0.057   4.920   2.517 -0.0461  0.4063 -0.5666
13525TIP3    H162066   0.060   5.015   2.529 -1.2486  0.4702 -0.6894
13525TIP3    H262067   0.092   4.905   2.429 -0.2948  0.7727 -0.7288
13526TIP3   OH262068   5.625   2.667  13.633  0.5274  0.1738 -0.3481
13526TIP3    H162069   5.683   2.725  13.584  1.5104 -0.5050 -0.0107
13526TIP3    H262070   5.543   2.669  13.584  1.2068  0.1852 -1.5342
13527TIP3   OH262071   5.396   1.485   2.405  0.3645  0.0821  0.1707
13527TIP3    H162072   5.430   1.480   2.494 -0.9974  1.4488  0.8208
13527TIP3    H262073   5.301   1.488   2.416  0.0490 -2.0635 -1.4873
13528TIP3   OH262074   3.326   0.093   3.115 -0.3692 -0.6692 -0.1367
13528TIP3    H162075   3.348   0.065   3.204  0.6572 -0.8275 -0.4206
13528TIP3    H262076   3.337   0.188   3.117  1.3098 -0.8203 -0.4960
13529TIP3   OH262077   3.830   4.818  11.523  0.5827  0.3173  0.3088
13529TIP3    H162078   3.886   4.741  11.534 -0.0918 -0.5842 -2.0401
13529TIP3    H262079   3.885   4.881  11.475  0.0815 -0.0187 -0.7283
13530TIP3   OH262080   2.046   3.019  16.033  0.1710 -0.5759  0.1231
13530TIP3    H162081   2.123   3.017  15.976  0.8317  2.8912  0.7030
13530TIP3    H262082   1.971   3.020  15.973  0.8361  2.3179 -0.8018
13531TIP3   OH262083   5.390   4.082   3.963  0.3601 -0.6484 -0.4177
13531TIP3    H162084   5.422   4.165   3.928 -1.9054  0.1760 -0.7152
13531TIP3    H262085   5.405   4.088   4.057 -1.6996  1.0951 -0.1288
13532TIP3   OH262086   0.209   4.762   0.028 -0.4864  0.2153  0.2473
13532TIP3    H162087   0.230   4.684   0.080 -1.3859  0.6918  1.3701
13532TIP3    H262088   0.165   4.820   0.090 -0.7720  1.1785 -0.8458
13533TIP3   OH262089   1.402   0.996  16.907  0.2111 -0.3724  0.1507
13533TIP3    H162090   1.423   1.081  16.869 -2.0680  0.0239 -0.3590
13533TIP3    H262091   1.387   0.939  16.831 -0.7302 -0.5612  0.4754
13534TIP3   OH262092   1.939   3.935   4.159  0.3159 -0.1256  1.0320
13534TIP3    H162093   1.990   3.986   4.222  1.8092  1.5629 -1.4031
13534TIP3    H262094   1.995   3.861   4.137  0.8931  0.6261 -0.1111
13535TIP3   OH262095   1.787   1.907  15.280  0.3503 -0.0547 -0.3507
13535TIP3    H162096   1.863   1.924  15.224  0.0661 -0.5432 -0.9024
13535TIP3    H262097   1.823   1.896  15.368  0.7011  1.6768 -0.2551
13536TIP3   OH262098   1.863   2.190   1.339  0.3112 -0.3707 -0.7756
13536TIP3    H162099   1.797   2.201   1.271 -1.4870  0.5223  1.0100
13536TIP3    H262100   1.861   2.096   1.360  0.6233 -0.5861 -1.6519
13537TIP3   OH262101   4.953   0.019   4.054 -0.5866  0.2338 -0.1244
13537TIP3    H162102   4.918   0.100   4.018  0.3527  0.7708  0.1388
13537TIP3    H262103   5.037   0.043   4.091  0.5625 -1.2133 -1.6374
13538TIP3   OH262104   6.791   0.817   1.521  0.1636 -0.3428 -0.6088
13538TIP3    H162105   6.706   0.797   1.482 -0.0044 -0.9748  0.0406
13538TIP3    H262106   6.854   0.782   1.459  0.0648  2.1193 -2.2145
13539TIP3   OH262107   0.091   6.750  16.245 -0.8832 -0.0909 -0.4454
13539TIP3    H162108   0.082   6.782  16.335  0.6971 -1.1908  0.1351
13539TIP3    H262109   0.120   6.660  16.254  1.4613  0.4193 -2.0369
13540TIP3   OH262110   2.991   5.926  12.548  0.4896  0.6269  0.3200
13540TIP3    H162111   2.955   5.875  12.475  0.0376  1.6493 -0.2009
13540TIP3    H262112   2.943   5.896  12.625  1.5663 -1.0851  0.3898
13541TIP3   OH262113   4.195   4.029   3.049 -0.2571  0.4980 -0.0675
13541TIP3    H162114   4.121   3.969   3.041  0.0292  0.1617 -0.1635
13541TIP3    H262115   4.157   4.106   3.093 -0.6514  0.3072 -0.0635
13542TIP3   OH262116   6.766   5.278  14.364 -0.0145 -0.1750 -0.5399
13542TIP3    H162117   6.768   5.371  14.341 -1.0252  0.1795  0.6709
13542TIP3    H262118   6.675   5.260  14.386  0.3226 -1.2265  0.1091
13543TIP3   OH262119   2.049   5.079   0.495 -0.6061 -0.1528  0.2019
13543TIP3    H162120   2.107   5.121   0.559 -0.5408 -1.2080  0.8559
13543TIP3    H262121   2.089   4.994   0.479 -0.6031  0.1133 -1.2984
13544TIP3   OH262122   6.433   2.596  13.470 -0.3458 -0.0634  0.4410
13544TIP3    H162123   6.373   2.573  13.541  0.0894 -2.3009  0.1852
13544TIP3    H262124   6.514   2.622  13.513 -0.7189  0.5450  0.7728
13545TIP3   OH262125   0.939   0.474  12.719  0.3057  0.4132  0.7776
13545TIP3    H162126   0.847   0.500  12.718  0.3640  0.6814 -0.7905
13545TIP3    H262127   0.940   0.391  12.767 -0.6234  0.8195  1.5192
13546TIP3   OH262128   1.446   0.600  13.838  0.0537  0.3728 -0.8137
13546TIP3    H162129   1.415   0.675  13.787  0.0775  0.9173 -0.0384
13546TIP3    H262130   1.424   0.621  13.928 -2.9222 -2.0114 -0.8211
13547TIP3   OH262131   6.191   4.241   4.871  0.1030  0.2236  0.3191
13547TIP3    H162132   6.126   4.287   4.925  0.1872 -0.2381  0.8180
13547TIP3    H262133   6.143   4.219   4.791 -0.2856  0.1205  0.5743
13548TIP3   OH262134   3.206   2.026  12.594  0.1858 -0.5026 -0.4921
13548TIP3    H162135   3.175   2.000  12.680  0.3702 -0.5710 -0.4461
13548TIP3    H262136   3.133   2.075  12.556  0.4129  0.2580  0.0376
13549TIP3   OH262137   2.197   0.903   0.370  0.7528 -0.1473 -0.1218
13549TIP3    H162138   2.210   0.831   0.308  1.3057 -0.1112 -0.0502
13549TIP3    H262139   2.124   0.874   0.425 -0.7506  0.4523 -1.7205
13550TIP3   OH262140   1.234   1.287   5.261  0.0494 -0.6627  0.1995
13550TIP3    H162141   1.152   1.273   5.215 -0.3075 -1.1149  0.9555
13550TIP3    H262142   1.283   1.348   5.205 -2.2150  2.5585  1.3831
13551TIP3   OH262143   5.119   6.004   0.870  0.3284 -0.1073 -0.2987
13551TIP3    H162144   5.143   5.946   0.942  0.3556 -1.0693 -1.0644
13551TIP3    H262145   5.061   5.952   0.815  0.6120  0.4786 -1.1763
13552TIP3   OH262146   3.097   6.703  15.652 -0.0001 -0.3802 -0.3631
13552TIP3    H162147   3.096   6.619  15.607  2.4781 -0.2437 -0.7968
13552TIP3    H262148   3.171   6.697  15.712 -1.1960  0.6794  1.3181
13553TIP3   OH262149   3.947   2.956   2.789  0.0942 -0.0791  0.1695
13553TIP3    H162150   3.971   2.933   2.878  1.9445 -0.1867 -0.3153
13553TIP3    H262151   3.900   3.039   2.797  2.7622  1.4667  1.0576
13554TIP3   OH262152   6.417   6.613   0.861 -0.1299  0.1183 -0.4336
13554TIP3    H162153   6.382   6.691   0.904  0.7753 -0.3740  1.2954
13554TIP3    H262154   6.495   6.590   0.912  0.2990 -1.2342 -1.6233
13555TIP3   OH262155   3.479   4.426  15.477  0.1245  0.0463 -0.4293
13555TIP3    H162156   3.572   4.449  15.481  0.2295 -0.2737 -0.9899
13555TIP3    H262157   3.469   4.356  15.542 -0.1862  1.5694  1.2572
13556TIP3   OH262158   5.521   0.304   4.868 -0.2215  0.6951  0.3899
13556TIP3    H162159   5.513   0.293   4.962  0.3894 -0.6569  0.3043
13556TIP3    H262160   5.439   0.270   4.832 -0.5902  1.5056  0.4317
13557TIP3   OH262161   4.742   5.350   1.128 -0.3667 -0.0687  0.7445
13557TIP3    H162162   4.791   5.353   1.211 -0.3513 -0.4067  0.7505
13557TIP3    H262163   4.752   5.437   1.091 -0.1584  0.0082  0.9766
13558TIP3   OH262164   3.807   0.744  14.198 -0.0428 -0.5858 -0.2980
13558TIP3    H162165   3.901   0.756  14.205 -0.2039  1.2173 -0.5051
13558TIP3    H262166   3.784   0.783  14.114 -1.2110  1.1929  0.7487
13559TIP3   OH262167   0.465   2.912   0.421 -0.1295  0.4747 -0.6777
13559TIP3    H162168   0.505   2.832   0.454  0.6464  0.7900 -0.8247
13559TIP3    H262169   0.398   2.882   0.360 -3.0528 -0.2316  2.5678
13560TIP3   OH262170   5.768   6.467  11.530 -0.4204  0.1836 -0.0734
13560TIP3    H162171   5.762   6.395  11.592  1.7644  1.2301  1.4721
13560TIP3    H262172   5.683   6.510  11.535 -0.4294  0.0295  1.9991
13561TIP3   OH262173   2.357   2.984  11.185  0.5437  0.1332  0.6280
13561TIP3    H162174   2.289   3.050  11.196 -0.0893 -0.8440  3.5782
13561TIP3    H262175   2.310   2.907  11.151  0.8047  0.3898 -0.3465
13562TIP3   OH262176   4.319   3.665   1.532  0.2644 -0.7004  0.2391
13562TIP3    H162177   4.301   3.633   1.620 -1.6499 -0.6979 -0.1270
13562TIP3    H262178   4.414   3.679   1.531  0.1704  0.6203  2.7319
13563TIP3   OH262179   5.053   0.803   1.262 -0.1046  0.3600  0.2618
13563TIP3    H162180   5.053   0.886   1.215 -1.5784 -0.3090 -1.0084
13563TIP3    H262181   5.143   0.771   1.253 -0.1683  0.5778 -1.5417
13564TIP3   OH262182   3.250   5.300  16.413  0.1017 -0.3527 -0.6354
13564TIP3    H162183   3.331   5.309  16.362 -0.7673 -1.1503 -2.2126
13564TIP3    H262184   3.208   5.222  16.377 -0.7177 -0.7445  1.1109
13565TIP3   OH262185   2.417   1.133  11.796  0.3980  0.5998  0.1566
13565TIP3    H162186   2.382   1.114  11.883  0.1786 -1.8385 -0.3824
13565TIP3    H262187   2.404   1.227  11.784 -0.7504  0.7473  2.2349
13566TIP3   OH262188   5.519   3.039  16.841  0.0475 -0.6850 -0.0123
13566TIP3    H162189   5.472   2.955  16.839 -0.2438 -0.5293  0.4545
13566TIP3    H262190   5.476   3.092  16.774 -0.9652 -0.2593  0.9688
13567TIP3   OH262191   6.497   3.858  12.145 -0.4976  0.7455 -0.1456
13567TIP3    H162192   6.575   3.803  12.136 -1.3419 -0.6519  0.6543
13567TIP3    H262193   6.515   3.935  12.092  0.5434 -0.5359 -1.7510
13568TIP3   OH262194   0.993   1.428  12.282 -0.0097 -0.0502  0.0771
13568TIP3    H162195   1.055   1.487  12.240  1.4777 -1.3634  0.3092
13568TIP3    H262196   0.993   1.453  12.374  1.5627 -1.1093  0.4129
13569TIP3   OH262197   5.649   6.246  15.025 -0.1675  0.3759  0.7063
13569TIP3    H162198   5.734   6.202  15.024 -0.1188  0.4694  0.7856
13569TIP3    H262199   5.613   6.230  14.937  1.2914  3.0365 -0.4797
13570TIP3   OH262200   3.079   2.457   1.904  0.2755 -0.3696  0.6226
13570TIP3    H162201   3.007   2.455   1.968 -0.3349 -0.1996 -0.0380
13570TIP3    H262202   3.041   2.418   1.825  0.6409  0.5293 -0.0095
13571TIP3   OH262203   5.904   1.649  11.528 -0.3349 -0.3549  0.4624
13571TIP3    H162204   5.823   1.600  11.542  0.2562 -1.8336 -0.9679
13571TIP3    H262205   5.925   1.634  11.435  0.0047  2.4473  0.0042
13572TIP3   OH262206   1.813   6.691  15.194 -0.3395 -0.3328 -0.3831
13572TIP3    H162207   1.784   6.720  15.107 -1.9340  1.2033  0.6024
13572TIP3    H262208   1.732   6.664  15.238  0.0969  1.1410  1.4243
13573TIP3   OH262209   0.612   2.361  17.006  0.0113  1.0377  0.7889
13573TIP3    H162210   0.537   2.414  16.979  0.1455  0.6027 -0.5341
13573TIP3    H262211   0.669   2.423  17.053 -0.0403  1.9789 -0.3350
13574TIP3   OH262212   2.694   5.375   1.206  0.0229  0.2852 -0.1802
13574TIP3    H162213   2.659   5.294   1.243  2.5223 -0.7779  0.0579
13574TIP3    H262214   2.698   5.436   1.280  1.3988 -0.5681  0.4881
13575TIP3   OH262215   2.588   5.949   5.649  0.2029  0.3084  0.6783
13575TIP3    H162216   2.605   6.007   5.724  1.0040  1.6960 -0.5265
13575TIP3    H262217   2.674   5.919   5.621 -0.1249 -0.5685  0.5866
13576TIP3   OH262218   3.146   6.333  15.197  0.0067 -0.1167 -0.3025
13576TIP3    H162219   3.095   6.297  15.124 -0.4390  0.1636 -0.1347
13576TIP3    H262220   3.101   6.415  15.219  0.8584  0.4202 -0.5127
13577TIP3   OH262221   0.441   2.949  13.085  0.3369 -0.2029  0.0209
13577TIP3    H162222   0.433   2.906  13.170  0.4854  1.3384  0.8347
13577TIP3    H262223   0.477   3.035  13.104 -0.8201  0.6668 -1.4761
13578TIP3   OH262224   3.575   0.073  14.306 -0.2137 -0.1477 -0.1101
13578TIP3    H162225   3.649   0.129  14.284  0.5219  0.4731  3.3012
13578TIP3    H262226   3.498   0.125  14.284  0.3633  0.1557 -1.5233
13579TIP3   OH262227   4.893   0.677  12.258  0.0334  0.0368  0.4597
13579TIP3    H162228   4.852   0.746  12.207  1.7338  0.4587 -0.4241
13579TIP3    H262229   4.828   0.607  12.261 -0.0621 -0.1280 -2.5669
13580TIP3   OH262230   3.741   5.193  16.647  0.3182  0.1049  0.1769
13580TIP3    H162231   3.737   5.264  16.711 -0.4863 -0.2527  0.5293
13580TIP3    H262232   3.652   5.160  16.641  0.5180 -0.3181 -0.6279
13581TIP3   OH262233   1.759   2.027   2.601  0.4998  0.2652  0.0383
13581TIP3    H162234   1.763   2.047   2.695  0.2429 -0.2233  0.1587
13581TIP3    H262235   1.719   2.104   2.562 -2.4255 -0.7538  0.7546
13582TIP3   OH262236   4.947   1.160  17.192 -0.3620  0.1998 -0.0166
13582TIP3    H162237   5.016   1.093  17.192 -1.8676 -1.4167 -0.7781
13582TIP3    H262238   4.916   1.162  17.101 -1.4644  0.7404  0.3634
13583TIP3   OH262239   4.373   1.654   5.665  0.0540  0.2533 -0.1426
13583TIP3    H162240   4.333   1.732   5.628 -0.1845 -0.0542 -0.5403
13583TIP3    H262241   4.300   1.608   5.707  0.2323  0.3515  0.2790
13584TIP3   OH262242   6.348   4.489  14.486  0.7820 -0.0632 -0.1549
13584TIP3    H162243   6.398   4.443  14.554  0.8354 -0.1099 -0.2241
13584TIP3    H262244   6.262   4.448  14.488  0.4800  0.5906  0.5369
13585TIP3   OH262245   0.746   1.624   5.772  0.0228 -0.6088 -0.5015
13585TIP3    H162246   0.803   1.584   5.707 -0.1146  0.2822 -1.1953
13585TIP3    H262247   0.770   1.717   5.772 -0.3239 -0.5027  0.3588
13586TIP3   OH262248   3.720   2.094  13.234  0.5924 -0.1067 -0.2739
13586TIP3    H162249   3.692   2.006  13.258  3.0095 -0.8515  0.1071
13586TIP3    H262250   3.697   2.148  13.310 -0.0573 -0.5792 -0.1249
13587TIP3   OH262251   1.657   6.647   1.126 -0.3852  0.0311  0.4012
13587TIP3    H162252   1.581   6.593   1.148 -0.7025  0.4123  0.2401
13587TIP3    H262253   1.647   6.726   1.179 -0.0169  0.0174  0.4951
13588TIP3   OH262254   3.444   2.334  16.196 -0.3700 -0.1339 -0.4784
13588TIP3    H162255   3.468   2.414  16.150 -2.7223  0.7996 -0.2261
13588TIP3    H262256   3.363   2.356  16.243 -0.2156 -2.1928  0.9249
13589TIP3   OH262257   6.159   2.800  15.919  0.4052  0.4374  0.6793
13589TIP3    H162258   6.141   2.836  16.006 -1.4253  0.9073  0.1617
13589TIP3    H262259   6.154   2.875  15.860 -0.9994 -0.2429 -0.1190
13590TIP3   OH262260   0.637   6.360  11.743 -0.0428  0.0457 -0.8200
13590TIP3    H162261   0.562   6.308  11.713 -0.7292 -0.3692  1.4040
13590TIP3    H262262   0.692   6.298  11.790  0.2645  0.9022 -0.0179
13591TIP3   OH262263   0.164   6.358   0.627  0.0471  0.2774 -0.3934
13591TIP3    H162264   0.118   6.402   0.698 -0.2822 -0.1443 -0.3371
13591TIP3    H262265   0.256   6.358   0.654 -0.2200 -0.9183  0.6057
13592TIP3   OH262266   6.705   5.433  15.009 -0.5569  0.1421  0.0420
13592TIP3    H162267   6.748   5.440  15.094 -0.3037 -0.5911 -0.0205
13592TIP3    H262268   6.631   5.374  15.024 -1.5351  1.3455  0.1353
13593TIP3   OH262269   2.126   5.969   1.756  0.1621 -0.3753  0.9471
13593TIP3    H162270   2.216   5.994   1.776 -0.1463  0.4223  1.3840
13593TIP3    H262271   2.083   6.050   1.731 -0.7368 -0.5169  1.9124
13594TIP3   OH262272   3.932   2.362  12.455  0.1520 -0.2253  0.3662
13594TIP3    H162273   3.946   2.392  12.365  0.1367 -0.9499  0.1166
13594TIP3    H262274   3.842   2.389  12.475  0.9202  2.0204  1.0158
13595TIP3   OH262275   3.988   5.031  13.180  0.5918  0.0686 -0.0187
13595TIP3    H162276   4.076   5.069  13.174  0.1213  1.3165  0.6869
13595TIP3    H262277   3.989   4.982  13.262  0.9918 -0.9686 -0.6135
13596TIP3   OH262278   1.048   6.379  16.415  0.0396  0.0228  0.0998
13596TIP3    H162279   1.006   6.347  16.495  0.6076  0.3411  0.5401
13596TIP3    H262280   0.982   6.369  16.347 -1.1691  1.5308  0.9671
13597TIP3   OH262281   1.379   0.096   5.442 -0.2616  0.3611 -0.1062
13597TIP3    H162282   1.304   0.073   5.496 -0.0215  0.5499  0.3168
13597TIP3    H262283   1.447   0.121   5.505  0.3859 -0.4815 -0.4488
13598TIP3   OH262284   0.113   4.614   4.258 -0.1276  0.5535 -0.8661
13598TIP3    H162285   0.170   4.538   4.274  1.8402  2.1763  0.4093
13598TIP3    H262286   0.064   4.625   4.339 -0.2600  0.7432 -0.9710
13599TIP3   OH262287   4.917   0.346   2.037 -0.4545 -0.1302  0.1837
13599TIP3    H162288   4.940   0.274   1.979 -0.4362  0.0286 -0.0058
13599TIP3    H262289   4.821   0.345   2.039 -0.4753  0.3588 -0.4716
13600TIP3   OH262290   0.092   5.391   2.157  0.5506  0.1108 -0.2077
13600TIP3    H162291   0.097   5.459   2.223  2.9242  1.4287 -1.6041
13600TIP3    H262292   0.055   5.434   2.080  0.6289 -0.5986 -0.6527
13601TIP3   OH262293   1.777   5.888  15.746  0.6642  0.7191 -0.3523
13601TIP3    H162294   1.865   5.878  15.709  1.0678 -2.4331  1.1534
13601TIP3    H262295   1.787   5.860  15.837 -1.8576  0.5622 -0.0738
13602TIP3   OH262296   6.699   0.191   6.207  0.3149  0.3445  0.3537
13602TIP3    H162297   6.725   0.102   6.232  2.4572  0.9012  0.2803
13602TIP3    H262298   6.603   0.186   6.199  0.0725 -1.3149  2.8791
13603TIP3   OH262299   3.505   1.327  15.505 -0.0739  0.4287  0.4050
13603TIP3    H162300   3.499   1.258  15.438 -1.1084 -0.8895  1.7857
13603TIP3    H262301   3.436   1.306  15.567  1.2182  1.2837  2.2208
13604TIP3   OH262302   3.621   3.079  14.855  0.4562  0.1349  0.1993
13604TIP3    H162303   3.601   3.103  14.946 -1.5178  2.7722 -0.8103
13604TIP3    H262304   3.537   3.050  14.819  0.8648  0.6036 -1.1889
13605TIP3   OH262305   5.357   2.010  11.564 -0.5153 -0.1351 -0.6221
13605TIP3    H162306   5.308   2.017  11.646 -0.0254 -1.1833 -0.2299
13605TIP3    H262307   5.291   1.987  11.499 -0.7587 -0.2070 -0.3522
13606TIP3   OH262308   6.058   2.350   0.037  0.3362 -0.2622  0.1191
13606TIP3    H162309   6.074   2.392  -0.048  0.1359  3.0184  1.5269
13606TIP3    H262310   6.145   2.335   0.073  0.4288 -1.9022 -0.7005
13607TIP3   OH262311   2.492   0.462   0.878  0.7893  0.3329  0.2327
13607TIP3    H162312   2.516   0.443   0.968  0.2457 -0.5132  0.2036
13607TIP3    H262313   2.396   0.461   0.877  0.7807  0.8695 -0.2434
13608TIP3   OH262314   1.392   4.864   5.974  0.1047  0.1012 -0.2498
13608TIP3    H162315   1.387   4.959   5.980  0.3463  0.1007 -0.0031
13608TIP3    H262316   1.475   4.846   5.931  0.3508 -0.0108  0.2640
13609TIP3   OH262317   5.038   0.671   4.261 -0.4856  0.9139 -0.1595
13609TIP3    H162318   4.993   0.593   4.230  0.5666  0.2696 -0.1180
13609TIP3    H262319   5.037   0.731   4.185 -0.2935  0.4128 -0.5623
13610TIP3   OH262320   0.763   6.023  15.501  0.2477 -0.3227 -0.2123
13610TIP3    H162321   0.700   5.997  15.567  0.9987 -1.2261  0.1696
13610TIP3    H262322   0.815   6.092  15.542 -0.4845  0.4487 -0.5394
13611TIP3   OH262323   3.764   1.748  16.631  0.2694  0.4115 -0.2064
13611TIP3    H162324   3.796   1.769  16.544  0.4467 -1.0096 -0.4976
13611TIP3    H262325   3.752   1.653  16.631 -0.5919  0.4935  1.0258
13612TIP3   OH262326   1.695   1.182   1.697  0.0870  0.9561  0.2584
13612TIP3    H162327   1.765   1.246   1.710  0.3383  0.8071 -0.3306
13612TIP3    H262328   1.626   1.231   1.652 -0.7643  1.4598  1.9904
13613TIP3   OH262329   0.826   4.914  16.831 -0.2857  0.1941  0.1233
13613TIP3    H162330   0.825   4.828  16.788 -0.0597  0.5333 -0.5777
13613TIP3    H262331   0.901   4.910  16.889  1.3588  0.8091 -1.8382
13614TIP3   OH262332   1.706   6.316   0.652  0.0934  0.8467  0.1765
13614TIP3    H162333   1.781   6.317   0.712  0.1321 -1.9721  0.3150
13614TIP3    H262334   1.648   6.248   0.688 -1.7986  1.8590 -0.8096
13615TIP3   OH262335   5.217   2.741   6.770 -0.1196 -0.1514  0.0779
13615TIP3    H162336   5.299   2.742   6.722 -0.6475  1.2632 -0.8654
13615TIP3    H262337   5.195   2.834   6.782 -0.1305 -0.4165  2.8756
13616TIP3   OH262338   3.617   6.407   0.257 -0.0600  0.4900 -0.4027
13616TIP3    H162339   3.709   6.404   0.281  0.1500  1.7083 -0.9816
13616TIP3    H262340   3.571   6.423   0.340  0.3334  0.8735 -0.2586
13617TIP3   OH262341   2.119   2.065   0.763  0.1745  0.8503 -0.2777
13617TIP3    H162342   2.050   2.131   0.774 -0.2987  0.2594  0.3478
13617TIP3    H262343   2.097   2.022   0.680 -0.9367 -0.1679  0.5202
13618TIP3   OH262344   4.824   3.810   1.406 -0.0839  0.0615  0.0106
13618TIP3    H162345   4.824   3.840   1.315  0.3491 -0.2495 -0.0922
13618TIP3    H262346   4.904   3.759   1.415  0.7362  1.4732  1.0326
13619TIP3   OH262347   3.858   4.271   0.518  0.6925  0.3489  0.4028
13619TIP3    H162348   3.764   4.285   0.526 -0.2066 -3.2999 -1.4335
13619TIP3    H262349   3.877   4.287   0.425  1.1383 -1.8864  0.0402
13620TIP3   OH262350   2.810   5.304   0.490  0.0241 -0.0559 -0.5739
13620TIP3    H162351   2.781   5.324   0.579  0.5908  0.6207 -0.5288
13620TIP3    H262352   2.730   5.300   0.438 -0.2664  0.1635 -0.1465
13621TIP3   OH262353   6.572   0.229   1.159 -0.2664 -0.0284  0.4121
13621TIP3    H162354   6.627   0.242   1.236  1.1783 -0.8158 -0.4295
13621TIP3    H262355   6.594   0.302   1.101 -2.0223  1.0767  1.0754
13622TIP3   OH262356   4.746   0.890  12.413  0.9234  0.3934  0.3800
13622TIP3    H162357   4.837   0.911  12.392 -0.0597  2.1615 -2.9325
13622TIP3    H262358   4.726   0.943  12.490  2.3309  1.0290  0.3429
13623TIP3   OH262359   4.030   2.572   2.289 -0.4829  0.2939  0.0112
13623TIP3    H162360   4.072   2.631   2.351  1.1645 -0.8397  0.0438
13623TIP3    H262361   4.012   2.627   2.212  2.0578  0.6697 -0.4066
13624TIP3   OH262362   4.507   5.835  14.752 -0.6980  0.0722 -0.2964
13624TIP3    H162363   4.575   5.885  14.707 -0.1861 -0.2955  0.0490
13624TIP3    H262364   4.457   5.901  14.801  1.3078  0.1065  1.9295
13625TIP3   OH262365   1.892   4.502  12.561 -0.1579 -0.1885  0.6506
13625TIP3    H162366   1.867   4.539  12.476  1.0300 -0.2734  0.2486
13625TIP3    H262367   1.809   4.490  12.607 -0.9033 -0.8888 -0.7970
13626TIP3   OH262368   0.638   0.598   5.267 -0.2883 -0.4873  0.6076
13626TIP3    H162369   0.628   0.602   5.172 -0.1684 -0.1281  0.6093
13626TIP3    H262370   0.553   0.568   5.298 -0.0908 -1.3456  0.3331
13627TIP3   OH262371   5.783   3.826   4.403 -0.3356 -0.1453  0.6171
13627TIP3    H162372   5.779   3.754   4.341 -0.0724  0.7317 -0.4381
13627TIP3    H262373   5.695   3.864   4.403  0.2098  1.2500 -0.9580
13628TIP3   OH262374   6.284   2.353  14.928  1.1021  0.0490 -0.3008
13628TIP3    H162375   6.205   2.407  14.929  1.8992  1.4033 -2.5038
13628TIP3    H262376   6.348   2.404  14.978  0.8465 -0.6211  0.7216
13629TIP3   OH262377   2.015   1.734   3.335  0.1560 -0.2819 -0.1303
13629TIP3    H162378   2.081   1.721   3.403 -0.1615  0.3089  0.2919
13629TIP3    H262379   1.952   1.664   3.348  0.7131 -0.8800 -0.5642
13630TIP3   OH262380   1.349   3.531   1.698 -0.0860 -0.3983  0.5145
13630TIP3    H162381   1.400   3.463   1.655 -0.7904  0.2578 -1.4687
13630TIP3    H262382   1.351   3.508   1.791 -0.6376 -3.3583 -0.1075
13631TIP3   OH262383   0.759   4.670  17.104  0.2891 -0.1474  0.0913
13631TIP3    H162384   0.811   4.606  17.055  0.2249 -1.5402  1.7255
13631TIP3    H262385   0.737   4.737  17.040  1.6910 -0.9662 -1.3307
13632TIP3   OH262386   3.665   3.570  10.814  0.3332  0.7161 -0.9087
13632TIP3    H162387   3.725   3.585  10.887  1.5422  0.9006 -1.9130
13632TIP3    H262388   3.644   3.477  10.819  2.2537  0.1920 -1.6544
13633TIP3   OH262389   0.867   5.140   6.006 -0.8887  0.7584 -0.0690
13633TIP3    H162390   0.790   5.119   5.953 -1.2536 -1.7478  1.3370
13633TIP3    H262391   0.911   5.057   6.019  0.2942  1.6188  1.8832
13634TIP3   OH262392   1.328   2.463  14.891  0.3827  0.3468  0.3095
13634TIP3    H162393   1.413   2.496  14.863  0.8474 -0.2544  0.9888
13634TIP3    H262394   1.275   2.541  14.906  0.8797  0.7267  0.0909
13635TIP3   OH262395   4.265   5.203  15.529 -0.0217 -0.4049  0.0753
13635TIP3    H162396   4.231   5.235  15.446  0.7680 -0.5184 -0.2983
13635TIP3    H262397   4.187   5.178  15.579 -0.4822 -0.8382 -0.8341
13636TIP3   OH262398   3.712   6.009   1.431 -0.6167 -0.2903  0.0460
13636TIP3    H162399   3.757   5.987   1.513  1.1471  1.9277 -0.2394
13636TIP3    H262400   3.780   6.005   1.364 -0.5504  3.5887 -0.3408
13637TIP3   OH262401   5.339   4.749   1.847  0.2660 -0.1377  0.4055
13637TIP3    H162402   5.384   4.677   1.894  1.3433  0.0702 -0.2654
13637TIP3    H262403   5.409   4.792   1.798 -0.4509  1.1048  0.4496
13638TIP3   OH262404   3.123   6.545  14.668 -0.7370  0.3234  0.3932
13638TIP3    H162405   3.063   6.476  14.637 -0.1592 -0.2763  0.5852
13638TIP3    H262406   3.083   6.626  14.638 -0.9991 -0.1466 -0.5952
13639TIP3   OH262407   3.409   6.364  11.348 -0.8884  0.5731 -0.9126
13639TIP3    H162408   3.316   6.365  11.369 -1.0683 -0.9055 -1.4763
13639TIP3    H262409   3.426   6.273  11.321  0.2686  1.2760 -2.7396
13640TIP3   OH262410   0.268   1.613  12.579  0.4136 -0.0863 -0.3321
13640TIP3    H162411   0.321   1.546  12.622 -1.1445 -1.6317 -0.6622
13640TIP3    H262412   0.264   1.685  12.642 -1.2676 -2.0142  1.9819
13641TIP3   OH262413   5.650   3.749  14.286  0.0954  0.3238 -0.6286
13641TIP3    H162414   5.677   3.742  14.378  1.1215  3.9689 -0.5004
13641TIP3    H262415   5.555   3.763  14.291 -0.4583 -2.7979 -0.4579
13642TIP3   OH262416   2.900   6.767  12.083 -0.1431 -0.2742 -0.0833
13642TIP3    H162417   2.860   6.700  12.139 -0.1654  0.1797  0.4597
13642TIP3    H262418   2.972   6.801  12.136 -1.0120  1.1247  0.2473
13643TIP3   OH262419   0.846   1.897  12.048 -0.1701  0.1821 -0.4909
13643TIP3    H162420   0.857   1.854  11.963 -1.5185 -2.0114  0.3556
13643TIP3    H262421   0.761   1.866  12.079  0.6934  0.1865  2.0622
13644TIP3   OH262422   4.875   2.830  16.700 -0.5683 -0.1457 -0.0144
13644TIP3    H162423   4.868   2.736  16.684 -0.3715 -0.0684 -0.5768
13644TIP3    H262424   4.819   2.846  16.776  1.5326 -1.1503  1.8297
13645TIP3   OH262425   4.499   4.732   2.821  0.0793 -0.2520  0.0750
13645TIP3    H162426   4.576   4.787   2.814 -0.6468  0.7215 -0.4668
13645TIP3    H262427   4.452   4.745   2.739 -0.0900 -1.7375 -0.1047
13646TIP3   OH262428   1.300   4.369  10.893  0.1063  0.1405  0.0747
13646TIP3    H162429   1.270   4.348  10.981 -1.8861  0.9770 -0.3356
13646TIP3    H262430   1.391   4.397  10.904  0.0557 -0.2495  1.7666
13647TIP3   OH262431   3.535   1.047  15.832 -0.3781 -0.0897 -0.1398
13647TIP3    H162432   3.486   1.071  15.910 -1.7549 -0.6696 -0.7980
13647TIP3    H262433   3.566   0.958  15.850 -1.2759 -0.4872 -0.5087
13648TIP3   OH262434   6.095   6.211   3.624 -0.3027 -0.7161  0.1296
13648TIP3    H162435   6.051   6.290   3.655 -1.4909 -1.4307  0.2983
13648TIP3    H262436   6.137   6.238   3.542 -0.6873  0.0864  0.1885
13649TIP3   OH262437   2.799   6.030  14.996  0.1061 -0.0127  0.1929
13649TIP3    H162438   2.818   6.105  15.052 -0.7776  0.7081 -0.4313
13649TIP3    H262439   2.821   6.060  14.907 -1.4626  0.0025 -0.2328
13650TIP3   OH262440   1.113   3.108   0.105 -0.2935  0.2255 -0.1807
13650TIP3    H162441   1.202   3.079   0.086 -0.5826 -0.0497 -1.2191
13650TIP3    H262442   1.097   3.082   0.195  0.6462  0.2031 -0.0150
13651TIP3   OH262443   3.902   3.539  12.643 -0.4588  0.2416  0.0723
13651TIP3    H162444   3.885   3.567  12.733 -1.8686  1.5767 -0.5638
13651TIP3    H262445   3.995   3.558  12.629  0.4160 -2.1485  1.9372
13652TIP3   OH262446   6.627   4.675   3.391 -0.3071  0.6821  0.0170
13652TIP3    H162447   6.698   4.677   3.455 -0.3740 -0.4196  0.1467
13652TIP3    H262448   6.650   4.602   3.333 -0.0094  1.9425 -1.5014
13653TIP3   OH262449   4.052   3.542  13.348 -0.5029  0.2504  1.0421
13653TIP3    H162450   4.091   3.569  13.431  0.0807 -1.6737  1.4558
13653TIP3    H262451   4.124   3.501  13.300 -0.6379  2.0117 -0.8062
13654TIP3   OH262452   0.492   2.771   6.703 -0.0771 -0.0794  0.0870
13654TIP3    H162453   0.520   2.712   6.774  2.1216 -1.7368 -2.0012
13654TIP3    H262454   0.430   2.720   6.652 -2.8437  1.6319  1.4871
13655TIP3   OH262455   5.615   0.021   2.288  0.0091 -0.1090  0.5285
13655TIP3    H162456   5.524   0.042   2.263 -0.4859 -2.1423  0.4576
13655TIP3    H262457   5.617   0.037   2.383 -1.0727 -1.9977  0.9251
13656TIP3   OH262458   6.004   0.575  13.084 -0.2263 -0.0312 -0.0579
13656TIP3    H162459   6.051   0.658  13.076 -0.9854  0.7220  2.3175
13656TIP3    H262460   5.987   0.548  12.994  2.6669  0.8206 -0.9715
13657TIP3   OH262461   5.238   1.944  11.297  0.0686  0.1573 -0.0461
13657TIP3    H162462   5.258   1.970  11.207  0.0015 -3.5141 -1.2627
13657TIP3    H262463   5.168   1.879  11.288 -1.3232  1.0771  2.8751
13658TIP3   OH262464   6.454   1.864   3.773  0.1713 -0.1789 -0.7650
13658TIP3    H162465   6.479   1.911   3.693 -1.1872  2.6648  0.3463
13658TIP3    H262466   6.365   1.833   3.754 -0.6136  1.5232  0.0022
13659TIP3   OH262467   5.537   4.313   2.395 -0.0449 -0.0746 -0.3000
13659TIP3    H162468   5.616   4.346   2.352  0.3132 -1.7257 -1.0036
13659TIP3    H262469   5.468   4.375   2.370  0.4683 -0.1587 -2.0505
13660TIP3   OH262470   1.045   5.808  15.827 -0.7568  0.2126  0.3033
13660TIP3    H162471   1.070   5.717  15.844  2.5076  0.6933 -1.0768
13660TIP3    H262472   1.041   5.814  15.731  0.1755  1.7272  0.3233
13661TIP3   OH262473   2.462   0.839   3.928 -0.4022  0.0792 -0.4423
13661TIP3    H162474   2.373   0.829   3.962 -0.6748  0.1751 -1.1050
13661TIP3    H262475   2.515   0.781   3.982 -0.8754 -0.0284 -0.0839
13662TIP3   OH262476   0.183   4.005   4.189 -0.4173  0.2747  0.1261
13662TIP3    H162477   0.099   3.993   4.232 -0.0338 -1.1032  0.5206
13662TIP3    H262478   0.244   4.023   4.260 -0.4881  2.1780 -0.2223
13663TIP3   OH262479   3.575   2.592   1.187  0.5410 -0.1094 -0.1584
13663TIP3    H162480   3.492   2.547   1.177  1.2960 -1.7987  0.8459
13663TIP3    H262481   3.568   2.640   1.269  0.1916  0.6364 -0.6108
13664TIP3   OH262482   0.360   0.875  10.805  0.3171 -0.0548 -0.0521
13664TIP3    H162483   0.337   0.827  10.726  1.0099  0.1631 -0.3896
13664TIP3    H262484   0.418   0.816  10.853  0.3695  0.0495  0.0129
13665TIP3   OH262485   5.365   2.604  13.155 -0.1937  0.1700 -0.6833
13665TIP3    H162486   5.418   2.602  13.075 -1.4866  0.9515 -1.5987
13665TIP3    H262487   5.344   2.697  13.167 -1.1713 -0.0996 -0.2244
13666TIP3   OH262488   2.235   4.770  15.929 -0.3895 -0.5323  0.4179
13666TIP3    H162489   2.302   4.827  15.891 -0.0786 -0.2561  1.3524
13666TIP3    H262490   2.193   4.728  15.853 -0.1150  0.3638 -0.2405
13667TIP3   OH262491   6.565   6.314  13.824 -0.3198 -0.2639  0.2921
13667TIP3    H162492   6.626   6.294  13.895  1.1943  1.0348 -0.5707
13667TIP3    H262493   6.549   6.408  13.831 -0.4782 -0.1836 -0.8235
13668TIP3   OH262494   0.987   2.808  12.685 -0.5549 -0.1314 -0.1862
13668TIP3    H162495   1.058   2.787  12.746 -0.7761  0.0516  0.1366
13668TIP3    H262496   0.947   2.724  12.665 -0.4306 -0.2025 -0.1386
13669TIP3   OH262497   0.971   0.054  13.545 -0.3062  0.0828 -0.4187
13669TIP3    H162498   1.055   0.029  13.505  0.3276 -0.3399  1.1027
13669TIP3    H262499   0.969   0.007  13.628 -0.0804  3.2785  1.5811
13670TIP3   OH262500   4.422   6.285   5.314 -0.1578  0.5538 -0.3917
13670TIP3    H162501   4.351   6.338   5.278  1.2525  1.5810 -1.7782
13670TIP3    H262502   4.430   6.210   5.254  0.2017  0.6604 -0.4792
13671TIP3   OH262503   6.617   2.469   3.041  0.8608 -0.2990  0.1649
13671TIP3    H162504   6.554   2.535   3.069  0.2243 -1.4357  1.5819
13671TIP3    H262505   6.584   2.438   2.957 -0.2196 -0.5244  0.6526
13672TIP3   OH262506   2.248   4.453  12.926  0.3931 -0.2656 -0.0639
13672TIP3    H162507   2.249   4.360  12.945  1.8684  0.0022  1.4508
13672TIP3    H262508   2.307   4.491  12.991 -0.7706  1.8304 -0.1388
13673TIP3   OH262509   6.434   0.975   1.554  0.7021 -0.3683 -0.5018
13673TIP3    H162510   6.470   0.970   1.642  0.8572  1.2710 -0.4506
13673TIP3    H262511   6.367   1.043   1.559 -0.8217 -1.7425 -1.1598
13674TIP3   OH262512   0.589   0.337   2.273  0.1947 -0.2801 -0.2648
13674TIP3    H162513   0.682   0.354   2.283  0.5023 -2.5547  1.5409
13674TIP3    H262514   0.584   0.253   2.226 -0.8636 -0.6936  0.5185
13675TIP3   OH262515   0.534   3.491   0.856  0.0536 -0.3843 -0.5598
13675TIP3    H162516   0.624   3.461   0.843  0.9940  1.5266  0.9785
13675TIP3    H262517   0.520   3.556   0.787 -0.4741 -1.2945 -1.3227
13676TIP3   OH262518   6.082   4.219   5.138  0.0406 -0.1878 -0.3207
13676TIP3    H162519   6.078   4.291   5.201  1.4486 -0.8009  0.5267
13676TIP3    H262520   5.992   4.211   5.104 -1.3593 -1.2153  3.1989
13677TIP3   OH262521   4.557   0.910  17.255 -0.8331 -0.4277  0.3251
13677TIP3    H162522   4.577   0.993  17.211 -1.3970 -0.4805 -0.0416
13677TIP3    H262523   4.473   0.884  17.219 -1.3936 -0.3984  1.5612
13678TIP3   OH262524   1.139   4.190   1.229  0.6482  0.3362  0.0306
13678TIP3    H162525   1.095   4.242   1.296 -0.4350 -0.0555 -0.3666
13678TIP3    H262526   1.107   4.225   1.146  0.2280 -0.6704 -0.2450
13679TIP3   OH262527   2.000   0.784   4.708  0.2666  0.3545 -0.0099
13679TIP3    H162528   1.912   0.745   4.699  0.0834  0.6710  0.4292
13679TIP3    H262529   2.003   0.816   4.797  1.3327 -0.8702  0.4225
13680TIP3   OH262530   6.328   5.095  17.359 -0.1423  0.0064  0.4630
13680TIP3    H162531   6.360   5.185  17.363  2.9483 -0.9951  0.5373
13680TIP3    H262532   6.344   5.060  17.446  0.5998 -1.1623 -0.1186
13681TIP3   OH262533   4.112   5.454   5.714 -0.0079 -0.4722 -0.5528
13681TIP3    H162534   4.187   5.403   5.745 -1.0367 -0.1462  2.8009
13681TIP3    H262535   4.039   5.393   5.717 -0.3332 -0.1466 -1.5154
13682TIP3   OH262536   2.426   6.687  11.241  0.4621  0.8661 -1.0511
13682TIP3    H162537   2.343   6.725  11.211 -1.2080 -1.2682  0.5754
13682TIP3    H262538   2.439   6.611  11.183 -0.3361 -0.5164  0.4933
13683TIP3   OH262539   5.933   3.078  16.719 -0.1503  0.4611  0.4537
13683TIP3    H162540   5.986   3.068  16.640  0.2783  0.4372  0.7380
13683TIP3    H262541   5.968   3.012  16.779 -1.4866 -0.5925  0.1302
13684TIP3   OH262542   5.318   4.224   0.927  0.6760 -0.7565  0.6751
13684TIP3    H162543   5.271   4.305   0.945 -1.7915 -1.7302 -0.8480
13684TIP3    H262544   5.405   4.252   0.898 -0.3054  1.3947 -0.4343
13685TIP3   OH262545   2.722   5.327   2.426 -0.4748  0.1559 -0.1653
13685TIP3    H162546   2.651   5.311   2.365 -0.6791  1.4224 -0.2735
13685TIP3    H262547   2.768   5.243   2.432 -0.5451 -0.0335 -1.9150
13686TIP3   OH262548   1.499   3.254   6.486  0.0086 -0.1220  0.1816
13686TIP3    H162549   1.446   3.255   6.565  0.2061 -0.3162  0.3185
13686TIP3    H262550   1.525   3.346   6.473  1.4687 -0.3163  1.3694
13687TIP3   OH262551   4.063   2.661   0.397  0.7838 -0.0088  0.1240
13687TIP3    H162552   4.105   2.599   0.338 -1.1234 -1.8557  0.6181
13687TIP3    H262553   4.074   2.622   0.484  0.6317  0.9887  0.6017
13688TIP3   OH262554   1.545   4.652   5.724  0.1499  0.2895  0.0194
13688TIP3    H162555   1.474   4.715   5.735  0.2593  0.6246 -1.1256
13688TIP3    H262556   1.614   4.684   5.784  0.0976  1.1029 -0.3355
13689TIP3   OH262557   4.930   4.470   2.253 -0.2653  0.6885 -0.7171
13689TIP3    H162558   4.906   4.456   2.161 -1.9245 -0.4318 -0.1460
13689TIP3    H262559   4.854   4.442   2.303  0.8091  0.7617  1.0519
13690TIP3   OH262560   1.148   0.842   1.197 -0.2113 -0.4386  0.6011
13690TIP3    H162561   1.102   0.878   1.122 -0.9021 -0.4541  1.0128
13690TIP3    H262562   1.241   0.850   1.174 -0.2712  2.3307  0.9979
13691TIP3   OH262563   2.863   2.272  13.277  0.0193  0.9603  0.1110
13691TIP3    H162564   2.773   2.263  13.310  0.9727  0.1594  2.7285
13691TIP3    H262565   2.897   2.183  13.273  0.5593  1.2024 -1.4342
13692TIP3   OH262566   3.222   0.773  15.830 -0.5986  0.0827 -0.3917
13692TIP3    H162567   3.140   0.741  15.792 -0.1725 -2.1605  0.4031
13692TIP3    H262568   3.274   0.801  15.755 -1.9799  1.3924 -0.9225
13693TIP3   OH262569   4.393   0.858   3.689  0.2536 -0.1294 -0.4480
13693TIP3    H162570   4.353   0.845   3.603 -0.2721 -1.2087 -0.0560
13693TIP3    H262571   4.465   0.918   3.673 -0.5315  0.5736 -1.4479
13694TIP3   OH262572   4.735   0.306  14.286  0.3300 -0.6026 -0.1211
13694TIP3    H162573   4.665   0.329  14.346  0.6065 -0.8966  0.3154
13694TIP3    H262574   4.705   0.226  14.243  0.6366 -1.0495  0.4773
13695TIP3   OH262575   1.652   2.026   1.258  0.1721 -0.1642 -0.4460
13695TIP3    H162576   1.732   1.973   1.269 -0.8306 -1.4773  0.9423
13695TIP3    H262577   1.601   1.978   1.193 -0.0816 -0.0835 -0.3069
13696TIP3   OH262578   0.309   5.255   0.407 -0.3519  0.4074  0.1635
13696TIP3    H162579   0.236   5.317   0.407 -0.3981  0.4147  1.9760
13696TIP3    H262580   0.314   5.223   0.497  0.5856 -1.1621 -0.3890
13697TIP3   OH262581   6.428   5.965  16.237  0.9382  0.4548 -0.3559
13697TIP3    H162582   6.519   5.953  16.209  1.0544  1.3679 -0.4039
13697TIP3    H262583   6.423   6.058  16.259  0.3824  0.1301  0.9542
13698TIP3   OH262584   1.825   4.381  11.713 -0.2264  0.2461 -0.0117
13698TIP3    H162585   1.735   4.356  11.696 -0.1462  0.3415 -0.5872
13698TIP3    H262586   1.851   4.432  11.637  0.5765 -0.4889 -0.2503
13699TIP3   OH262587   0.851   3.283  11.949 -0.1587  0.0877  0.0144
13699TIP3    H162588   0.761   3.310  11.929  0.7374  2.1275 -1.6063
13699TIP3    H262589   0.871   3.218  11.881 -0.5009 -0.6330  0.5908
13700TIP3   OH262590   5.765   4.004  12.281 -0.6598 -0.7066 -0.1333
13700TIP3    H162591   5.740   3.992  12.372  0.5409  1.3818  0.5481
13700TIP3    H262592   5.682   3.998  12.233 -1.1683 -3.0255  0.8783
13701TIP3   OH262593   2.131   0.367   5.704 -0.3868  0.5187 -0.0825
13701TIP3    H162594   2.154   0.427   5.775  1.2125  2.0092 -1.7846
13701TIP3    H262595   2.116   0.423   5.628  0.7301 -1.1848 -1.6512
13702TIP3   OH262596   6.295   0.328  10.650 -0.3786  0.3695  0.1605
13702TIP3    H162597   6.222   0.372  10.694  0.0874 -0.6050  2.0197
13702TIP3    H262598   6.273   0.235  10.652  0.1390  0.2144 -0.7937
13703TIP3   OH262599   0.125   4.367   1.598  0.3427 -0.4604  0.3395
13703TIP3    H162600   0.218   4.366   1.619  0.6151  0.2815 -0.7889
13703TIP3    H262601   0.110   4.286   1.549 -0.1631 -1.8625  2.6013
13704TIP3   OH262602   1.958   6.665   4.416  0.0211  0.1877 -0.1959
13704TIP3    H162603   1.962   6.723   4.340  1.0691  1.4311  0.7706
13704TIP3    H262604   2.042   6.620   4.416  0.4652  0.9852  0.8064
13705TIP3   OH262605   6.462   3.828   5.423  0.2770 -0.2943  0.2563
13705TIP3    H162606   6.516   3.830   5.345 -0.4483 -0.5756 -0.2712
13705TIP3    H262607   6.393   3.893   5.407  0.7254  0.4221  1.1267
13706TIP3   OH262608   4.428   3.577  11.455 -0.5929 -0.1115  0.1312
13706TIP3    H162609   4.462   3.527  11.529  0.5392 -1.4146 -1.2061
13706TIP3    H262610   4.398   3.659  11.493 -0.6273 -0.9971  2.1128
13707TIP3   OH262611   2.386   1.656  11.976  0.9764 -0.1018  0.4621
13707TIP3    H162612   2.355   1.728  11.921  1.7995 -0.4665 -0.5110
13707TIP3    H262613   2.322   1.651  12.047 -0.9777 -0.5665 -1.2401
13708TIP3   OH262614   2.635   4.935  15.774  0.2507  0.4043  0.2933
13708TIP3    H162615   2.684   4.969  15.849  0.7703  0.4750 -0.0773
13708TIP3    H262616   2.608   4.847  15.801  1.3861  0.0005  0.1480
13709TIP3   OH262617   5.924   4.597   4.735  0.5038 -0.3334 -0.2653
13709TIP3    H162618   5.935   4.555   4.650 -0.7683  0.1008 -0.6787
13709TIP3    H262619   5.854   4.547   4.778  0.4320  0.0713  0.0991
13710TIP3   OH262620   3.071   3.328  13.010 -0.1444 -0.4322  0.3696
13710TIP3    H162621   3.148   3.327  12.954 -0.7489  0.3140 -0.5094
13710TIP3    H262622   2.997   3.321  12.950 -0.8656  1.7529  0.8858
13711TIP3   OH262623   0.057   4.799  11.350  0.4423  0.2328  0.0970
13711TIP3    H162624   0.141   4.836  11.324  0.3462  0.6952  0.4171
13711TIP3    H262625  -0.002   4.875  11.355 -0.3121 -0.2250 -1.3106
13712TIP3   OH262626   2.957   2.193  11.701  0.3449  0.2695  0.0500
13712TIP3    H162627   2.963   2.150  11.616  0.0769  1.4356 -0.5737
13712TIP3    H262628   2.894   2.263  11.689 -0.0157  0.1980  1.3326
13713TIP3   OH262629   1.556   1.149   6.304 -0.0692 -0.1879  0.1843
13713TIP3    H162630   1.636   1.097   6.311 -0.2934 -0.8856 -1.8245
13713TIP3    H262631   1.582   1.237   6.332  1.5463 -0.2907 -0.8275
13714TIP3   OH262632   0.607   1.275   6.058  0.1586  0.1095 -0.3276
13714TIP3    H162633   0.544   1.263   5.987  0.1182  0.8989 -0.4345
13714TIP3    H262634   0.671   1.337   6.024  0.6684 -0.2281 -0.0050
13715TIP3   OH262635   1.168   1.505   3.264 -0.1667 -0.6179 -0.0480
13715TIP3    H162636   1.118   1.566   3.210 -1.3683 -2.1644 -0.7515
13715TIP3    H262637   1.104   1.469   3.326  0.8092 -0.1922  1.2529
13716TIP3   OH262638   6.214   4.613   1.485  0.3886  0.7031  0.0082
13716TIP3    H162639   6.263   4.533   1.468  0.7626  0.3600  2.3575
13716TIP3    H262640   6.193   4.648   1.398  0.8480 -1.5368 -1.0660
13717TIP3   OH262641   6.062   5.759   1.483  0.0389 -0.0113 -0.2649
13717TIP3    H162642   6.135   5.784   1.540 -1.1555  2.1467  0.4399
13717TIP3    H262643   5.989   5.742   1.543 -0.1294 -2.0334 -0.9631
13718TIP3   OH262644   0.496   1.290  13.675 -0.2361  0.2482 -0.1164
13718TIP3    H162645   0.478   1.323  13.763 -0.4139 -1.8444  0.7028
13718TIP3    H262646   0.570   1.231  13.687 -1.2350 -1.2686 -1.0478
13719TIP3   OH262647   2.947   0.655  16.895 -0.4139 -0.0121  0.0762
13719TIP3    H162648   2.921   0.655  16.987 -2.0802  0.0891 -0.3720
13719TIP3    H262649   3.005   0.579  16.888  1.6989  1.3203  1.6729
13720TIP3   OH262650   6.113   1.872  13.003  0.0008  0.1165  0.2414
13720TIP3    H162651   6.073   1.933  13.065 -0.3116  0.9990 -0.7970
13720TIP3    H262652   6.076   1.787  13.026 -1.3538  0.6853  0.2518
13721TIP3   OH262653   1.685   4.525   1.206  0.4818  0.2456 -0.0395
13721TIP3    H162654   1.733   4.442   1.200  2.4648  1.4157 -1.1414
13721TIP3    H262655   1.608   4.503   1.258  1.4443 -2.0603  0.5571
13722TIP3   OH262656   0.134   4.477   0.661 -0.8843 -0.1563  0.5910
13722TIP3    H162657   0.097   4.449   0.745  1.2390  1.1850  2.0643
13722TIP3    H262658   0.213   4.424   0.651 -0.2401  0.8321  0.2765
13723TIP3   OH262659   4.066   5.704  11.624  0.2669  0.5928 -0.2290
13723TIP3    H162660   4.019   5.629  11.660 -0.5078  1.4550  0.6129
13723TIP3    H262661   4.058   5.694  11.529 -0.9445  0.2926 -0.1166
13724TIP3   OH262662   5.868   3.569  12.719  0.5340 -0.3379  0.1737
13724TIP3    H162663   5.803   3.627  12.760 -1.2480 -2.5566  0.6457
13724TIP3    H262664   5.894   3.509  12.789 -1.2077 -3.0546 -1.3209
13725TIP3   OH262665   0.175   1.665  16.770 -0.9075  0.5005  0.0706
13725TIP3    H162666   0.257   1.713  16.781  0.0068 -0.7819 -0.8321
13725TIP3    H262667   0.112   1.713  16.823  0.3542  1.6939  0.5541
13726TIP3   OH262668   4.400   4.756   4.566 -0.6341 -0.1492  0.6054
13726TIP3    H162669   4.477   4.737   4.619 -0.9545  0.1401  1.1835
13726TIP3    H262670   4.389   4.851   4.571  0.7447  0.2595 -1.9685
13727TIP3   OH262671   1.068   5.855  11.232 -0.0341 -0.6332  0.2781
13727TIP3    H162672   1.105   5.845  11.319  0.5015 -2.1140 -0.1020
13727TIP3    H262673   1.101   5.781  11.182  0.2005  0.5211 -1.3904
13728TIP3   OH262674   6.156   6.544  16.330  0.0063  0.5462 -0.1771
13728TIP3    H162675   6.229   6.541  16.392  0.4542 -0.5065 -0.7357
13728TIP3    H262676   6.173   6.622  16.277 -1.0929  2.2397  1.8260
13729TIP3   OH262677   6.231   3.573  14.570 -0.3045  0.2921 -0.3729
13729TIP3    H162678   6.181   3.502  14.530 -1.3832  1.1673 -0.6390
13729TIP3    H262679   6.320   3.561  14.538 -0.1207 -1.7962  0.7636
13730TIP3   OH262680   6.042   0.444   1.507 -0.3096 -0.4154 -0.4426
13730TIP3    H162681   5.972   0.383   1.531  0.1471 -0.9344 -0.4285
13730TIP3    H262682   6.015   0.527   1.547 -0.2869 -0.9096  0.6456
13731TIP3   OH262683   5.577   6.773  15.710  0.1153  0.6018 -0.4126
13731TIP3    H162684   5.655   6.755  15.657  0.0747 -0.1886 -0.2084
13731TIP3    H262685   5.600   6.744  15.798 -1.4383 -2.6126 -0.9197
13732TIP3   OH262686   6.278   1.924   2.769 -0.3177 -0.3922 -0.0411
13732TIP3    H162687   6.370   1.901   2.755 -0.9978 -2.7279 -1.2654
13732TIP3    H262688   6.280   2.000   2.827  2.4545  1.6122 -2.4672
13733TIP3   OH262689   6.170   4.608   2.480  0.2046  0.6846  0.5092
13733TIP3    H162690   6.137   4.523   2.508 -0.3910  0.8233  0.2321
13733TIP3    H262691   6.111   4.635   2.410  0.0329  1.5940  0.9925
13734TIP3   OH262692   3.103   6.026   0.513  0.3535  0.1861 -0.2266
13734TIP3    H162693   3.075   5.953   0.569  1.7867  0.2911  0.6815
13734TIP3    H262694   3.065   6.006   0.427 -0.7315 -0.7058  0.4345
13735TIP3   OH262695   2.912   1.602  14.198 -0.3681 -0.0859  0.2464
13735TIP3    H162696   2.967   1.545  14.145  1.8770  0.5786  1.7556
13735TIP3    H262697   2.888   1.549  14.274 -0.5917  0.1018  0.3101
13736TIP3   OH262698   5.187   0.866   1.635 -0.0453 -0.8628 -0.1918
13736TIP3    H162699   5.156   0.793   1.689 -2.3059  1.1007  1.3353
13736TIP3    H262700   5.128   0.865   1.559 -0.7379 -0.0700  0.3204
13737TIP3   OH262701   6.270   5.486   4.276 -0.7704  0.5146 -0.1934
13737TIP3    H162702   6.230   5.407   4.239  1.9954 -0.0735 -2.2835
13737TIP3    H262703   6.213   5.557   4.247 -1.8481 -0.4655 -0.5917
13738TIP3   OH262704   1.067   0.260   3.295 -0.6394  0.2553  0.1301
13738TIP3    H162705   1.044   0.266   3.202 -0.5861  1.6442  0.1857
13738TIP3    H262706   1.121   0.181   3.301 -0.3998  0.3052 -1.0729
13739TIP3   OH262707   1.883   1.261  11.764 -0.4740  0.2031 -0.1003
13739TIP3    H162708   1.924   1.179  11.791 -2.9119 -1.1169 -0.2218
13739TIP3    H262709   1.919   1.278  11.677  1.6116  0.4382  0.7389
13740TIP3   OH262710   1.213   5.363   5.880  0.6219  0.1715  0.2419
13740TIP3    H162711   1.209   5.379   5.974 -0.9123  1.3628  0.0125
13740TIP3    H262712   1.200   5.449   5.840  0.5376 -0.4231 -1.0531
13741TIP3   OH262713   6.352   3.381   6.161  0.2538  0.2463  0.4456
13741TIP3    H162714   6.260   3.385   6.133 -0.0546  2.0226  1.5647
13741TIP3    H262715   6.364   3.290   6.189 -1.0340 -0.1219 -0.1123
13742TIP3   OH262716   1.117   5.589  13.295 -0.1159 -0.2467 -0.5953
13742TIP3    H162717   1.068   5.666  13.267  1.3540  0.8162 -0.3552
13742TIP3    H262718   1.209   5.613  13.282  0.4538 -1.2984  1.0888
13743TIP3   OH262719   1.375   5.157   6.076 -0.5420  0.1471  0.1832
13743TIP3    H162720   1.310   5.219   6.111 -0.7446  0.3925 -0.6204
13743TIP3    H262721   1.458   5.205   6.079 -0.6346  0.3256 -0.0851
13744TIP3   OH262722   0.699   2.175  12.770 -0.1833 -0.1906  0.0289
13744TIP3    H162723   0.773   2.192  12.829  0.1662 -2.5348  0.3594
13744TIP3    H262724   0.739   2.163  12.684 -0.3877  0.3381 -0.1429
13745TIP3   OH262725   4.019   4.216   2.911  0.5321 -0.4315 -0.1861
13745TIP3    H162726   4.112   4.197   2.905  0.5773  0.1301 -1.4694
13745TIP3    H262727   3.994   4.246   2.824 -0.6404  0.3789  0.3971
13746TIP3   OH262728   2.844   1.760   2.306 -0.3085 -0.5159  0.5512
13746TIP3    H162729   2.787   1.816   2.359 -2.5678 -1.5351 -0.6393
13746TIP3    H262730   2.924   1.811   2.295 -1.6148  1.7690  0.9032
13747TIP3   OH262731   0.551   6.172  17.203  0.4841 -0.1246  0.3905
13747TIP3    H162732   0.514   6.253  17.169  0.4932  0.3321  1.4166
13747TIP3    H262733   0.639   6.168  17.165  0.0683 -0.2570 -0.5795
13748TIP3   OH262734   3.805   2.136   1.813  0.3449 -0.1670  0.5339
13748TIP3    H162735   3.835   2.196   1.881  1.8888  0.7065 -0.8576
13748TIP3    H262736   3.881   2.081   1.793  0.0487 -0.1497 -0.7307
13749TIP3   OH262737   3.577   3.630   3.503  0.2166  0.0308  0.2134
13749TIP3    H162738   3.492   3.646   3.544  0.0796 -0.1814  0.0101
13749TIP3    H262739   3.640   3.660   3.568 -0.0121  0.1035  0.4033
13750TIP3   OH262740   2.816   1.075   2.195  0.1556  0.7481 -0.4710
13750TIP3    H162741   2.839   1.099   2.105  2.2477 -1.3920 -0.6113
13750TIP3    H262742   2.899   1.047   2.234 -1.1684 -1.0803  1.2158
13751TIP3   OH262743   0.953   0.736   5.903 -0.2406 -0.1506  0.0173
13751TIP3    H162744   0.872   0.706   5.863  0.1001  1.5518 -2.1374
13751TIP3    H262745   0.952   0.831   5.892  1.1741  0.1137  1.6994
13752TIP3   OH262746   0.684   6.315  11.362 -0.4309  0.3203  0.4333
13752TIP3    H162747   0.618   6.374  11.399 -3.0698 -2.4818  0.5495
13752TIP3    H262748   0.683   6.335  11.269  1.7534  3.1369  0.8599
13753TIP3   OH262749   1.418   4.806   1.136 -0.0226  0.4971 -0.5058
13753TIP3    H162750   1.477   4.769   1.201 -0.8834 -0.3373 -0.1781
13753TIP3    H262751   1.431   4.752   1.058 -0.9265 -0.2246 -0.1778
13754TIP3   OH262752   5.692   3.849  11.855 -0.3484 -0.4880  0.0207
13754TIP3    H162753   5.739   3.930  11.878 -0.5286 -0.2680 -0.3766
13754TIP3    H262754   5.620   3.878  11.800  0.5475 -1.0800 -1.5062
13755TIP3   OH262755   0.567   4.222  15.655 -0.5093  0.0776 -0.1476
13755TIP3    H162756   0.646   4.198  15.704 -2.0920 -2.4348  1.4073
13755TIP3    H262757   0.561   4.318  15.665  0.8122  0.0058  2.2059
13756TIP3   OH262758   5.468   2.637  12.203 -0.2603  0.5083  0.1357
13756TIP3    H162759   5.466   2.550  12.243  1.6291 -0.2611 -1.2850
13756TIP3    H262760   5.488   2.696  12.275  0.6505 -0.5326  0.7701
13757TIP3   OH262761   4.500   5.431  15.197  0.1820  0.3909 -0.1383
13757TIP3    H162762   4.548   5.451  15.116  0.4083  0.6255  0.0503
13757TIP3    H262763   4.413   5.406  15.168  1.1391 -2.7499 -0.7019
13758TIP3   OH262764   1.242   4.697   5.139 -0.3169  0.4526  0.2081
13758TIP3    H162765   1.227   4.760   5.068 -0.4402  0.7098  0.4639
13758TIP3    H262766   1.165   4.640   5.137  0.3757 -0.5055 -0.8658
13759TIP3   OH262767   0.264   0.395   2.161 -0.0452  0.7012  0.4763
13759TIP3    H162768   0.241   0.374   2.252 -0.3887  1.5331  0.5923
13759TIP3    H262769   0.359   0.384   2.158 -0.3749 -3.5222 -0.2080
13760TIP3   OH262770   2.310   5.877  15.550 -0.0069 -0.2550 -0.1137
13760TIP3    H162771   2.385   5.928  15.519 -0.0303  0.4397  0.9294
13760TIP3    H262772   2.346   5.818  15.616 -0.0185 -1.4897 -1.1529
13761TIP3   OH262773   2.618   4.316  16.659  0.0529 -0.0006  0.0374
13761TIP3    H162774   2.705   4.338  16.626 -0.2179 -1.7871 -2.1182
13761TIP3    H262775   2.617   4.350  16.748  1.8111  2.8288 -0.9049
13762TIP3   OH262776   1.986   1.136   1.091  0.0926  0.5087 -0.2888
13762TIP3    H162777   1.984   1.157   0.998 -0.2827 -1.7841 -0.8478
13762TIP3    H262778   2.008   1.219   1.134 -1.1184  1.9309 -2.2886
13763TIP3   OH262779   1.224   5.294   4.366  0.2804 -0.2689 -0.3036
13763TIP3    H162780   1.305   5.343   4.375  0.8858 -1.0071 -1.5085
13763TIP3    H262781   1.237   5.240   4.288 -1.1922 -0.7391 -0.2536
13764TIP3   OH262782   3.626   2.176  11.393 -0.3300  0.4175 -0.3132
13764TIP3    H162783   3.561   2.149  11.328 -0.9957 -0.7198  0.7686
13764TIP3    H262784   3.632   2.271  11.384 -0.0934  0.2488 -2.2885
13765TIP3   OH262785   3.733   3.845   0.158 -0.3995  0.3727 -0.1375
13765TIP3    H162786   3.767   3.907   0.094  2.5537 -0.3166  0.6157
13765TIP3    H262787   3.782   3.864   0.238 -0.7773 -1.6839  0.6407
13766TIP3   OH262788   5.793   5.329   4.102 -0.2916  0.3322  0.0156
13766TIP3    H162789   5.874   5.347   4.056 -0.3976 -1.1934 -0.8297
13766TIP3    H262790   5.724   5.364   4.045 -0.2692  1.4174  0.6232
13767TIP3   OH262791   5.844   3.437  15.362 -0.0918  0.2490  0.6907
13767TIP3    H162792   5.791   3.503  15.317  0.8982  0.0997 -0.7523
13767TIP3    H262793   5.841   3.360  15.304  1.6125  0.2160  0.5884
13768TIP3   OH262794   5.109   3.448   2.577  0.3461 -0.2864 -0.2456
13768TIP3    H162795   5.016   3.451   2.558  0.4159 -0.1777 -0.5743
13768TIP3    H262796   5.141   3.369   2.534  0.5108 -0.0198 -0.6191
13769TIP3   OH262797   6.504   3.449  13.109  0.2668  0.1316 -0.2096
13769TIP3    H162798   6.505   3.419  13.019  1.3263 -0.4772 -0.0120
13769TIP3    H262799   6.565   3.523  13.110 -0.3457  0.6401 -0.1529
13770TIP3   OH262800   0.592   1.300   5.767 -0.1132  0.4326 -0.1929
13770TIP3    H162801   0.658   1.355   5.811  0.4652  0.8826 -1.5623
13770TIP3    H262802   0.518   1.359   5.752 -0.8938 -0.0829  1.3807
13771TIP3   OH262803   1.849   2.525   0.735  0.1519 -0.0410 -0.0550
13771TIP3    H162804   1.778   2.509   0.672  1.1899 -0.2104 -1.2109
13771TIP3    H262805   1.920   2.469   0.705  1.3896  1.4299  0.0581
13772TIP3   OH262806   5.974   5.975   3.735 -0.6813 -0.4289 -0.3998
13772TIP3    H162807   6.000   6.049   3.680  0.8710  0.3616  1.2973
13772TIP3    H262808   5.895   6.005   3.780 -0.2974  0.0365 -0.0341
13773TIP3   OH262809   6.004   1.176  15.695 -0.0218  0.4155  0.0858
13773TIP3    H162810   6.033   1.108  15.756 -0.5469  0.3127  0.2215
13773TIP3    H262811   5.926   1.213  15.736  0.5602  1.4726  0.2775
13774TIP3   OH262812   6.551   5.829  13.286  0.0762  0.2033  0.4542
13774TIP3    H162813   6.528   5.812  13.195 -1.0277  0.2238  0.7126
13774TIP3    H262814   6.602   5.753  13.313  0.1113  0.0383 -0.0779
13775TIP3   OH262815   6.566   6.331   0.631 -0.3758 -0.1409 -0.3544
13775TIP3    H162816   6.599   6.323   0.541 -1.1863  1.5689 -0.8295
13775TIP3    H262817   6.474   6.306   0.625 -0.1969 -0.9902  0.2159
13776TIP3   OH262818   6.296   2.291   2.773 -0.4061 -0.6269 -0.1531
13776TIP3    H162819   6.391   2.293   2.775 -0.3267  0.8157 -2.0359
13776TIP3    H262820   6.270   2.383   2.779 -1.7535 -1.0393  1.1744
13777TIP3   OH262821   2.022   6.482  16.060 -1.1145  0.2522  0.4109
13777TIP3    H162822   2.014   6.395  16.020 -0.6401  0.7679 -0.8458
13777TIP3    H262823   1.944   6.489  16.115 -1.0532 -1.0517  0.7126
13778TIP3   OH262824   0.171   1.207  15.475  0.2494 -0.0720 -0.1892
13778TIP3    H162825   0.080   1.200  15.445  0.2134  0.2143 -0.1430
13778TIP3    H262826   0.215   1.133  15.433  0.0706 -0.0153 -0.4802
13779TIP3   OH262827   6.032   1.683  15.673  0.1743  0.3289 -0.1199
13779TIP3    H162828   6.124   1.659  15.683 -0.0087 -0.1053  0.5936
13779TIP3    H262829   6.019   1.691  15.579  1.1863  1.3756 -0.1994
13780TIP3   OH262830   5.269   2.870  16.597  0.0168  0.5444 -0.1555
13780TIP3    H162831   5.283   2.875  16.692  2.4082  2.6338 -0.4866
13780TIP3    H262832   5.354   2.844  16.562 -1.0733 -1.1115 -1.7356
13781TIP3   OH262833   4.233   4.624   5.285 -0.2060 -0.0013 -1.0949
13781TIP3    H162834   4.264   4.578   5.363 -1.1650  1.2216  0.0891
13781TIP3    H262835   4.162   4.570   5.252  0.7676 -0.9658 -1.6541
13782TIP3   OH262836   2.439   4.964  13.994  0.0276 -0.1927 -0.0669
13782TIP3    H162837   2.445   4.888  14.051 -0.5199  0.0526  0.3276
13782TIP3    H262838   2.405   5.034  14.051  0.1752  0.2491 -0.5117
13783TIP3   OH262839   0.965   6.685  11.700  0.1408 -0.3390  0.4431
13783TIP3    H162840   1.023   6.608  11.702  1.0798  0.3012 -0.9521
13783TIP3    H262841   0.880   6.650  11.674  0.5296 -0.9367 -0.0684
13784TIP3   OH262842   1.710   0.964  11.911  0.0021  0.0493 -0.1957
13784TIP3    H162843   1.648   0.899  11.879  0.2725 -0.2838 -0.0524
13784TIP3    H262844   1.778   0.967  11.843  0.3958 -0.4009  0.1723
13785TIP3   OH262845   4.731   4.419   1.702 -1.0272 -0.4697 -0.7375
13785TIP3    H162846   4.672   4.417   1.778 -1.4236 -1.9568 -1.0531
13785TIP3    H262847   4.783   4.339   1.710 -0.0291  0.1148 -1.2339
13786TIP3   OH262848   2.837   4.396   3.591 -1.1953  0.1661  0.2776
13786TIP3    H162849   2.892   4.475   3.593 -0.0895 -0.5563 -0.5075
13786TIP3    H262850   2.784   4.406   3.512  0.3983 -0.7769 -0.9787
13787TIP3   OH262851   0.293   1.181   1.138 -0.0080  0.4532  0.0951
13787TIP3    H162852   0.211   1.179   1.187 -0.4868 -0.8412 -0.6786
13787TIP3    H262853   0.359   1.150   1.199 -0.6166 -1.2661 -0.0473
13788TIP3   OH262854   0.667   6.579   5.505  0.0834  0.1095  0.1353
13788TIP3    H162855   0.705   6.512   5.562  2.0551 -0.9080 -2.2192
13788TIP3    H262856   0.649   6.534   5.423 -1.1846  1.8663 -0.6032
13789TIP3   OH262857   1.537   4.310  13.661  0.0956 -0.6237 -0.3098
13789TIP3    H162858   1.482   4.324  13.738  0.7333  1.2714 -0.1454
13789TIP3    H262859   1.608   4.374  13.671  0.7009 -1.0017 -1.9897
13790TIP3   OH262860   4.036   0.690   1.722 -0.0727  0.1642 -0.1239
13790TIP3    H162861   3.960   0.684   1.665  0.2643  0.3025 -0.5932
13790TIP3    H262862   4.106   0.647   1.673  0.2529  0.3987  0.1328
13791TIP3   OH262863   5.626   3.943  12.785 -0.5241 -0.1334  1.1252
13791TIP3    H162864   5.549   3.962  12.837  0.1541  0.1108  2.0762
13791TIP3    H262865   5.686   3.899  12.846  0.6045  0.8755  0.7866
13792TIP3   OH262866   1.810   5.095   5.536 -0.5392 -0.6065 -0.5798
13792TIP3    H162867   1.716   5.113   5.546 -0.5203 -1.4015  1.5500
13792TIP3    H262868   1.840   5.159   5.472 -2.6561 -0.7781 -1.8458
13793TIP3   OH262869   5.202   2.348   5.903 -0.1204  0.0353  0.3034
13793TIP3    H162870   5.264   2.416   5.878  0.3493  0.0303  1.4200
13793TIP3    H262871   5.117   2.383   5.877  0.1505  0.9050  0.5647
13794TIP3   OH262872   5.763   2.480   5.736  0.4474  0.1444 -0.1279
13794TIP3    H162873   5.796   2.483   5.646 -0.6130 -0.5061 -0.5603
13794TIP3    H262874   5.742   2.571   5.757  1.3070  0.3855 -0.2982
13795TIP3   OH262875   2.146   1.852  14.526  0.4253  0.3345 -0.4311
13795TIP3    H162876   2.051   1.839  14.523  0.3300  0.6639  0.7067
13795TIP3    H262877   2.183   1.772  14.487 -0.2372 -1.6169  2.6166
13796TIP3   OH262878   1.149   4.966   2.603  0.4681 -0.2063 -0.3347
13796TIP3    H162879   1.067   4.954   2.651  0.8289 -1.0484  0.0835
13796TIP3    H262880   1.160   4.884   2.554  1.1232 -0.1468 -0.2912
13797TIP3   OH262881   2.360   6.147   1.817  0.0879  0.0572 -0.4727
13797TIP3    H162882   2.429   6.083   1.801 -0.4680 -0.3516 -1.3173
13797TIP3    H262883   2.373   6.175   1.908  1.8172  0.5411 -0.8361
13798TIP3   OH262884   1.624   2.691  15.838 -0.4619  0.3947 -0.1163
13798TIP3    H162885   1.643   2.759  15.774  1.3649 -0.1876 -0.2214
13798TIP3    H262886   1.591   2.617  15.787  0.0029  0.2936 -0.2670
13799TIP3   OH262887   5.425   3.562  11.814  0.1105 -0.3729 -0.1582
13799TIP3    H162888   5.512   3.571  11.852 -0.7209 -0.9215  2.0062
13799TIP3    H262889   5.381   3.497  11.869 -1.4955 -0.5198 -1.5357
13800TIP3   OH262890   6.099   6.370  14.089  0.0108  0.4131  0.1630
13800TIP3    H162891   6.074   6.445  14.143 -0.2181 -0.0278  0.6744
13800TIP3    H262892   6.175   6.332  14.134 -1.1957 -0.9530  1.1100
13801TIP3   OH262893   4.251   5.947  13.857  0.4351 -0.5335 -0.0707
13801TIP3    H162894   4.259   5.872  13.798 -1.1406  0.0849 -1.1386
13801TIP3    H262895   4.341   5.966  13.883  1.2252 -0.7308 -2.4175
13802TIP3   OH262896   1.516   6.540   0.653 -0.5695 -0.5022 -0.4506
13802TIP3    H162897   1.432   6.513   0.690 -1.2635  2.1169  0.0785
13802TIP3    H262898   1.580   6.481   0.693 -1.7566 -0.2997  1.8990
13803TIP3   OH262899   4.201   0.439  15.500 -0.4003 -0.8748 -0.0393
13803TIP3    H162900   4.281   0.475  15.539 -0.6761 -0.6036  0.2723
13803TIP3    H262901   4.160   0.389  15.571  0.1161 -2.0497 -0.5328
13804TIP3   OH262902   3.190   6.629  14.299 -0.2557 -0.2243  0.2255
13804TIP3    H162903   3.138   6.681  14.360  1.8069  1.5009  0.6235
13804TIP3    H262904   3.224   6.692  14.235 -0.0795 -1.5590 -1.0704
13805TIP3   OH262905   4.978   5.031   5.846 -0.3464 -0.4032  0.1646
13805TIP3    H162906   4.962   4.937   5.838  0.0550 -0.4659  0.0638
13805TIP3    H262907   4.940   5.069   5.767  0.5808 -0.6287 -0.4046
13806TIP3   OH262908   0.403   6.427  13.939  0.3763 -0.5353 -0.6315
13806TIP3    H162909   0.464   6.372  13.890 -0.7247 -2.2161 -0.1813
13806TIP3    H262910   0.354   6.366  13.994 -1.6246  0.7639 -0.8795
13807TIP3   OH262911   0.343   6.498   6.029  0.0747 -0.2212 -0.3756
13807TIP3    H162912   0.367   6.544   6.109  0.4653 -1.8865  0.4954
13807TIP3    H262913   0.250   6.477   6.041  0.4111 -1.4689  0.1755
13808TIP3   OH262914   2.260   2.216   3.686  0.4535 -0.6687 -0.2056
13808TIP3    H162915   2.193   2.223   3.618  1.5934 -1.8308 -1.5116
13808TIP3    H262916   2.331   2.273   3.655  0.3417  0.0743  0.8523
13809TIP3   OH262917   3.840   6.763   3.080 -0.4849 -0.6336  0.0477
13809TIP3    H162918   3.863   6.847   3.039  0.2679 -1.4467 -1.2897
13809TIP3    H262919   3.754   6.741   3.044 -0.2529 -0.8838 -0.3651
13810TIP3   OH262920   0.464   0.999  11.774 -0.2026  0.1957  0.4053
13810TIP3    H162921   0.423   1.035  11.853 -0.1194 -0.0960  0.5846
13810TIP3    H262922   0.412   0.921  11.753  1.8767 -1.8597  2.2840
13811TIP3   OH262923   3.360   2.964  15.908 -0.2702  0.3720 -0.0865
13811TIP3    H162924   3.451   2.994  15.915 -0.7054  1.5134  1.2502
13811TIP3    H262925   3.347   2.909  15.986 -0.8210  0.4965 -0.0864
13812TIP3   OH262926   5.600   3.411   0.488 -0.1090 -0.0767 -0.3868
13812TIP3    H162927   5.509   3.426   0.460 -0.8862 -1.2516  1.2975
13812TIP3    H262928   5.650   3.482   0.448 -1.8390  0.8256 -1.0460
13813TIP3   OH262929   5.395   2.662   2.653 -0.4906  0.0482  0.0983
13813TIP3    H162930   5.398   2.589   2.592 -0.7756  0.0385  0.0931
13813TIP3    H262931   5.302   2.675   2.670 -0.5988  1.7665 -1.5157
13814TIP3   OH262932   3.035   3.976  11.121  0.2592  0.3535  0.4966
13814TIP3    H162933   3.007   4.018  11.202 -4.0741 -1.2988  0.0986
13814TIP3    H262934   2.997   4.030  11.052  0.4359 -0.4929 -0.2807
13815TIP3   OH262935   1.447   3.720   6.308  0.2979 -0.4533  0.0684
13815TIP3    H162936   1.447   3.658   6.235  3.5651 -3.2709  2.1685
13815TIP3    H262937   1.539   3.727   6.334 -0.5863  1.2110  3.2589
13816TIP3   OH262938   0.703   2.462   3.087 -0.3249  0.1186 -0.4423
13816TIP3    H162939   0.759   2.536   3.064  0.2885 -0.5044 -0.9870
13816TIP3    H262940   0.727   2.393   3.025 -0.6929 -0.6341  0.2305
13817TIP3   OH262941   4.969   5.279  14.471 -0.5724  0.1323  0.0839
13817TIP3    H162942   4.934   5.362  14.441 -0.4284 -0.2376 -1.1385
13817TIP3    H262943   4.949   5.217  14.401  1.6403 -0.3128 -0.2362
13818TIP3   OH262944   2.163   0.451   6.758 -0.2492 -0.1028 -0.1230
13818TIP3    H162945   2.227   0.486   6.821 -0.5079  1.2334 -0.5723
13818TIP3    H262946   2.213   0.440   6.677 -0.6375  1.2852 -0.5763
13819TIP3   OH262947   0.497   5.105   4.025  0.8777  0.7226  0.0534
13819TIP3    H162948   0.450   5.106   4.109 -0.6129 -0.0724 -0.7371
13819TIP3    H262949   0.494   5.014   3.997 -3.3089  1.5935 -3.2959
13820TIP3   OH262950   3.188   6.547  11.696 -0.2932 -0.2516 -0.6385
13820TIP3    H162951   3.263   6.602  11.716  1.0429 -1.6841 -1.5226
13820TIP3    H262952   3.121   6.609  11.666  0.0784  1.1704  1.2803
13821TIP3   OH262953   4.176   6.037  13.042 -0.3860 -0.1486 -0.2365
13821TIP3    H162954   4.097   6.077  13.004 -0.2502 -0.1012 -0.4731
13821TIP3    H262955   4.248   6.073  12.990 -0.0592  1.0189  0.9762
13822TIP3   OH262956   2.951   0.307  12.262  0.7104 -0.1007 -0.1689
13822TIP3    H162957   2.947   0.403  12.268 -1.0398 -0.1389 -0.3163
13822TIP3    H262958   2.921   0.287  12.174  0.4100 -0.8203  0.0901
13823TIP3   OH262959   5.962   5.252   0.381  0.3844  0.1784 -0.4233
13823TIP3    H162960   6.031   5.219   0.439 -0.4108  0.5232  0.7305
13823TIP3    H262961   5.925   5.327   0.427  0.9787  1.6422 -2.2199
13824TIP3   OH262962   4.841   4.760   3.066  0.5999 -0.0191 -0.0980
13824TIP3    H162963   4.898   4.810   3.124 -0.1435  0.4961  0.1990
13824TIP3    H262964   4.788   4.826   3.022 -1.1726 -0.5686  1.1023
13825TIP3   OH262965   3.890   5.143  11.246  0.9155 -0.3188  0.1984
13825TIP3    H162966   3.798   5.143  11.222  0.5225 -1.5147  1.5783
13825TIP3    H262967   3.935   5.180  11.169 -0.8226  1.9829  0.1861
13826TIP3   OH262968   3.683   1.921   5.236  0.0857 -0.5225 -0.3397
13826TIP3    H162969   3.690   1.872   5.317  0.8771 -0.5941 -0.4440
13826TIP3    H262970   3.705   2.011   5.260 -1.7336 -0.1118 -0.0714
13827TIP3   OH262971   0.218   5.954  12.680  0.0348 -0.2306  0.4180
13827TIP3    H162972   0.198   5.964  12.773  0.2383  1.7003  0.2964
13827TIP3    H262973   0.141   5.911  12.643 -0.0352 -1.0418  1.4701
13828TIP3   OH262974   3.903   6.191   2.629  0.7575  0.7387 -0.3684
13828TIP3    H162975   3.925   6.241   2.707 -0.2863  1.8999 -0.7823
13828TIP3    H262976   3.970   6.215   2.565  1.1122  0.4487 -0.1109
13829TIP3   OH262977   0.920   1.082  10.777  0.1264  0.1488  0.5071
13829TIP3    H162978   0.967   1.125  10.706  0.6550  0.7110  1.1878
13829TIP3    H262979   0.830   1.114  10.769 -0.0610 -0.5569 -0.5005
13830TIP3   OH262980   2.020   6.366   5.687 -0.5051 -0.1700 -0.2225
13830TIP3    H162981   2.005   6.458   5.665  1.1014 -0.4383 -2.9925
13830TIP3    H262982   2.019   6.363   5.782  0.0302  2.8288 -0.0249
13831TIP3   OH262983   2.691   5.230   0.208  0.5739 -0.1035  1.0042
13831TIP3    H162984   2.596   5.222   0.202  0.4140  1.3286  1.3770
13831TIP3    H262985   2.723   5.197   0.124 -0.3250  0.4761  0.4256
13832TIP3   OH262986   2.504   0.396   5.619 -0.4350  0.1865  0.5129
13832TIP3    H162987   2.482   0.306   5.644 -0.2077  0.1474  0.5745
13832TIP3    H262988   2.473   0.404   5.528  2.6053 -1.0678 -0.7548
13833TIP3   OH262989   5.563   5.738   4.230 -0.3981  0.7055  0.6436
13833TIP3    H162990   5.567   5.820   4.182 -4.1295  1.6117  1.5460
13833TIP3    H262991   5.580   5.670   4.164 -1.4114  2.0467 -1.0778
13834TIP3   OH262992   5.911   4.593  16.998 -0.1745  0.1451 -0.0877
13834TIP3    H162993   5.873   4.681  17.003 -1.5042 -0.4119  0.0151
13834TIP3    H262994   5.862   4.549  16.930  0.4267 -0.5542 -0.0801
13835TIP3   OH262995   0.234   2.981   4.385  0.0300  0.1386  0.4999
13835TIP3    H162996   0.220   3.074   4.370 -1.4398 -0.1332 -0.0296
13835TIP3    H262997   0.291   2.953   4.314 -0.5755  0.3942 -0.0999
13836TIP3   OH262998   4.562   0.979   1.421 -0.2671 -0.4612  0.3267
13836TIP3    H162999   4.508   0.938   1.354  1.8755  0.0079 -1.8172
13836TIP3    H263000   4.585   0.907   1.480  0.1615 -1.5427 -1.0977
13837TIP3   OH263001   4.927   6.061  16.114  0.0155 -0.1430 -0.7255
13837TIP3    H163002   4.995   6.101  16.168 -0.0589 -0.3906 -0.4485
13837TIP3    H263003   4.848   6.067  16.166  0.1030 -1.1262 -0.4474
13838TIP3   OH263004   5.693   5.276   4.859  0.1147 -0.0521  0.3846
13838TIP3    H163005   5.707   5.236   4.945  0.9392  0.5090  0.5138
13838TIP3    H263006   5.748   5.225   4.800  0.1583  0.0662  0.3234
13839TIP3   OH263007   3.588   3.748   1.370  0.2540  0.5560  0.2538
13839TIP3    H163008   3.554   3.706   1.449 -0.3589  0.5531 -0.0025
13839TIP3    H263009   3.678   3.716   1.362  0.5205  1.0293  1.2795
13840TIP3   OH263010   1.009   5.201  12.975  0.3353  0.0987  0.4071
13840TIP3    H163011   1.042   5.181  13.063 -1.5379  0.4559  1.2404
13840TIP3    H263012   0.914   5.211  12.987 -0.0676 -0.5938 -1.7899
13841TIP3   OH263013   6.417   2.349  16.511 -0.2322 -0.8829 -0.0274
13841TIP3    H163014   6.453   2.343  16.599  1.0884  1.3900 -0.3211
13841TIP3    H263015   6.327   2.380  16.524 -0.3752 -1.4971  0.5269
13842TIP3   OH263016   5.695   3.412  11.762  0.0482  0.5526  0.3698
13842TIP3    H163017   5.693   3.450  11.850 -0.5696  0.1558  0.5362
13842TIP3    H263018   5.723   3.483  11.705  1.1289  0.6316  0.9762
13843TIP3   OH263019   1.106   2.967   5.177  0.1966 -0.4754 -0.3253
13843TIP3    H163020   1.051   3.013   5.240  0.0955 -0.6852 -0.2566
13843TIP3    H263021   1.140   2.892   5.225  1.8446  0.5140  0.0949
13844TIP3   OH263022   6.233   0.754  11.929  0.0958  0.4820 -0.3870
13844TIP3    H163023   6.153   0.798  11.901  0.8537  0.8807 -2.0362
13844TIP3    H263024   6.204   0.689  11.993 -1.2921  2.0061  0.6129
13845TIP3   OH263025   4.103   3.512  16.427 -0.6065 -0.3021  0.1037
13845TIP3    H163026   4.026   3.547  16.471 -0.3156  0.4858  0.0178
13845TIP3    H263027   4.097   3.417  16.437  0.0731 -0.1274  2.9039
13846TIP3   OH263028   1.447   1.448  11.144  0.2277  0.2006  0.4943
13846TIP3    H163029   1.495   1.500  11.209 -0.0743  0.0065  0.8817
13846TIP3    H263030   1.359   1.485  11.144  0.1420  0.0014  0.4267
13847TIP3   OH263031   0.739   6.426   6.020 -0.3372  0.2024 -0.4310
13847TIP3    H163032   0.671   6.409   6.085  0.3451 -0.1969  0.1992
13847TIP3    H263033   0.714   6.371   5.945 -0.0293 -0.9455  0.2811
13848TIP3   OH263034   6.381   5.657   4.986 -0.1331 -0.0151  0.6481
13848TIP3    H163035   6.431   5.720   5.039 -0.5320 -0.6722  1.8534
13848TIP3    H263036   6.449   5.605   4.941  0.1906  1.5934 -0.7944
13849TIP3   OH263037   4.459   1.620   4.506  0.0472 -0.0647 -0.3226
13849TIP3    H163038   4.518   1.545   4.497 -0.2391 -0.3802  0.3227
13849TIP3    H263039   4.515   1.697   4.495  0.3654 -0.3731 -0.8680
13850TIP3   OH263040   6.026   4.736   2.272 -0.2209  0.2234  0.1869
13850TIP3    H163041   6.073   4.817   2.253 -0.3149  0.7762  2.0853
13850TIP3    H263042   5.952   4.736   2.212  0.8255  0.5742 -1.1400
13851TIP3   OH263043   0.318   0.022   2.363 -0.2683 -0.3687 -0.3436
13851TIP3    H163044   0.299   0.022   2.456  4.4891 -2.6120  0.9322
13851TIP3    H263045   0.273  -0.057   2.329 -2.1285  0.5346 -0.1071
13852TIP3   OH263046   3.462   5.673   3.958 -0.2439  0.2279  0.2003
13852TIP3    H163047   3.405   5.750   3.951 -1.6332 -0.9116 -1.8672
13852TIP3    H263048   3.436   5.632   4.041 -0.7388  1.0117  0.4476
13853TIP3   OH263049   6.491   3.297   0.341 -0.4111  0.4586  0.0238
13853TIP3    H163050   6.442   3.231   0.291  0.1926 -1.2753  1.6301
13853TIP3    H263051   6.578   3.260   0.352  0.8624  2.7958 -1.3888
13854TIP3   OH263052   6.498   6.374  11.092  0.1259  0.0862  0.3509
13854TIP3    H163053   6.472   6.406  11.006 -1.0271  2.5299  1.5153
13854TIP3    H263054   6.584   6.414  11.107  0.8561 -1.2553 -0.0719
13855TIP3   OH263055   3.661   4.372  11.148 -0.5943  0.0103  0.3031
13855TIP3    H163056   3.619   4.320  11.217  0.1844  0.1275  0.8650
13855TIP3    H263057   3.743   4.403  11.186 -1.5620  2.6934  0.4227
13856TIP3   OH263058   6.169   5.750   0.850 -0.6111  0.3661 -0.0464
13856TIP3    H163059   6.108   5.802   0.903  0.3556 -0.7876  2.3127
13856TIP3    H263060   6.214   5.694   0.913 -0.0800 -1.8116 -2.2407
13857TIP3   OH263061   6.678   5.645  12.694 -0.2706  0.3657  0.4886
13857TIP3    H163062   6.600   5.652  12.748 -0.7923 -0.9734 -0.0398
13857TIP3    H263063   6.751   5.663  12.753 -0.9117  0.4204  1.2702
13858TIP3   OH263064   6.249   0.141  14.742  0.3956  0.2140 -0.0586
13858TIP3    H163065   6.306   0.067  14.762 -0.5956 -0.6258 -0.2407
13858TIP3    H263066   6.197   0.111  14.667 -0.1683  1.0143  0.0047
13859TIP3   OH263067   4.755   2.485   4.548  0.2679 -0.6301 -0.3799
13859TIP3    H163068   4.811   2.563   4.546 -1.6194  0.7726 -1.3441
13859TIP3    H263069   4.766   2.450   4.637  0.5484  1.2148  0.3532
13860TIP3   OH263070   0.270   6.327   3.207 -0.2322 -0.0016  0.0169
13860TIP3    H163071   0.352   6.347   3.251 -1.3260  0.5908  1.8997
13860TIP3    H263072   0.279   6.366   3.120  1.8966 -0.9726 -0.2480
13861TIP3   OH263073   1.519   5.619  17.115 -0.7846  0.2857  0.5566
13861TIP3    H163074   1.605   5.581  17.099 -0.0919  1.0096  2.3382
13861TIP3    H263075   1.459   5.544  17.112 -0.0489 -0.2881 -0.2670
13862TIP3   OH263076   3.080   1.462  11.701 -0.2865  0.0800 -0.0162
13862TIP3    H163077   3.039   1.510  11.773  0.5765  1.0018 -0.1217
13862TIP3    H263078   3.015   1.464  11.631 -0.7097  0.0974  0.3734
13863TIP3   OH263079   5.602   5.145  13.121  0.1625  0.3252  0.2033
13863TIP3    H163080   5.608   5.154  13.026  0.7232  0.0319  0.2046
13863TIP3    H263081   5.582   5.234  13.152 -0.9813  0.2435 -0.2460
13864TIP3   OH263082   0.795   2.382   0.129  0.5586  0.4678 -0.5459
13864TIP3    H163083   0.809   2.289   0.115 -1.3193 -0.3652  2.2571
13864TIP3    H263084   0.874   2.413   0.173  1.0863  0.1470 -1.2651
13865TIP3   OH263085   3.791   1.236   5.612  0.3281  0.2543  0.7174
13865TIP3    H163086   3.847   1.236   5.535  1.3496  0.8078  1.4368
13865TIP3    H263087   3.852   1.242   5.686 -0.6782  1.1407  1.5083
13866TIP3   OH263088   4.730   2.168   3.682  0.4494 -0.3814  0.5453
13866TIP3    H163089   4.688   2.083   3.684  1.3825 -0.8474  1.0878
13866TIP3    H263090   4.665   2.227   3.643 -0.0338 -1.4242 -0.2545
13867TIP3   OH263091   1.854   6.013   1.561  0.1580  0.5405  0.3375
13867TIP3    H163092   1.778   6.055   1.601 -0.5215  0.0769 -0.4499
13867TIP3    H263093   1.858   6.050   1.473  0.0471 -0.4301 -0.0789
13868TIP3   OH263094   1.914   3.142   5.913 -0.9764  0.6707  0.2101
13868TIP3    H163095   1.913   3.223   5.963 -0.0543  0.4921  0.5360
13868TIP3    H263096   1.883   3.167   5.826  1.4860  1.8766 -0.3890
13869TIP3   OH263097   5.177   0.866   3.579 -0.4754 -0.5799 -0.2873
13869TIP3    H163098   5.083   0.868   3.599 -0.0201  2.1518  2.4102
13869TIP3    H263099   5.206   0.781   3.612 -1.5894 -0.2370  1.8191
13870TIP3   OH263100   0.673   3.837  17.276  0.0914 -0.0882  0.0577
13870TIP3    H163101   0.601   3.812  17.334 -0.7578  0.7233 -0.6279
13870TIP3    H263102   0.696   3.756  17.231  1.2530 -0.9099  1.9960
13871TIP3   OH263103   3.810   0.173   5.069 -0.4304 -0.0301 -0.6989
13871TIP3    H163104   3.861   0.092   5.060  0.0016  0.0286  0.9549
13871TIP3    H263105   3.719   0.144   5.069 -0.2963 -0.4629 -0.5480
13872TIP3   OH263106   3.207   6.338   6.227  0.3427  0.6126  0.1537
13872TIP3    H163107   3.245   6.423   6.248 -1.9196  1.3575  1.6537
13872TIP3    H263108   3.118   6.358   6.199 -0.3709 -1.2615  0.8944
13873TIP3   OH263109   0.597   4.837  11.346 -0.2608  0.1025 -0.3327
13873TIP3    H163110   0.672   4.869  11.296 -0.1560  0.2082 -0.1112
13873TIP3    H263111   0.566   4.914  11.394  0.1693 -0.1807  0.4246
13874TIP3   OH263112   0.863   5.260   3.831  0.5714 -0.0916 -0.1017
13874TIP3    H163113   0.847   5.269   3.925  0.5498  0.0596 -0.1196
13874TIP3    H263114   0.955   5.283   3.820  1.0164 -1.6715  0.1022
13875TIP3   OH263115   1.085   1.708   3.061 -0.0243 -0.5057 -0.2539
13875TIP3    H163116   1.068   1.793   3.101  1.4491 -0.6999  0.8681
13875TIP3    H263117   1.038   1.711   2.977 -1.8839  0.5205  0.7609
13876TIP3   OH263118   6.647   2.701  16.704 -0.0615 -0.1574 -0.1405
13876TIP3    H163119   6.563   2.737  16.675  0.4784  1.1755 -0.1216
13876TIP3    H263120   6.695   2.777  16.738  0.6753 -1.1024  1.0077
13877TIP3   OH263121   5.255   5.867   4.022  0.3579 -0.3545 -0.0281
13877TIP3    H163122   5.268   5.945   4.075 -0.4029  0.7361 -1.3751
13877TIP3    H263123   5.269   5.794   4.082  1.1254  0.8045  1.2547
13878TIP3   OH263124   0.571   2.386   1.413  0.4525  0.2047 -0.4135
13878TIP3    H163125   0.601   2.435   1.490  1.3965  0.9740 -1.2409
13878TIP3    H263126   0.484   2.422   1.395  0.9672  1.3192 -0.7653
13879TIP3   OH263127   6.694   0.461  16.707  0.4412 -0.5831  0.2782
13879TIP3    H163128   6.682   0.367  16.695  0.7092 -0.4342 -1.5797
13879TIP3    H263129   6.783   0.478  16.674  0.4513  0.2945  0.7205
13880TIP3   OH263130   6.311   0.870   0.852 -0.0164 -0.5571  0.1212
13880TIP3    H163131   6.310   0.911   0.766 -0.2715 -0.7729  0.0186
13880TIP3    H263132   6.236   0.908   0.898  0.4863  0.0181  0.4685
13881TIP3   OH263133   5.336   5.400   1.536  0.1002  0.1039 -0.3957
13881TIP3    H163134   5.371   5.481   1.498 -1.0104  0.2859 -1.0902
13881TIP3    H263135   5.245   5.421   1.558 -0.0183 -0.7685 -0.0090
13882TIP3   OH263136   0.634   0.453   0.037  0.0524  0.4115  0.6220
13882TIP3    H163137   0.566   0.418  -0.020 -0.5848  0.7861  1.1277
13882TIP3    H263138   0.609   0.544   0.051  2.0642  1.3381 -1.2559
13883TIP3   OH263139   2.457   2.946   2.368  0.5847  0.2187 -0.3261
13883TIP3    H163140   2.520   2.947   2.295  0.9107  0.7115 -0.0423
13883TIP3    H263141   2.504   2.904   2.440  0.2776 -0.2288 -0.3825
13884TIP3   OH263142   0.650   2.276   6.103  0.0438 -0.6331 -0.3314
13884TIP3    H163143   0.734   2.314   6.077 -1.2314  1.1249 -2.1742
13884TIP3    H263144   0.636   2.306   6.192  0.4082  0.8654 -0.7642
13885TIP3   OH263145   3.101   2.425   6.363  0.1084 -0.1368  0.3769
13885TIP3    H163146   3.055   2.346   6.392  0.6226 -0.7707 -0.4961
13885TIP3    H263147   3.163   2.443   6.434  2.4969 -2.6139 -0.8720
13886TIP3   OH263148   1.294   6.208  14.920  0.0194  0.1982  0.0746
13886TIP3    H163149   1.351   6.135  14.942  1.8707  1.1511 -1.2353
13886TIP3    H263150   1.245   6.179  14.844  1.4637  0.6045 -1.0493
13887TIP3   OH263151   2.266   6.356   2.989 -0.2336  0.8978  0.2200
13887TIP3    H163152   2.275   6.435   2.936 -1.3814  0.3851 -0.8004
13887TIP3    H263153   2.201   6.303   2.942 -0.9088  0.1756  1.8851
13888TIP3   OH263154   5.031   2.075   0.060 -0.5230  0.5975  0.0127
13888TIP3    H163155   5.077   2.082  -0.024 -0.2360  1.1014  0.2119
13888TIP3    H263156   5.089   2.116   0.123 -0.8131  0.3672  0.4350
13889TIP3   OH263157   1.949   0.833  14.665 -0.6537 -0.1370  0.3283
13889TIP3    H163158   1.925   0.742  14.677  2.3299 -1.0793 -0.0672
13889TIP3    H263159   1.966   0.866  14.753  1.2553 -0.9282  0.2900
13890TIP3   OH263160   6.259   3.837  12.864  0.6642  0.3310  0.0624
13890TIP3    H163161   6.191   3.825  12.798 -0.1117 -0.3500  0.9633
13890TIP3    H263162   6.323   3.768  12.845  0.5058  0.2173 -0.0661
13891TIP3   OH263163   0.050   0.635  17.097  0.3451 -0.8231  0.1336
13891TIP3    H163164   0.111   0.708  17.086 -0.1546  0.1996  3.0536
13891TIP3    H263165   0.050   0.590  17.013 -0.4324  3.3704 -2.3738
13892TIP3   OH263166   1.102   0.270  15.489 -0.3933 -0.2212  0.3527
13892TIP3    H163167   1.038   0.220  15.539 -0.4928  0.2746  0.7287
13892TIP3    H263168   1.145   0.205  15.434 -0.1839 -0.8093  1.1844
13893TIP3   OH263169   3.318   3.168   0.516 -0.0238  0.3129 -0.3441
13893TIP3    H163170   3.265   3.088   0.516 -0.1021  0.3558  0.5079
13893TIP3    H263171   3.294   3.213   0.596  0.0918  1.1539 -0.7684
13894TIP3   OH263172   4.957   0.049  10.904  0.2704 -0.0203 -0.3296
13894TIP3    H163173   5.030  -0.004  10.934  0.8267  0.2851 -1.0872
13894TIP3    H263174   4.989   0.089  10.822  0.6359  3.0332  1.1530
13895TIP3   OH263175   5.797   3.183  15.222 -0.4553  0.0285 -0.4692
13895TIP3    H163176   5.850   3.104  15.229 -0.8062 -0.2296 -0.6771
13895TIP3    H263177   5.731   3.161  15.157 -0.9134  0.2937 -0.0954
13896TIP3   OH263178   5.098   1.552  16.300 -0.1365  0.5632  0.0017
13896TIP3    H163179   5.071   1.588  16.216  2.2492  0.7366 -0.7775
13896TIP3    H263180   5.089   1.457  16.291  1.4522  0.4703 -1.0375
13897TIP3   OH263181   2.462   0.817   0.626  0.0590  0.3009 -0.2987
13897TIP3    H163182   2.469   0.794   0.718 -0.2575  2.1695  0.2215
13897TIP3    H263183   2.450   0.733   0.581 -0.5453 -0.5665  1.4196
13898TIP3   OH263184   6.643   6.481   3.406 -0.8163 -0.0384  0.1675
13898TIP3    H163185   6.665   6.543   3.476 -1.1231 -0.5782  0.7483
13898TIP3    H263186   6.573   6.526   3.357  1.3753  1.6433 -1.6434
13899TIP3   OH263187   2.895   6.665   6.077  0.1910 -0.1673 -0.2535
13899TIP3    H163188   2.983   6.673   6.041  0.0311 -0.9716 -0.8618
13899TIP3    H263189   2.839   6.649   6.001 -0.5079  0.4978  0.1073
13900TIP3   OH263190   5.564   6.473  17.235 -0.8364  0.2900 -0.2536
13900TIP3    H163191   5.541   6.395  17.286 -1.9650  1.4082  1.0101
13900TIP3    H263192   5.641   6.509  17.280 -0.9418  0.4825 -0.2287
13901TIP3   OH263193   6.047   1.734   4.464  0.3087  0.6185 -0.0333
13901TIP3    H163194   6.029   1.826   4.445  2.3383  0.7508 -1.7214
13901TIP3    H263195   6.081   1.734   4.553  1.5903  1.7652 -0.4819
13902TIP3   OH263196   3.399   5.575  11.833 -0.0538  0.5827  0.0716
13902TIP3    H163197   3.412   5.643  11.899  0.6858 -0.9625  1.5926
13902TIP3    H263198   3.486   5.538  11.819 -0.7155 -1.4451  0.8932
13903TIP3   OH263199   0.602   0.170  15.939  0.2156 -0.1224 -0.0117
13903TIP3    H163200   0.523   0.224  15.941 -1.3163 -2.1838  2.4814
13903TIP3    H263201   0.671   0.228  15.969 -1.2515  0.7275  1.9728
13904TIP3   OH263202   2.282   5.217   2.100 -0.5473 -0.3915  0.4810
13904TIP3    H163203   2.281   5.252   2.011  0.6600 -2.6945 -0.5163
13904TIP3    H263204   2.193   5.232   2.132 -0.2674  3.0343  0.0176
13905TIP3   OH263205   6.239   4.184   6.069  0.5808  0.5048 -0.1243
13905TIP3    H163206   6.192   4.206   6.149  0.4819  0.7960 -0.2629
13905TIP3    H263207   6.241   4.088   6.068 -1.1298  0.4343 -0.7629
13906TIP3   OH263208   3.464   6.336  15.388 -0.5523 -0.0512 -0.2745
13906TIP3    H163209   3.406   6.329  15.464  0.7035 -0.8981  0.6468
13906TIP3    H263210   3.542   6.285  15.412  1.0929  1.9683 -0.9927
13907TIP3   OH263211   1.678   6.320  13.473 -0.1773  0.5846  0.8230
13907TIP3    H163212   1.771   6.330  13.494  0.0111 -0.2569  0.3913
13907TIP3    H263213   1.646   6.256  13.537 -0.7347  1.6978  1.7071
13908TIP3   OH263214   0.135   0.294  14.707 -0.0648 -0.3536 -0.1298
13908TIP3    H163215   0.197   0.349  14.754 -0.7500  0.0659  0.2943
13908TIP3    H263216   0.065   0.277  14.770 -0.7001 -0.2878 -0.7990
13909TIP3   OH263217   1.186   1.912   1.182  0.6345 -0.0189 -0.2903
13909TIP3    H163218   1.102   1.957   1.172 -0.2793 -1.4768  0.4268
13909TIP3    H263219   1.220   1.944   1.266  0.0488 -0.5675  0.1601
13910TIP3   OH263220   1.615   3.064  15.257 -0.0927  0.4137  0.1976
13910TIP3    H163221   1.595   2.992  15.317  0.1758  0.0536 -0.1401
13910TIP3    H263222   1.644   3.021  15.177 -1.1687  0.8826 -0.4601
13911TIP3   OH263223   3.204   5.980   4.644 -0.9286  0.6736  0.2706
13911TIP3    H163224   3.114   6.012   4.644 -1.7590 -1.4122 -1.5311
13911TIP3    H263225   3.233   5.988   4.553 -0.0691 -0.6395  0.3994
13912TIP3   OH263226   2.578   0.522  14.155 -0.0206  0.0266 -0.1870
13912TIP3    H163227   2.541   0.435  14.140 -0.3624  0.3020 -0.9923
13912TIP3    H263228   2.590   0.558  14.067 -0.3002  0.9646  0.1463
13913TIP3   OH263229   2.022   2.946   1.539  0.0933 -0.0215 -0.6153
13913TIP3    H163230   2.051   3.024   1.492  1.3849  0.1837  0.4433
13913TIP3    H263231   1.931   2.963   1.562 -0.4852 -0.0224 -2.7680
13914TIP3   OH263232   0.600   2.489  11.334  0.3159  0.2168  0.6061
13914TIP3    H163233   0.598   2.393  11.339  0.3713  0.1205 -0.8019
13914TIP3    H263234   0.508   2.514  11.331  0.3160  0.0882 -0.6767
13915TIP3   OH263235   5.731   3.239  16.853  0.6076  0.5804 -0.0973
13915TIP3    H163236   5.804   3.197  16.807 -0.5724  0.1286 -1.6458
13915TIP3    H263237   5.660   3.175  16.851 -0.1028  1.3064  0.6601
13916TIP3   OH263238   5.588   2.073   1.796 -0.1567 -0.1004 -0.2620
13916TIP3    H163239   5.605   2.045   1.706 -0.5352 -0.4332 -0.2305
13916TIP3    H263240   5.665   2.043   1.845 -0.1521 -0.3043 -0.3932
13917TIP3   OH263241   3.230   4.720   3.001  0.0905  0.0809 -0.2589
13917TIP3    H163242   3.202   4.772   2.926  1.4139 -1.0227 -1.5843
13917TIP3    H263243   3.149   4.683   3.036 -0.5592  0.6292 -1.1314
13918TIP3   OH263244   2.450   4.428   5.688 -0.5755  0.0294  0.0539
13918TIP3    H163245   2.441   4.406   5.595 -2.5562  0.9883 -0.0303
13918TIP3    H263246   2.532   4.476   5.693  0.8464 -2.1513 -0.7322
13919TIP3   OH263247   1.243   4.952  12.175 -0.4811 -0.2492  0.1117
13919TIP3    H163248   1.241   5.047  12.177 -1.6189 -0.2088 -1.3273
13919TIP3    H263249   1.294   4.930  12.097 -0.7028 -0.8025  0.1120
13920TIP3   OH263250   2.613   3.305   1.380 -0.0081  0.4642 -0.2048
13920TIP3    H163251   2.577   3.216   1.378  0.2985  0.2958  1.0288
13920TIP3    H263252   2.607   3.331   1.472 -1.8256  2.4570 -0.8294
13921TIP3   OH263253   5.934   2.582  10.967 -0.0759  0.1359 -0.0068
13921TIP3    H163254   5.952   2.626  10.884  0.8443 -0.6937 -0.2646
13921TIP3    H263255   6.012   2.529  10.983 -1.0743 -1.2779  0.3627
13922TIP3   OH263256   5.490   6.400   4.548 -0.4255 -0.3753  0.1901
13922TIP3    H163257   5.577   6.407   4.508 -0.9915  1.2799 -0.8477
13922TIP3    H263258   5.504   6.347   4.626  1.1978 -1.5941 -0.8625
13923TIP3   OH263259   3.694   5.872  11.314  0.0783  0.4254 -0.4486
13923TIP3    H163260   3.697   5.815  11.237 -2.0865  0.1870 -0.4017
13923TIP3    H263261   3.638   5.945  11.288 -0.2772  0.5974  0.7403
13924TIP3   OH263262   2.563   4.803   1.889 -0.1036  0.6569 -0.0412
13924TIP3    H163263   2.520   4.873   1.938 -0.3580  1.0894 -0.8482
13924TIP3    H263264   2.656   4.814   1.907 -0.1728  0.9744  0.1320
13925TIP3   OH263265   6.383   5.819  15.318  0.2063 -0.2360  0.2014
13925TIP3    H163266   6.401   5.823  15.224  3.6088 -2.6188  0.5769
13925TIP3    H263267   6.301   5.772  15.325  0.7604 -1.5727 -1.5854
13926TIP3   OH263268   1.325   5.788   4.154 -0.2289 -0.1640  0.1400
13926TIP3    H163269   1.405   5.794   4.102 -0.7408  1.5798 -0.4965
13926TIP3    H263270   1.351   5.741   4.233  1.6138  1.0949  0.3243
13927TIP3   OH263271   1.314   1.993   0.944  0.8007  0.0568  0.3284
13927TIP3    H163272   1.282   1.970   1.031 -0.4189  0.9873  0.1511
13927TIP3    H263273   1.303   1.913   0.892  1.5323 -0.4995  1.0098
13928TIP3   OH263274   0.627   6.725  14.661 -0.2070 -0.5978  0.1310
13928TIP3    H163275   0.557   6.665  14.636 -0.1345 -0.7434  0.2747
13928TIP3    H263276   0.625   6.794  14.594  1.0067 -1.7983 -1.1995
13929TIP3   OH263277   1.535   0.054   1.259 -0.1234 -0.3156 -0.2896
13929TIP3    H163278   1.498   0.028   1.343  1.7377  0.0870  0.6973
13929TIP3    H263279   1.460   0.088   1.209 -1.5117 -1.8883  0.6287
13930TIP3   OH263280   3.865   6.332   6.349 -0.1201  0.1148 -0.4703
13930TIP3    H163281   3.948   6.286   6.339  1.1312  2.0777  0.2536
13930TIP3    H263282   3.801   6.264   6.370  1.9358 -1.1690  2.2717
13931TIP3   OH263283   1.727   1.491  14.905  0.0528 -0.2906 -0.5332
13931TIP3    H163284   1.728   1.397  14.923 -0.0786 -0.2176 -0.1383
13931TIP3    H263285   1.750   1.532  14.989  0.9497  0.0008 -0.9077
13932TIP3   OH263286   3.387   0.075  15.392 -0.2778  0.1996 -0.2134
13932TIP3    H163287   3.434   0.124  15.325  0.9784  1.1816  1.2986
13932TIP3    H263288   3.440  -0.004  15.406  0.1469  0.5768  0.4180
13933TIP3   OH263289   5.926   6.030  13.267  0.4756 -0.1176  0.4367
13933TIP3    H163290   6.014   5.997  13.287  0.0579 -0.4366  1.8753
13933TIP3    H263291   5.882   5.956  13.225  0.9687  0.1426 -0.5756
13934TIP3   OH263292   1.532   0.997  12.932  0.3019  0.1004 -0.4026
13934TIP3    H163293   1.590   1.046  12.990  0.4672  0.0975 -0.5653
13934TIP3    H263294   1.459   0.970  12.988  1.5473 -1.8514  0.3846
13935TIP3   OH263295   4.284   0.726  16.119 -0.3204  0.4758  0.2789
13935TIP3    H163296   4.361   0.670  16.116 -1.1147 -0.6132 -1.0137
13935TIP3    H263297   4.242   0.713  16.034 -1.4811  1.6777  0.6401
13936TIP3   OH263298   6.590   2.929   4.694 -0.0394  0.0487  0.3511
13936TIP3    H163299   6.615   2.850   4.645  0.1907 -1.4567  2.7468
13936TIP3    H263300   6.673   2.973   4.711  0.0505 -0.2694  0.7414
13937TIP3   OH263301   2.051   6.294   0.523  0.2158 -0.8023 -0.0067
13937TIP3    H163302   2.034   6.387   0.534  0.1740 -0.9282  1.1174
13937TIP3    H263303   2.076   6.285   0.431  0.1586  0.2987 -0.1471
13938TIP3   OH263304   1.662   4.819  16.212  0.8493  0.6408  0.1140
13938TIP3    H163305   1.642   4.912  16.199 -1.7741  0.1249 -0.1702
13938TIP3    H263306   1.660   4.782  16.124 -1.3248 -0.1686  0.4354
13939TIP3   OH263307   6.364   5.350   5.915  0.1780  0.0425  0.2400
13939TIP3    H163308   6.368   5.310   6.001  0.2525 -1.7387 -0.5586
13939TIP3    H263309   6.342   5.442   5.933  0.5723 -0.1897  2.1521
13940TIP3   OH263310   0.649   3.986   0.211 -0.4482 -0.0852 -0.2542
13940TIP3    H163311   0.730   3.947   0.178  2.5173  3.1965  2.3395
13940TIP3    H263312   0.631   4.058   0.150  0.4972  1.0998  0.8029
13941TIP3   OH263313   4.405   3.550  15.514 -0.5739 -0.0172  0.3332
13941TIP3    H163314   4.472   3.505  15.464  1.6485 -0.2381  3.2075
13941TIP3    H263315   4.379   3.624  15.460  0.8792 -0.7926 -1.5109
13942TIP3   OH263316   6.489   1.280   3.651 -0.1043 -0.1616  0.1032
13942TIP3    H163317   6.434   1.332   3.592  0.2859 -3.1486 -3.2430
13942TIP3    H263318   6.439   1.199   3.664  1.3623 -0.9485  1.0375
13943TIP3   OH263319   1.863   4.123   1.189  0.2508 -0.5521  0.0153
13943TIP3    H163320   1.827   4.083   1.110  1.0237  0.1825 -0.7407
13943TIP3    H263321   1.893   4.210   1.160  0.3581 -0.1897  1.1632
13944TIP3   OH263322   3.877   6.158   0.012  0.4265  0.1604 -0.3221
13944TIP3    H163323   3.828   6.100  -0.047  0.1501  0.8320 -0.7712
13944TIP3    H263324   3.968   6.130   0.005  0.0701 -1.4823  0.9487
13945TIP3   OH263325   5.893   2.142  17.344  0.1189 -0.0781  0.0672
13945TIP3    H163326   5.934   2.217  17.388  0.5885 -0.3918  0.1801
13945TIP3    H263327   5.909   2.158  17.251 -0.0707  0.1269  0.0695
13946TIP3   OH263328   1.652   3.490  12.528  0.7590  0.1692 -0.5361
13946TIP3    H163329   1.711   3.418  12.549 -0.2331 -0.2610  1.0464
13946TIP3    H263330   1.565   3.450  12.530 -0.1371  1.8074  3.3341
13947TIP3   OH263331   6.703   0.844   4.091 -0.2239  0.0028  0.7109
13947TIP3    H163332   6.734   0.913   4.033  0.5199  1.4285  2.7097
13947TIP3    H263333   6.623   0.879   4.130 -0.9705 -1.1231  0.2506
13948TIP3   OH263334   2.310   3.038   4.107  0.0215  1.1324 -0.4057
13948TIP3    H163335   2.218   3.022   4.087 -0.5156  1.0676  1.7899
13948TIP3    H263336   2.351   2.952   4.103  0.1256  1.2211 -1.8292
13949TIP3   OH263337   6.659   3.461  17.038  0.2321 -0.0858 -0.3740
13949TIP3    H163338   6.604   3.451  16.961  2.3868  0.6584 -2.1357
13949TIP3    H263339   6.607   3.425  17.110 -1.1383 -2.6293 -2.4614
13950TIP3   OH263340   1.229   1.294  13.807 -0.1881 -0.4866  0.3705
13950TIP3    H163341   1.213   1.211  13.853 -0.7824 -1.7444 -1.9272
13950TIP3    H263342   1.175   1.358  13.853 -1.0743 -1.7527  1.1661
13951TIP3   OH263343   5.076   0.206  10.684  0.6141 -0.2360  0.1025
13951TIP3    H163344   5.156   0.258  10.682  0.5407 -0.0616  1.2539
13951TIP3    H263345   5.008   0.266  10.654  0.4248  0.5715  2.0135
13952TIP3   OH263346   1.649   5.443  13.314  0.5700  0.7277  0.1746
13952TIP3    H163347   1.715   5.496  13.268  2.4466 -0.1553  1.6804
13952TIP3    H263348   1.668   5.354  13.286  0.1676  0.4392  0.8285
13953TIP3   OH263349   4.002   5.562  14.780 -0.7514 -0.2025  0.5221
13953TIP3    H163350   3.966   5.607  14.703  0.1931  0.5015  0.4729
13953TIP3    H263351   4.059   5.627  14.821  0.3827 -1.2432  0.6455
13954TIP3   OH263352   5.678   5.930   4.098  0.4018 -0.1131 -0.2538
13954TIP3    H163353   5.761   5.939   4.144  1.9712 -1.0560 -2.6965
13954TIP3    H263354   5.673   6.007   4.041  0.2569 -0.6892 -1.0409
13955TIP3   OH263355   1.667   2.616   1.944 -0.0879  0.0552 -0.3324
13955TIP3    H163356   1.574   2.634   1.952 -0.0018  1.5052 -2.0417
13955TIP3    H263357   1.677   2.526   1.975 -2.0510 -0.1463 -0.1654
13956TIP3   OH263358   4.045   3.401  13.790 -0.1204  0.0211 -0.0066
13956TIP3    H163359   3.994   3.324  13.817  2.5289 -1.8267  0.1405
13956TIP3    H263360   4.028   3.466  13.858  0.8488 -2.0028  2.3200
13957TIP3   OH263361   2.505   5.744   2.457  0.2646 -0.4493  0.0610
13957TIP3    H163362   2.425   5.705   2.421  0.4058 -0.4811 -0.2150
13957TIP3    H263363   2.573   5.678   2.442 -0.1146 -1.5125  2.5027
13958TIP3   OH263364   0.262   4.740  12.025 -0.2617 -0.0137  0.6187
13958TIP3    H163365   0.268   4.773  12.115  0.6948 -2.4793  1.5280
13958TIP3    H263366   0.253   4.645  12.034  0.0250 -0.3533 -1.9050
13959TIP3   OH263367   3.854   2.672   2.019 -0.5421  0.0328 -0.3825
13959TIP3    H163368   3.880   2.763   2.033 -0.5882  0.0678 -0.5210
13959TIP3    H263369   3.772   2.663   2.067  0.8419 -0.7003  1.9614
13960TIP3   OH263370   1.564   1.254  10.892 -0.0774 -0.0440  0.2182
13960TIP3    H163371   1.562   1.330  10.950  1.4961 -0.4001  0.7868
13960TIP3    H263372   1.472   1.241  10.867 -0.6098  0.9610  1.5048
13961TIP3   OH263373   5.266   6.236   2.814  0.7406 -0.4749 -0.2530
13961TIP3    H163374   5.303   6.173   2.876  0.1295  0.1606  0.7819
13961TIP3    H263375   5.219   6.299   2.869  1.1310  0.7494 -1.2792
13962TIP3   OH263376   6.761   1.699   4.774  0.7208 -0.6418 -0.2805
13962TIP3    H163377   6.818   1.775   4.761 -1.7175  1.3571 -0.0018
13962TIP3    H263378   6.731   1.676   4.686 -1.4277  1.2031 -0.1334
13963TIP3   OH263379   2.141   4.552  15.213  0.1858 -0.1100 -0.0729
13963TIP3    H163380   2.236   4.546  15.225  0.2895  1.4437  0.1536
13963TIP3    H263381   2.117   4.635  15.255 -1.0460  0.2721 -1.4444
13964TIP3   OH263382   4.054   2.243   2.535 -0.2139  0.6399 -0.1083
13964TIP3    H163383   4.045   2.307   2.607 -0.6132 -0.6275  1.0185
13964TIP3    H263384   4.014   2.164   2.570 -1.9418  0.4378 -2.3773
13965TIP3   OH263385   2.423   2.669   6.823 -0.2557  0.0885  0.0399
13965TIP3    H163386   2.510   2.690   6.857 -0.7893  0.5594  1.1543
13965TIP3    H263387   2.399   2.587   6.866 -0.2897 -0.1368 -0.4068
13966TIP3   OH263388   6.382   2.874   4.212 -0.0474  0.2944  0.2435
13966TIP3    H163389   6.385   2.887   4.117  3.7908 -1.1797 -0.0487
13966TIP3    H263390   6.356   2.782   4.223  0.2684  0.2357  0.5371
13967TIP3   OH263391   1.466   4.112   1.552 -0.2831 -0.1671 -0.1290
13967TIP3    H163392   1.503   4.198   1.568  0.7627 -0.6662  0.1956
13967TIP3    H263393   1.449   4.076   1.639 -1.4954  0.0305 -0.2714
13968TIP3   OH263394   0.417   4.021   4.882 -0.5463  0.0087  0.4336
13968TIP3    H163395   0.332   3.977   4.880 -0.8923  0.6492  0.8072
13968TIP3    H263396   0.396   4.114   4.879  0.1182  0.1878  1.0837
13969TIP3   OH263397   4.637   6.558  14.355 -0.1714  0.2734  0.2143
13969TIP3    H163398   4.544   6.546  14.376 -0.5581  1.1425 -0.8501
13969TIP3    H263399   4.652   6.652  14.365  0.6427  0.1223  0.5104
13970TIP3   OH263400   1.782   4.425   0.265  0.6383  0.1295  1.0997
13970TIP3    H163401   1.724   4.495   0.295  1.0173  0.6922  0.5341
13970TIP3    H263402   1.748   4.402   0.179  0.1517 -0.8095  1.5183
13971TIP3   OH263403   0.771   6.627  11.018 -0.6892  0.2709  0.0415
13971TIP3    H163404   0.801   6.641  11.107 -1.2636 -0.5272  0.3726
13971TIP3    H263405   0.851   6.612  10.967 -0.3760  0.5445  0.4501
13972TIP3   OH263406   6.076   5.492   5.290 -0.0783 -0.2920  0.6682
13972TIP3    H163407   6.048   5.401   5.280  1.1068 -0.4767 -1.4212
13972TIP3    H263408   6.040   5.537   5.213  1.4693  0.4291  0.3383
13973TIP3   OH263409   0.781   4.358   2.381  0.2253  0.2951  0.2365
13973TIP3    H163410   0.846   4.413   2.337  1.6449 -1.6058 -0.1424
13973TIP3    H263411   0.809   4.357   2.473  0.4352 -0.0961  0.1702
13974TIP3   OH263412   3.055   4.322   1.857 -0.0877 -0.1390 -0.0713
13974TIP3    H163413   3.125   4.273   1.814 -0.5665 -1.4024  0.5301
13974TIP3    H263414   3.060   4.410   1.819  1.2013 -0.4728 -0.7267
13975TIP3   OH263415   6.739   1.990   3.183  0.0106 -0.2042  0.4534
13975TIP3    H163416   6.695   2.069   3.214 -0.5074 -0.9886  1.7991
13975TIP3    H263417   6.832   2.008   3.193 -0.0772  0.5035  0.0498
13976TIP3   OH263418   3.203   1.749  11.463 -0.3973  0.0009  0.0515
13976TIP3    H163419   3.235   1.840  11.464 -2.0080  0.5971  1.2184
13976TIP3    H263420   3.268   1.701  11.515  0.7260  0.3571 -0.9648
13977TIP3   OH263421   4.642   4.031   5.898 -0.9290  0.2077  0.3425
13977TIP3    H163422   4.627   3.954   5.843 -0.7068 -0.0781  0.6805
13977TIP3    H263423   4.731   4.059   5.874 -1.7237  1.5685 -1.2532
13978TIP3   OH263424   6.127   2.676  11.271  0.1475  0.1815  0.6822
13978TIP3    H163425   6.144   2.586  11.246 -1.3475  0.3092 -1.0153
13978TIP3    H263426   6.048   2.672  11.324 -0.1240  0.5234  0.3094
13979TIP3   OH263427   2.852   2.708   5.737  0.2678 -0.0912 -0.3292
13979TIP3    H163428   2.780   2.750   5.786 -0.8319 -1.2316 -0.9142
13979TIP3    H263429   2.845   2.615   5.758  2.8363 -0.0358  1.1412
13980TIP3   OH263430   1.490   0.720   1.141 -0.0824 -0.1655  0.1909
13980TIP3    H163431   1.521   0.634   1.169  5.3733  0.6214 -1.9943
13980TIP3    H263432   1.547   0.782   1.188  0.2718  1.7907 -2.5756
13981TIP3   OH263433   0.920   0.772   6.241 -0.7139 -0.3131 -0.3984
13981TIP3    H163434   0.952   0.823   6.315  0.7512  0.0949 -1.2774
13981TIP3    H263435   0.892   0.837   6.176 -1.5874 -0.6631 -0.3938
13982TIP3   OH263436   2.667   3.550   0.626 -0.1049 -0.3191  0.5042
13982TIP3    H163437   2.728   3.502   0.570 -0.6660 -0.2410 -0.2025
13982TIP3    H263438   2.717   3.573   0.704  1.1706  0.9287 -0.6258
13983TIP3   OH263439   2.567   3.055  11.353  0.5938  0.1789 -0.1571
13983TIP3    H163440   2.499   3.015  11.299 -0.9092  1.1005  0.9902
13983TIP3    H263441   2.628   2.983  11.372 -0.9802 -1.1065  0.2219
13984TIP3   OH263442   5.307   1.186  16.793 -0.0392 -0.1640 -0.3400
13984TIP3    H163443   5.272   1.098  16.805  0.3529 -0.4015 -0.9504
13984TIP3    H263444   5.232   1.237  16.762 -0.6584  0.0832  1.4093
13985TIP3   OH263445   0.651   3.767  14.562 -0.2609 -0.6065  0.0459
13985TIP3    H163446   0.590   3.732  14.627 -1.5324 -1.7521 -1.6528
13985TIP3    H263447   0.719   3.700  14.554 -0.8620 -1.1379 -0.7706
13986TIP3   OH263448   0.430   6.280  12.765  0.4504  0.3337 -0.1139
13986TIP3    H163449   0.518   6.316  12.754  0.9255 -0.8143 -0.1917
13986TIP3    H263450   0.426   6.255  12.857  0.5394 -0.4348 -0.3112
13987TIP3   OH263451   5.726   0.641   0.708 -0.2521  0.4541  0.2902
13987TIP3    H163452   5.761   0.553   0.719  0.0086  0.3969 -0.8831
13987TIP3    H263453   5.688   0.641   0.620 -1.9564  0.9490  0.9814
13988TIP3   OH263454   5.086   5.112  16.764 -0.3686  0.0385  0.6129
13988TIP3    H163455   5.005   5.140  16.808 -2.2966 -1.5591 -1.6638
13988TIP3    H263456   5.089   5.164  16.684  1.7709  1.1633  1.3377
13989TIP3   OH263457   5.410   5.436  16.053  0.0311 -0.0829  0.2729
13989TIP3    H163458   5.400   5.347  16.019  1.5052 -0.3257  0.3910
13989TIP3    H263459   5.344   5.487  16.007 -1.0481 -1.2768  0.4170
13990TIP3   OH263460   0.828   6.093   2.292 -0.1863  0.4595 -0.1226
13990TIP3    H163461   0.837   6.064   2.383 -0.2101  1.2642  0.1450
13990TIP3    H263462   0.756   6.041   2.258  0.2538 -0.3165  0.1231
13991TIP3   OH263463   2.490   0.244  16.473 -0.1263 -0.5683 -0.8518
13991TIP3    H163464   2.510   0.279  16.386  0.7757 -0.2568 -0.5175
13991TIP3    H263465   2.513   0.151  16.466  0.2196 -0.4828 -0.8562
13992TIP3   OH263466   4.966   6.232   5.151  0.0311  0.2908 -0.3944
13992TIP3    H163467   4.944   6.215   5.243  1.7546  0.0661  0.0086
13992TIP3    H263468   4.964   6.327   5.143 -0.0764  0.3142 -0.1211
13993TIP3   OH263469   0.061   5.171   5.184  0.5490  0.7593  0.7218
13993TIP3    H163470   0.152   5.144   5.192  0.7202  1.2623  0.5287
13993TIP3    H263471   0.060   5.262   5.212 -0.0019  0.5848  1.3017
13994TIP3   OH263472   1.058   2.404  14.540  0.2352  0.6124 -0.1798
13994TIP3    H163473   1.069   2.448  14.624 -0.0432  0.3580 -0.0073
13994TIP3    H263474   1.127   2.338  14.537  0.1406  0.5081 -0.0748
13995TIP3   OH263475   3.003   4.285  15.820 -0.0532 -0.4976  0.3564
13995TIP3    H163476   3.059   4.349  15.863 -1.6356  0.6758  0.7868
13995TIP3    H263477   3.049   4.263  15.739  0.8289  0.7205  0.4923
13996TIP3   OH263478   0.575   6.250   3.326 -0.0833 -0.3668 -0.6703
13996TIP3    H163479   0.570   6.343   3.308 -2.1206 -0.7613 -2.5651
13996TIP3    H263480   0.507   6.235   3.392  0.1565 -0.5562 -0.4611
13997TIP3   OH263481   4.045   5.682  14.374  0.2460 -0.0851 -0.2690
13997TIP3    H163482   3.979   5.623  14.411 -0.7448  1.0773 -0.1024
13997TIP3    H263483   4.077   5.636  14.297  0.4628 -1.4122  0.5776
13998TIP3   OH263484   0.486   2.841  13.348  0.4674  0.0068 -0.2341
13998TIP3    H163485   0.582   2.840  13.346  0.4823  0.8235 -0.2708
13998TIP3    H263486   0.462   2.758  13.389  1.0628 -2.2482 -4.0156
13999TIP3   OH263487   2.052   2.735   4.283 -0.4110  0.1765 -0.4999
13999TIP3    H163488   2.023   2.658   4.236  0.1877  0.0551 -0.6749
13999TIP3    H263489   2.072   2.703   4.371  0.1759  0.0576 -0.6713
14000TIP3   OH263490   3.450   0.660  11.881  0.0820 -0.3687  0.1802
14000TIP3    H163491   3.539   0.675  11.850  0.7132 -0.8645  1.6491
14000TIP3    H263492   3.401   0.632  11.803  1.0824  0.3575 -0.7321
14001TIP3   OH263493   1.869   5.602   1.521 -0.4665 -0.2529 -0.2217
14001TIP3    H163494   1.819   5.535   1.567 -1.4499  0.0582 -0.8091
14001TIP3    H263495   1.804   5.668   1.497  0.0136 -0.4115 -2.0702
14002TIP3   OH263496   6.504   2.793  16.947 -0.3866  0.1258 -0.1311
14002TIP3    H163497   6.424   2.825  16.990 -0.6954 -1.0470  0.1906
14002TIP3    H263498   6.475   2.719  16.895  0.3223  0.3620 -0.8822
14003TIP3   OH263499   0.420   2.041  11.744  0.5328  0.3767 -0.3976
14003TIP3    H163500   0.398   1.958  11.787  0.5926  1.6136  2.1868
14003TIP3    H263501   0.339   2.067  11.700 -0.3642  0.2812  1.1256
14004TIP3   OH263502   3.608   6.183   5.176  0.0886  0.3058 -0.2071
14004TIP3    H163503   3.528   6.189   5.124  0.2583 -0.0904 -0.5147
14004TIP3    H263504   3.676   6.219   5.119 -0.0221  1.5547  0.4065
14005TIP3   OH263505   0.886   1.718  10.776  0.2003  0.0580 -0.2110
14005TIP3    H163506   0.814   1.658  10.754  0.2816  0.1806 -0.8465
14005TIP3    H263507   0.933   1.730  10.693 -1.6430  3.4668 -0.9592
14006TIP3   OH263508   3.593   2.901  14.302  0.2236 -0.1433 -0.1993
14006TIP3    H163509   3.559   2.938  14.221 -0.9956 -0.5741  0.1037
14006TIP3    H263510   3.585   2.972  14.366 -0.3212 -0.3140 -0.0754
14007TIP3   OH263511   3.130   5.252  15.348 -0.4442 -0.3386  0.2976
14007TIP3    H163512   3.220   5.275  15.374 -1.1089  0.6503  1.8331
14007TIP3    H263513   3.127   5.157  15.359  0.4995 -0.4189 -0.0337
14008TIP3   OH263514   6.466   4.283  14.128 -0.1078 -0.2485  0.0141
14008TIP3    H163515   6.533   4.279  14.060 -0.3949 -0.3974 -0.2597
14008TIP3    H263516   6.484   4.365  14.175  0.3847 -0.3829  0.0642
14009TIP3   OH263517   3.705   3.412   4.058 -0.0746 -0.0250  0.4521
14009TIP3    H163518   3.620   3.456   4.065 -1.0349 -1.5224 -0.9880
14009TIP3    H263519   3.707   3.354   4.134  1.1403  2.2524  2.2854
14010TIP3   OH263520   3.059   1.507   2.835 -0.0931 -0.0690  0.1631
14010TIP3    H163521   3.095   1.546   2.914  0.7118 -1.1489  0.3592
14010TIP3    H263522   3.114   1.430   2.819  0.4175  0.6850 -2.0256
14011TIP3   OH263523   1.202   4.791   2.039  0.0281 -1.0859  0.2755
14011TIP3    H163524   1.257   4.852   1.989 -1.0196 -0.0494  0.3419
14011TIP3    H263525   1.143   4.754   1.973 -0.9899 -0.1272  0.6075
14012TIP3   OH263526   2.318   2.993  13.176 -0.0118 -0.2850 -0.2138
14012TIP3    H163527   2.402   2.982  13.221 -0.7087 -0.7974  1.0248
14012TIP3    H263528   2.335   2.968  13.086  1.3912  0.5607 -0.2155
14013TIP3   OH263529   5.348   0.220  12.104  0.2822  0.1877 -0.0373
14013TIP3    H163530   5.265   0.176  12.119 -1.2552  2.4023 -1.3731
14013TIP3    H263531   5.366   0.266  12.186 -0.1965  0.2614  0.0269
14014TIP3   OH263532   6.270   2.372   4.206 -0.1774  0.3046 -0.2451
14014TIP3    H163533   6.180   2.343   4.213 -0.2275  0.2876 -0.9046
14014TIP3    H263534   6.321   2.291   4.197 -0.0886  0.3112  0.1711
14015TIP3   OH263535   6.428   2.430  11.580  0.5737 -0.1034 -0.4153
14015TIP3    H163536   6.497   2.377  11.619 -0.4716  0.6957  2.7806
14015TIP3    H263537   6.356   2.369  11.566  0.7265 -0.2608 -0.5301
14016TIP3   OH263538   2.148   3.683  13.740 -0.1692  0.7859  0.0291
14016TIP3    H163539   2.184   3.675  13.829 -1.5376  3.1797  0.9047
14016TIP3    H263540   2.058   3.714  13.753 -0.8513 -0.0590 -2.1906
14017TIP3   OH263541   2.500   4.423  11.731 -0.3392  0.3690  0.1812
14017TIP3    H163542   2.457   4.484  11.671  0.7652  0.6884 -0.3074
14017TIP3    H263543   2.439   4.349  11.737 -0.7558  0.6112 -0.8359
14018TIP3   OH263544   1.097   4.036   3.450  0.1567  0.2486  0.2839
14018TIP3    H163545   1.114   3.943   3.432 -2.2542 -0.3102  0.5513
14018TIP3    H263546   1.073   4.073   3.365  2.0665  0.9284 -0.0157
14019TIP3   OH263547   3.116   2.774   1.513 -0.2061 -0.5422 -0.4961
14019TIP3    H163548   3.139   2.866   1.504 -0.6999 -0.1490  1.8211
14019TIP3    H263549   3.113   2.741   1.423  2.4522  1.0507 -1.2674
14020TIP3   OH263550   1.148   5.057  10.685 -0.2981  0.1927  0.1311
14020TIP3    H163551   1.054   5.062  10.668  0.0743 -0.5125 -2.4416
14020TIP3    H263552   1.174   5.148  10.702 -1.0570  0.7463 -1.5025
14021TIP3   OH263553   0.663   6.585  12.741  0.0737 -0.0221 -0.3922
14021TIP3    H163554   0.727   6.611  12.807  0.2215  0.8381 -0.8498
14021TIP3    H263555   0.677   6.491  12.729  0.2924 -0.1143  0.5181
14022TIP3   OH263556   0.550   0.132  15.665 -0.1086  0.8340  0.5532
14022TIP3    H163557   0.456   0.125  15.683  0.0108 -1.5275  0.5842
14022TIP3    H263558   0.590   0.139  15.752 -0.2247  1.5466  0.5549
14023TIP3   OH263559   5.828   2.720   3.576  0.4761 -0.3415 -0.4098
14023TIP3    H163560   5.814   2.645   3.633  0.4747 -2.2477 -2.7299
14023TIP3    H263561   5.833   2.683   3.488 -0.7156  2.4893 -1.8463
14024TIP3   OH263562   5.348   2.833  16.871  0.5590  0.0219 -0.2921
14024TIP3    H163563   5.341   2.740  16.893 -1.9015  0.1355 -0.3347
14024TIP3    H263564   5.268   2.872  16.907  0.7339  1.8216 -1.7297
14025TIP3   OH263565   1.998   2.552  14.531  0.1275  0.1689 -0.5209
14025TIP3    H163566   1.946   2.472  14.520 -0.6993  1.0207 -3.8605
14025TIP3    H263567   1.952   2.601  14.599 -0.7339 -1.1407 -0.1241
14026TIP3   OH263568   2.916   0.527  11.485 -0.6770 -0.8891 -0.4186
14026TIP3    H163569   2.908   0.496  11.395 -1.6508 -1.8446 -0.0274
14026TIP3    H263570   2.827   0.524  11.520 -0.3733 -0.1475  0.4583
14027TIP3   OH263571   4.653   0.462   0.327  0.6213 -0.2269  0.2697
14027TIP3    H163572   4.638   0.548   0.367  1.3459  0.8078 -1.5624
14027TIP3    H263573   4.621   0.471   0.237  0.8728 -1.8142 -0.0099
14028TIP3   OH263574   2.117   3.590   2.245  0.6389  0.1800  0.0037
14028TIP3    H163575   2.187   3.604   2.181  2.0185 -0.8710  1.2112
14028TIP3    H263576   2.037   3.606   2.196  1.6997  1.3776 -1.4583
14029TIP3   OH263577   3.763   2.915   1.028  0.5031  0.1703 -0.1517
14029TIP3    H163578   3.856   2.906   1.006  0.4692 -1.9081  0.3095
14029TIP3    H263579   3.724   2.832   1.000 -0.9519  0.4626  0.8872
14030TIP3   OH263580   0.288   1.695   3.191  0.0314  0.3442 -0.5413
14030TIP3    H163581   0.251   1.764   3.136  1.7518  1.3482 -0.5090
14030TIP3    H263582   0.297   1.620   3.132 -2.3486 -0.0925 -0.4464
14031TIP3   OH263583   1.580   3.377  15.723 -0.6047  0.0399  0.0856
14031TIP3    H163584   1.617   3.390  15.811  1.1987  1.2572 -0.7669
14031TIP3    H263585   1.533   3.459  15.705  0.2174  0.3769 -0.5899
14032TIP3   OH263586   4.587   2.383  16.089 -0.0809  0.0232  0.5452
14032TIP3    H163587   4.546   2.468  16.071 -1.4911 -0.7541 -0.0442
14032TIP3    H263588   4.513   2.324  16.105  0.7876 -1.5230 -0.9523
14033TIP3   OH263589   3.048   2.520  16.600 -0.5474  0.5792 -0.4249
14033TIP3    H163590   2.962   2.513  16.642 -0.0303  0.6614  0.6888
14033TIP3    H263591   3.028   2.540  16.508 -1.7151  0.7705 -0.1535
14034TIP3   OH263592   4.417   2.200   6.242 -0.0498 -0.9548  0.9740
14034TIP3    H163593   4.399   2.125   6.185 -0.0715  0.1539 -0.5445
14034TIP3    H263594   4.348   2.263   6.220 -0.6148 -0.8292  2.9330
14035TIP3   OH263595   2.466   0.633   1.962  0.2408  0.3925  0.3820
14035TIP3    H163596   2.418   0.613   1.882  2.4363 -1.7731 -0.5082
14035TIP3    H263597   2.457   0.555   2.016  2.6880 -0.1389  0.1441
14036TIP3   OH263598   3.073   3.313   2.065  0.0766 -0.1339  0.1829
14036TIP3    H163599   3.116   3.358   2.138 -1.1916 -1.7133  2.0279
14036TIP3    H263600   3.037   3.233   2.104 -0.9778 -0.8816 -2.1263
14037TIP3   OH263601   3.714   5.867   4.042 -0.5635  0.3767 -0.3762
14037TIP3    H163602   3.782   5.803   4.021 -0.6794 -0.0328  0.4474
14037TIP3    H263603   3.638   5.814   4.064 -0.1862  0.7177  1.9587
14038TIP3   OH263604   6.749   5.598  17.118  0.1156 -0.3402  0.0649
14038TIP3    H163605   6.737   5.602  17.024 -1.7948  0.9938  0.3004
14038TIP3    H263606   6.758   5.505  17.138  0.6956 -0.6201 -1.4182
14039TIP3   OH263607   3.911   3.161   4.326  0.1194 -0.0864 -0.0677
14039TIP3    H163608   3.903   3.080   4.274  1.9581 -0.6356  0.4154
14039TIP3    H263609   3.930   3.130   4.415  0.0689  0.8768  0.2823
14040TIP3   OH263610   2.837   3.247   6.626  0.0489 -0.8833 -0.3045
14040TIP3    H163611   2.841   3.320   6.564  0.3517 -0.0520  0.6651
14040TIP3    H263612   2.825   3.289   6.711  2.3926 -1.8112  0.5738
14041TIP3   OH263613   4.452   5.637   4.191 -0.2605  0.1220 -0.2715
14041TIP3    H163614   4.488   5.707   4.137 -0.1271 -0.3902 -0.8506
14041TIP3    H263615   4.508   5.561   4.174  1.6116  0.6556  2.7394
14042TIP3   OH263616   6.363   1.322   5.012  0.2453 -0.6587  0.4346
14042TIP3    H163617   6.315   1.301   5.091  0.2375  0.5451  0.7595
14042TIP3    H263618   6.308   1.288   4.941 -1.0481  0.5781  0.8001
14043TIP3   OH263619   6.442   6.104   1.826 -0.7336 -0.5339 -0.6733
14043TIP3    H163620   6.409   6.017   1.849 -0.1425 -0.3887  0.8022
14043TIP3    H263621   6.477   6.139   1.908 -2.3032  1.7123 -0.8941
14044TIP3   OH263622   3.265   4.010  12.404 -0.3871 -0.5181  0.4488
14044TIP3    H163623   3.284   3.920  12.376  0.2218 -0.4975  0.7758
14044TIP3    H263624   3.327   4.064  12.356  0.6072 -0.4745  1.7078
14045TIP3   OH263625   3.807   4.778  17.227 -0.1113  0.5936  0.0990
14045TIP3    H163626   3.775   4.857  17.185 -0.5328  0.3669 -0.0128
14045TIP3    H263627   3.859   4.809  17.301 -1.1111  0.9631  0.6649
14046TIP3   OH263628   2.621   3.130  12.801 -0.2721  0.3492 -0.3780
14046TIP3    H163629   2.607   3.048  12.754 -0.6184  0.9942 -1.4425
14046TIP3    H263630   2.715   3.144  12.798  0.0858 -1.1150  1.7893
14047TIP3   OH263631   4.478   5.101   2.511  1.2232 -0.1391 -0.3975
14047TIP3    H163632   4.417   5.166   2.547  1.2721 -0.0716 -0.4358
14047TIP3    H263633   4.565   5.136   2.531  1.2467 -0.6563  0.4116
14048TIP3   OH263634   6.019   3.832   4.273 -0.1056 -0.1353 -0.0701
14048TIP3    H163635   5.957   3.856   4.342 -0.0830  2.3130 -0.7901
14048TIP3    H263636   5.969   3.842   4.192  0.6127 -0.3600 -0.5457
14049TIP3   OH263637   3.722   5.943  13.920  0.2126  0.2281  0.1116
14049TIP3    H163638   3.721   5.960  13.825  1.0548 -0.4467 -0.0316
14049TIP3    H263639   3.766   5.859  13.928  0.3725  0.4067  1.1293
14050TIP3   OH263640   4.566   3.444   4.945 -0.1833  0.2536 -0.5335
14050TIP3    H163641   4.471   3.437   4.940 -0.1099 -1.2815 -0.3675
14050TIP3    H263642   4.594   3.459   4.855 -0.5078 -0.8547 -0.8398
14051TIP3   OH263643   6.352   5.518  12.024 -0.2843 -0.4415  1.2195
14051TIP3    H163644   6.413   5.490  11.956  0.4278 -0.9658  2.0524
14051TIP3    H263645   6.388   5.481  12.105 -0.2149  1.4867  2.1284
14052TIP3   OH263646   5.028   5.300   0.125  0.1370  0.6270 -0.3293
14052TIP3    H163647   5.054   5.328   0.213 -0.1011  0.7102 -0.2866
14052TIP3    H263648   5.015   5.206   0.132 -1.6229  0.8762  0.1567
14053TIP3   OH263649   5.969   0.412   2.002 -0.5087  0.7754  0.4302
14053TIP3    H163650   5.982   0.502   1.973 -1.1760  1.3346  1.8229
14053TIP3    H263651   5.878   0.408   2.029 -0.1006  0.0857  1.7730
14054TIP3   OH263652   5.712   2.025   1.177  0.0003  0.2133 -0.0816
14054TIP3    H163653   5.805   2.025   1.156 -0.1621 -0.8489 -0.9186
14054TIP3    H263654   5.698   2.106   1.225  1.2746  0.5870 -0.2989
14055TIP3   OH263655   2.099   4.564   1.499  0.3128 -0.2748  0.5032
14055TIP3    H163656   2.005   4.571   1.517 -0.0153  1.0733 -1.4304
14055TIP3    H263657   2.141   4.612   1.571 -0.5238 -0.2711  0.9946
14056TIP3   OH263658   1.740   6.639  13.190 -0.5331 -0.3181 -0.4151
14056TIP3    H163659   1.811   6.700  13.209  0.4876 -1.0538 -1.7234
14056TIP3    H263660   1.676   6.654  13.260  0.1389  1.5158 -0.1419
14057TIP3   OH263661   0.522   3.773   5.483  0.2445  0.0289  0.3092
14057TIP3    H163662   0.464   3.700   5.503  0.1704  0.0730  0.2564
14057TIP3    H263663   0.465   3.838   5.441  0.3472  0.0406  0.1860
14058TIP3   OH263664   0.782   2.682   2.167 -0.0822  0.1079 -0.1899
14058TIP3    H163665   0.772   2.659   2.075  2.1699 -0.0077 -0.4647
14058TIP3    H263666   0.817   2.770   2.167  0.1700  0.0168  0.5561
14059TIP3   OH263667   3.051   0.633  14.507  0.3468 -0.1331 -0.3540
14059TIP3    H163668   3.070   0.674  14.422  1.7355  1.4799  0.6761
14059TIP3    H263669   2.961   0.602  14.498 -0.5069  2.3620 -1.5678
14060TIP3   OH263670   1.012   2.521   3.456  0.3881 -0.1874 -0.1737
14060TIP3    H163671   1.046   2.555   3.539 -0.0543  0.8625 -0.4068
14060TIP3    H263672   1.036   2.428   3.457  2.4524  0.2883  0.0798
14061TIP3   OH263673   5.553   6.658  11.640  0.2103 -0.3621 -0.2115
14061TIP3    H163674   5.504   6.718  11.583  0.6274  0.5812  0.4082
14061TIP3    H263675   5.489   6.590  11.662  0.2878 -1.2854 -2.5247
14062TIP3   OH263676   3.225   3.334  11.183  0.1891  0.4092  0.0343
14062TIP3    H163677   3.278   3.398  11.135 -0.9019  1.1661 -0.2008
14062TIP3    H263678   3.226   3.365  11.273 -1.4052  1.5419 -0.2990
14063TIP3   OH263679   1.115   0.349  14.306  0.2170 -0.1246 -0.7181
14063TIP3    H163680   1.082   0.269  14.266 -1.6012  0.1933  0.0668
14063TIP3    H263681   1.128   0.326  14.398 -0.2107  0.4419 -0.5101
14064TIP3   OH263682   1.650   4.804  16.857 -0.0880 -0.0426  0.4416
14064TIP3    H163683   1.580   4.763  16.806 -1.0647  0.3698  1.4199
14064TIP3    H263684   1.608   4.829  16.939  0.7205  1.9650  0.2963
14065TIP3   OH263685   3.220   1.211   1.929 -0.3175  0.0942 -0.0616
14065TIP3    H163686   3.175   1.294   1.913 -0.2033 -0.2400 -2.5059
14065TIP3    H263687   3.181   1.178   2.010  1.3165  3.5783  2.3861
14066TIP3   OH263688   2.572   2.326   0.628  0.2900 -0.1242 -0.1140
14066TIP3    H163689   2.598   2.254   0.570 -0.7153 -0.2443 -0.4246
14066TIP3    H263690   2.535   2.392   0.570  1.0613  0.5981  0.1895
14067TIP3   OH263691   4.590   5.193   1.286 -0.2013  0.0439  0.3116
14067TIP3    H163692   4.655   5.129   1.316 -1.4344 -1.1823  0.4818
14067TIP3    H263693   4.639   5.252   1.230  0.6933 -2.1054 -1.3324
14068TIP3   OH263694   2.570   5.593  16.667  0.3739 -0.1887 -0.2281
14068TIP3    H163695   2.526   5.606  16.583 -0.6467 -0.6388  0.2124
14068TIP3    H263696   2.659   5.569  16.644  0.8688  2.2005 -1.1403
14069TIP3   OH263697   0.967   4.379   4.147 -0.1576 -0.6201  0.4574
14069TIP3    H163698   0.949   4.288   4.123  0.1078 -0.6049  0.1944
14069TIP3    H263699   1.061   4.389   4.134 -0.0372 -0.5487  1.3038
14070TIP3   OH263700   5.919   6.436   2.431  0.2212  0.1611 -0.4152
14070TIP3    H163701   5.917   6.531   2.438  0.9775  0.1407  0.1468
14070TIP3    H263702   5.917   6.404   2.521  1.9723 -0.2955 -0.5083
14071TIP3   OH263703   1.720   4.018   0.974 -0.1945  0.0792  0.1040
14071TIP3    H163704   1.661   3.970   1.031 -1.6385  1.6739  0.0315
14071TIP3    H263705   1.718   3.971   0.891 -3.3447  1.3876 -0.6808
14072TIP3   OH263706   3.213   2.606  13.322 -0.0021  0.6674 -0.0661
14072TIP3    H163707   3.249   2.537  13.266  1.8236  0.2514  1.5076
14072TIP3    H263708   3.125   2.621  13.288 -0.0845 -1.7107 -1.1257
14073TIP3   OH263709   3.178   5.212  11.217 -0.7200 -0.5498 -0.4184
14073TIP3    H163710   3.268   5.244  11.221 -0.5341 -1.1997  0.9994
14073TIP3    H263711   3.186   5.117  11.222 -1.4728 -0.6360 -0.6905
14074TIP3   OH263712   6.200   0.008  11.624  0.0698  0.4048  0.2174
14074TIP3    H163713   6.248   0.063  11.562 -0.6704  0.7116 -0.0978
14074TIP3    H263714   6.197  -0.078  11.582  0.1834  0.4302  0.1564
14075TIP3   OH263715   3.240   4.713  16.552  0.0828  0.3290  0.1776
14075TIP3    H163716   3.293   4.681  16.480  1.6705  0.8793  1.0421
14075TIP3    H263717   3.207   4.798  16.522 -0.1256  0.0776 -0.2990
14076TIP3   OH263718   6.295   4.573   0.889  0.0817  0.0671 -0.0561
14076TIP3    H163719   6.298   4.647   0.951  0.2946  0.9874 -1.1344
14076TIP3    H263720   6.361   4.512   0.922 -0.8273 -0.1602  1.4558
14077TIP3   OH263721   6.530   2.877   2.682  0.0478  0.4265  0.6326
14077TIP3    H163722   6.537   2.782   2.692 -1.2454  0.4059  1.6104
14077TIP3    H263723   6.560   2.912   2.766 -0.8550  0.8059  0.8055
14078TIP3   OH263724   6.078   2.407  11.288 -0.0030  0.1167 -0.3084
14078TIP3    H163725   6.080   2.319  11.325  0.3021  0.4611  0.5334
14078TIP3    H263726   6.009   2.452  11.337  1.1945  0.9302  0.7262
14079TIP3   OH263727   4.419   4.886  10.618  0.3259 -0.3303 -1.1077
14079TIP3    H163728   4.433   4.980  10.605 -1.2591 -0.0822 -1.2098
14079TIP3    H263729   4.324   4.877  10.626  0.5980 -1.4773  2.5765
14080TIP3   OH263730   1.516   0.397  14.721  0.5480 -0.0896  0.1257
14080TIP3    H163731   1.570   0.333  14.767  0.7300  0.1428  0.2401
14080TIP3    H263732   1.427   0.364  14.730  0.7164 -0.7238 -0.4723
14081TIP3   OH263733   1.192   0.006  13.426 -0.7406  0.1887 -0.1773
14081TIP3    H163734   1.232   0.083  13.387 -0.8477  2.4895  3.6844
14081TIP3    H263735   1.266  -0.047  13.457 -0.6418  0.7372  0.5461
14082TIP3   OH263736   2.176   4.507   0.651 -0.3211 -0.4820  0.7606
14082TIP3    H163737   2.228   4.541   0.578  0.2108  1.8524  2.1358
14082TIP3    H263738   2.097   4.472   0.610  1.0741 -1.6358 -1.1281
14083TIP3   OH263739   5.394   0.127  11.523 -0.8049 -0.6290 -0.1732
14083TIP3    H163740   5.330   0.120  11.452  0.2725 -0.2298 -1.2212
14083TIP3    H263741   5.474   0.090  11.486  0.4491  1.7988 -0.0619
14084TIP3   OH263742   6.104   0.837   4.678 -1.3167  0.1748 -0.6108
14084TIP3    H163743   6.042   0.781   4.724 -0.9309 -2.6985 -3.2604
14084TIP3    H263744   6.053   0.877   4.608 -1.0917  1.4143 -0.0935
14085TIP3   OH263745   2.449   6.443   3.680  0.4885 -0.6398  0.0330
14085TIP3    H163746   2.385   6.394   3.629  1.3287 -0.2845 -1.4058
14085TIP3    H263747   2.513   6.377   3.708 -0.0413 -0.8558  0.7454
14086TIP3   OH263748   2.598   5.891  17.260 -0.3581 -0.5444  0.5104
14086TIP3    H163749   2.527   5.954  17.246 -0.0926  0.0190  1.5242
14086TIP3    H263750   2.665   5.917  17.197  0.2756  1.0679  1.7504
14087TIP3   OH263751   5.983   1.886  16.182  0.1646  0.2638 -0.0746
14087TIP3    H163752   6.075   1.870  16.160  0.6924  1.1804  1.3585
14087TIP3    H263753   5.955   1.806  16.226  0.6852  0.4870  0.6842
14088TIP3   OH263754   2.174   6.788  15.512 -0.1545  0.2297 -0.1609
14088TIP3    H163755   2.246   6.820  15.567 -0.8362  1.1660  0.2151
14088TIP3    H263756   2.109   6.755  15.574  0.1393 -1.0591 -0.5142
14089TIP3   OH263757   5.905   6.299  13.306 -0.0762 -0.0988  0.3227
14089TIP3    H163758   5.962   6.341  13.241 -2.1663  0.8049 -1.0240
14089TIP3    H263759   5.903   6.207  13.279  1.8176 -0.4494  1.2450
14090TIP3   OH263760   2.703   0.688   3.237  0.1075  0.2533  0.9541
14090TIP3    H163761   2.723   0.642   3.155  0.7239  2.5410 -0.2390
14090TIP3    H263762   2.619   0.731   3.220 -0.2555 -0.0382  1.9197
14091TIP3   OH263763   3.386   1.616  15.051 -0.0777 -0.2326 -0.0577
14091TIP3    H163764   3.343   1.700  15.035 -0.7759 -0.5067  0.3611
14091TIP3    H263765   3.337   1.576  15.123  0.5028 -0.8206  0.0261
14092TIP3   OH263766   1.619   3.744   2.889 -0.5497  0.1974 -0.0022
14092TIP3    H163767   1.679   3.819   2.886  0.0184 -0.2736 -2.1732
14092TIP3    H263768   1.534   3.780   2.866  0.0716 -0.0278 -3.0793
14093TIP3   OH263769   5.482   1.689   5.404 -0.4263 -0.0596  0.0732
14093TIP3    H163770   5.389   1.682   5.426  0.0470 -2.7093  1.6844
14093TIP3    H263771   5.501   1.783   5.410 -3.3582  0.8513 -2.2892
14094TIP3   OH263772   2.003   4.514   5.563  0.4100 -0.4715  0.0672
14094TIP3    H163773   1.960   4.594   5.592  0.2082 -0.0687 -1.3018
14094TIP3    H263774   1.945   4.444   5.593 -0.7044  0.0186 -0.8710
14095TIP3   OH263775   5.531   6.579  14.202  0.1556  0.8684  0.3696
14095TIP3    H163776   5.507   6.602  14.292 -1.0204 -0.6485  0.4941
14095TIP3    H263777   5.447   6.561  14.160  0.7712  0.5712 -0.7462
14096TIP3   OH263778   2.873   6.262   2.989  0.0435 -0.0285 -0.1525
14096TIP3    H163779   2.886   6.304   3.075  2.1560  3.0152 -1.7648
14096TIP3    H263780   2.959   6.228   2.965 -0.8269 -2.0960 -0.5611
14097TIP3   OH263781   1.872   4.445  12.275  0.6636  0.0623 -0.0231
14097TIP3    H163782   1.854   4.476  12.186  0.6051 -1.3591 -0.5241
14097TIP3    H263783   1.878   4.350  12.267 -0.9074 -0.2431  1.7620
14098TIP3   OH263784   6.664   0.687  15.669  0.5712  0.7709  0.2049
14098TIP3    H163785   6.652   0.604  15.623 -0.2974  0.9318  0.1321
14098TIP3    H263786   6.629   0.672  15.756 -0.1059  1.2258  0.0174
14099TIP3   OH263787   1.648   0.254   1.394  0.9505 -0.0900  0.5889
14099TIP3    H163788   1.718   0.299   1.348 -0.0975  0.4590 -0.5226
14099TIP3    H263789   1.637   0.172   1.346  0.5128  0.0435  0.4566
14100TIP3   OH263790   2.233   1.806  16.579 -0.0669  0.5108  0.0377
14100TIP3    H163791   2.308   1.757  16.544  0.2555  0.2603  1.0303
14100TIP3    H263792   2.174   1.738  16.611 -1.2893  0.6597 -1.7899
14101TIP3   OH263793   1.000   6.059   0.429  0.1197  0.4028 -0.5176
14101TIP3    H163794   1.014   6.065   0.524  0.5019  1.4420 -0.6326
14101TIP3    H263795   0.938   6.130   0.410 -0.0919  0.0839 -1.0264
14102TIP3   OH263796   1.200   0.647  16.274  0.5325  0.1356  0.4147
14102TIP3    H163797   1.108   0.652  16.246  0.0404  0.2545  1.9463
14102TIP3    H263798   1.196   0.610  16.362  2.0563 -0.8215  0.1178
14103TIP3   OH263799   2.553   6.438  14.635 -0.0204 -0.1953 -0.2633
14103TIP3    H163800   2.573   6.348  14.608  0.4848  0.1340 -1.0219
14103TIP3    H263801   2.505   6.475  14.562  1.3137  0.6913 -0.7258
14104TIP3   OH263802   0.149   2.077  16.151  0.0966 -0.3252 -0.3472
14104TIP3    H163803   0.214   2.008  16.168  2.1147  1.4412 -0.4762
14104TIP3    H263804   0.074   2.030  16.113  0.7589 -2.6109  0.9664
14105TIP3   OH263805   2.977   3.144   4.669 -0.1515  0.2923  0.1773
14105TIP3    H163806   2.998   3.161   4.577  0.8745  1.7869  0.6467
14105TIP3    H263807   3.018   3.216   4.717 -0.1431 -0.7801  1.8761
14106TIP3   OH263808   6.216   3.730  15.668  0.4081  0.1265 -0.7419
14106TIP3    H163809   6.221   3.703  15.759  0.0085 -0.6829 -0.9475
14106TIP3    H263810   6.258   3.816  15.666 -0.0870  0.4070  0.2986
14107TIP3   OH263811   4.105   5.471   2.141  0.4925  0.3113  0.6387
14107TIP3    H163812   4.074   5.396   2.091  2.0038  1.0488 -1.5334
14107TIP3    H263813   4.030   5.531   2.143  0.1302 -0.1142  0.0613
14108TIP3   OH263814   2.803   6.684  16.411  0.3998 -0.4503  0.3231
14108TIP3    H163815   2.806   6.648  16.322 -1.2789 -0.5666  0.2901
14108TIP3    H263816   2.713   6.669  16.440  0.4377  1.1595  1.3932
14109TIP3   OH263817   6.404   3.297  13.409  0.1422  0.7132 -0.2898
14109TIP3    H163818   6.309   3.308  13.403  0.2208  1.3282 -0.4676
14109TIP3    H263819   6.429   3.254  13.327 -0.3062 -1.9822  0.8589
14110TIP3   OH263820   6.545   3.158  12.647 -0.1044 -0.6042 -0.4927
14110TIP3    H163821   6.637   3.183  12.648 -0.4921  0.9555 -0.2171
14110TIP3    H263822   6.527   3.132  12.557  0.2508  0.6066 -0.9294
14111TIP3   OH263823   0.932   1.899   4.991  0.3581  0.1832  0.4423
14111TIP3    H163824   0.953   1.818   5.037  0.6461 -0.7941 -1.3300
14111TIP3    H263825   0.856   1.934   5.037  0.1913 -1.1237  1.2086
14112TIP3   OH263826   6.389   6.772   0.640 -0.0711 -0.3186 -0.0096
14112TIP3    H163827   6.403   6.712   0.713  1.9514 -0.8917 -0.7944
14112TIP3    H263828   6.455   6.840   0.651  0.9133 -0.9165 -1.7418
14113TIP3   OH263829   4.966   2.587   5.509  0.3833  0.5999 -0.3108
14113TIP3    H163830   4.899   2.568   5.574  0.9322  1.5066  0.5322
14113TIP3    H263831   5.036   2.524   5.527  0.2724  0.4454 -0.4212
14114TIP3   OH263832   0.422   2.422   3.735 -0.4724 -0.3030 -0.2329
14114TIP3    H163833   0.399   2.386   3.821 -0.0838  0.9586  0.4272
14114TIP3    H263834   0.382   2.509   3.735 -0.6102 -0.3623 -1.4102
14115TIP3   OH263835   6.021   2.292  13.781  0.6368  0.4402  0.0044
14115TIP3    H163836   5.931   2.323  13.781  0.6421  0.4670  0.4028
14115TIP3    H263837   6.058   2.326  13.863  0.9441  0.2491 -0.0507
14116TIP3   OH263838   1.868   5.960  14.742  0.4915  0.1432  0.4869
14116TIP3    H163839   1.860   5.976  14.836  0.2803  0.7304  0.3743
14116TIP3    H263840   1.956   5.992  14.720  0.3850  0.3779  0.4087
14117TIP3   OH263841   1.139   5.020   5.178 -0.1884  0.4049  0.7695
14117TIP3    H163842   1.209   4.976   5.225 -0.8152 -0.5047  0.8739
14117TIP3    H263843   1.133   4.973   5.095 -0.1836  0.9539  0.4524
14118TIP3   OH263844   4.989   2.344  16.214  0.1734  0.0045 -0.1111
14118TIP3    H163845   5.024   2.419  16.166 -0.8843 -1.0791 -2.7301
14118TIP3    H263846   5.060   2.280  16.214  0.3694  0.2102  0.3524
14119TIP3   OH263847   3.644   3.995   1.632 -0.1630 -0.3109 -0.0703
14119TIP3    H163848   3.654   3.904   1.660  1.2044  0.2722  1.5201
14119TIP3    H263849   3.683   3.997   1.544 -0.3064 -1.2728 -0.1663
14120TIP3   OH263850   2.400   2.735   5.477  0.0457 -0.2867 -0.6412
14120TIP3    H163851   2.435   2.767   5.560  1.0924  0.3696 -1.3083
14120TIP3    H263852   2.422   2.804   5.414 -2.8654  0.3954 -1.0662
14121TIP3   OH263853   6.600   0.978   2.135 -0.5162  0.0996  0.3200
14121TIP3    H163854   6.514   1.018   2.145 -0.0164  1.0483  0.9218
14121TIP3    H263855   6.660   1.052   2.124  0.5598 -0.4108  2.4025
14122TIP3   OH263856   3.154   0.186   6.577  0.1987  0.0178 -0.1687
14122TIP3    H163857   3.130   0.108   6.527 -2.1386 -0.2157  1.2014
14122TIP3    H263858   3.247   0.199   6.557  0.1563 -1.9128 -1.9958
14123TIP3   OH263859   1.388   4.581  12.507 -0.2365 -0.0169  0.1772
14123TIP3    H163860   1.339   4.527  12.569 -0.3344 -0.1656 -0.0293
14123TIP3    H263861   1.366   4.545  12.421  2.0709 -1.6491  0.1683
14124TIP3   OH263862   0.644   0.624   1.802  0.1314  0.0000 -0.4234
14124TIP3    H163863   0.697   0.554   1.840 -0.3258 -1.4933 -2.3828
14124TIP3    H263864   0.693   0.652   1.724 -0.4384  0.8106 -0.5059
14125TIP3   OH263865   0.980   3.728  14.647  0.4752  0.1836 -0.2167
14125TIP3    H163866   1.046   3.797  14.643  0.3054  0.3766  0.2113
14125TIP3    H263867   0.985   3.694  14.736 -0.1933  0.3954 -0.0900
14126TIP3   OH263868   3.867   3.068  14.208 -0.2603  0.1346  0.6664
14126TIP3    H163869   3.870   2.977  14.238  1.0132 -0.3074 -0.6959
14126TIP3    H263870   3.810   3.066  14.131  1.4419  0.0496 -0.6410
14127TIP3   OH263871   4.859   6.781  12.787 -0.4058 -0.0809 -0.1170
14127TIP3    H163872   4.768   6.809  12.779 -1.3840 -2.6793  0.7448
14127TIP3    H263873   4.897   6.843  12.850 -1.6223  0.9138 -0.3107
14128TIP3   OH263874   1.574   5.049  12.153  0.0388 -0.1051 -0.4610
14128TIP3    H163875   1.540   5.122  12.204  1.1242  0.0237  0.1257
14128TIP3    H263876   1.607   4.987  12.219  0.5324 -0.4006 -0.9726
14129TIP3   OH263877   2.281   6.170   3.816  0.0297  0.2038 -0.0704
14129TIP3    H163878   2.309   6.262   3.813 -0.5994  0.3803 -0.9853
14129TIP3    H263879   2.209   6.168   3.878 -0.1393  0.3907 -0.2568
14130TIP3   OH263880   0.480   2.923   2.680 -0.1686  0.1531  0.1076
14130TIP3    H163881   0.389   2.893   2.681 -0.8502  2.0577 -0.5693
14130TIP3    H263882   0.486   2.979   2.602  1.2029  1.1619  0.8904
14131TIP3   OH263883   0.543   0.038  16.556  0.0777  0.1894  0.0670
14131TIP3    H163884   0.590  -0.026  16.502  0.0258  0.8738 -0.8110
14131TIP3    H263885   0.475  -0.013  16.599 -0.9007 -0.1328 -1.7485
14132TIP3   OH263886   5.352   0.144  15.804 -0.2470  0.2547  0.0525
14132TIP3    H163887   5.439   0.112  15.781 -0.5387 -0.1170 -0.5540
14132TIP3    H263888   5.349   0.233  15.771 -0.9530 -0.5286 -2.2036
14133TIP3   OH263889   6.494   1.326  11.823  0.6936 -0.2521 -0.2163
14133TIP3    H163890   6.571   1.276  11.852  0.9193  0.6032  0.7295
14133TIP3    H263891   6.485   1.395  11.889 -0.8878 -0.3366 -0.3180
14134TIP3   OH263892   0.905   6.492  10.681 -0.1632  0.0831  0.4876
14134TIP3    H163893   0.974   6.552  10.654 -1.2460  1.6032  0.9639
14134TIP3    H263894   0.833   6.508  10.619 -1.2651  0.9014  1.8988
14135TIP3   OH263895   5.896   6.218  12.986  0.0416 -0.2769 -0.4386
14135TIP3    H163896   5.952   6.248  13.058  0.1124  0.1003 -0.6450
14135TIP3    H263897   5.813   6.197  13.027  0.4822 -1.3249 -0.0499
14136TIP3   OH263898   2.072   4.763   0.201  0.2771  0.6629 -0.0370
14136TIP3    H163899   2.081   4.729   0.112 -1.8769  3.1086 -1.3509
14136TIP3    H263900   2.115   4.849   0.199  0.6117  0.5548  1.4296
14137TIP3   OH263901   2.971   3.655  14.288 -0.3625  0.6816  0.4713
14137TIP3    H163902   3.062   3.642  14.315 -0.9884  0.7816  2.8524
14137TIP3    H263903   2.961   3.750  14.285  0.1768  0.7071 -2.0501
14138TIP3   OH263904   6.752   0.175   5.823  0.1341  0.0907  0.4758
14138TIP3    H163905   6.777   0.082   5.819 -0.8552 -0.1574 -0.3636
14138TIP3    H263906   6.829   0.218   5.860  1.8618 -0.6452 -1.9440
14139TIP3   OH263907   3.488   2.526  16.432  0.4460  0.0761 -0.5838
14139TIP3    H163908   3.404   2.504  16.392  0.4418  0.4272 -0.7744
14139TIP3    H263909   3.468   2.600  16.490  0.4340 -0.4913  0.1426
14140TIP3   OH263910   6.057   2.835   0.030 -0.2363  0.0149 -0.0175
14140TIP3    H163911   6.140   2.787   0.034  0.7404  1.5551 -0.7867
14140TIP3    H263912   6.021   2.814  -0.056  0.9665  1.7947 -1.0145
14141TIP3   OH263913   0.731   4.284  16.817 -0.4757  0.2265  0.1400
14141TIP3    H163914   0.645   4.307  16.781 -1.6761 -0.9503  2.1210
14141TIP3    H263915   0.720   4.197  16.854  0.6752  1.1773  3.0626
14142TIP3   OH263916   0.769   5.638   2.610  0.2647  0.5211 -0.5920
14142TIP3    H163917   0.844   5.629   2.552 -0.0598  1.5461 -1.1927
14142TIP3    H263918   0.755   5.550   2.645  0.9926  0.0689 -1.4000
14143TIP3   OH263919   6.188   1.697   1.430  0.8188  0.0638 -0.5497
14143TIP3    H163920   6.132   1.773   1.446 -2.1840 -2.2306  0.9696
14143TIP3    H263921   6.173   1.676   1.337 -0.2458 -0.0141 -0.3772
14144TIP3   OH263922   5.311   6.195  16.289  0.1576  0.2533 -0.1905
14144TIP3    H163923   5.339   6.158  16.205 -0.6598  1.6941 -1.1296
14144TIP3    H263924   5.271   6.121  16.335 -2.1954  0.0495 -2.3513
14145TIP3   OH263925   2.875   4.578  11.757 -0.4206 -0.0770  0.4398
14145TIP3    H163926   2.917   4.563  11.673 -1.1962 -0.7392  0.1587
14145TIP3    H263927   2.890   4.497  11.806  0.0409  0.3090  0.9583
14146TIP3   OH263928   6.216   0.885  14.710  0.1238  0.2239  0.0499
14146TIP3    H163929   6.142   0.842  14.754 -0.8906 -1.0680 -2.7064
14146TIP3    H263930   6.175   0.950  14.653  1.3152  1.1479  0.2199
14147TIP3   OH263931   6.451   5.490   6.174  0.2050  0.8975  0.2371
14147TIP3    H163932   6.381   5.542   6.134 -0.7728  0.1537  0.9182
14147TIP3    H263933   6.527   5.506   6.119 -0.4576  1.8498 -0.4443
14148TIP3   OH263934   3.599   4.614   5.437 -0.0804 -0.1239 -0.6593
14148TIP3    H163935   3.587   4.519   5.443 -1.2052  0.0286 -0.2754
14148TIP3    H263936   3.562   4.649   5.519  0.8442  0.6032 -0.5370
14149TIP3   OH263937   5.332   0.737  13.889 -0.5840  0.1006 -0.6659
14149TIP3    H163938   5.411   0.775  13.850 -0.9720  0.4056 -1.1641
14149TIP3    H263939   5.299   0.805  13.947 -2.0010  1.1009 -2.5259
14150TIP3   OH263940   5.659   5.318   1.659 -0.0312 -0.1641 -0.7562
14150TIP3    H163941   5.689   5.265   1.733  0.2843 -0.9141 -1.4132
14150TIP3    H263942   5.569   5.340   1.681  0.0711 -0.3578 -0.1275
14151TIP3   OH263943   0.575   6.409   2.471  0.0112  0.5154  0.4050
14151TIP3    H163944   0.543   6.328   2.433 -1.1863  1.5259 -0.8291
14151TIP3    H263945   0.666   6.415   2.442  0.2242 -0.5635  0.8344
14152TIP3   OH263946   3.347   0.694   1.220  0.1103 -0.3391  0.5469
14152TIP3    H163947   3.379   0.718   1.307  1.6866 -0.7162  0.1084
14152TIP3    H263948   3.425   0.665   1.173 -0.8941 -1.2518 -0.6303
14153TIP3   OH263949   0.781   3.047   2.367 -0.1335 -0.1735  0.0103
14153TIP3    H163950   0.876   3.063   2.374 -0.0886 -1.0119  2.5705
14153TIP3    H263951   0.755   3.023   2.456 -2.9816  1.0547 -0.4060
14154TIP3   OH263952   4.973   0.458  13.321  0.2766 -0.5801  0.1363
14154TIP3    H163953   4.909   0.497  13.380  0.4248 -0.5311  0.2673
14154TIP3    H263954   4.971   0.513  13.243  0.5631 -0.2414  0.3627
14155TIP3   OH263955   2.688   1.822  13.084 -0.0856  0.6587  0.1941
14155TIP3    H163956   2.747   1.769  13.031  0.3047  0.6744  0.6072
14155TIP3    H263957   2.678   1.904  13.034  0.0761  0.5766  0.0266
14156TIP3   OH263958   1.000   2.457   5.502  0.5984  0.0117 -0.3764
14156TIP3    H163959   1.012   2.365   5.477 -1.6271 -0.7578  1.1151
14156TIP3    H263960   0.938   2.491   5.437 -0.1436 -0.1424  0.2386
14157TIP3   OH263961   3.561   5.749   0.525 -0.0004 -0.0158  0.2737
14157TIP3    H163962   3.641   5.705   0.496  0.3244 -0.1107  1.2974
14157TIP3    H263963   3.563   5.834   0.480 -0.3022 -0.7452 -1.1972
14158TIP3   OH263964   5.178   4.171  14.883  0.5175 -0.0496  0.8574
14158TIP3    H163965   5.143   4.209  14.964  0.0261 -0.8802  1.0528
14158TIP3    H263966   5.259   4.129  14.910  1.8699  2.0936  0.3561
14159TIP3   OH263967   1.290   3.108  16.734 -0.4186 -0.1519 -0.2480
14159TIP3    H163968   1.319   3.034  16.681  0.4592 -0.1398  0.2048
14159TIP3    H263969   1.299   3.184  16.677  0.8128 -0.0960 -0.0104
14160TIP3   OH263970   5.712   0.581  17.112  0.6640 -0.7766  0.1789
14160TIP3    H163971   5.770   0.647  17.150  0.3303 -0.6298  0.4388
14160TIP3    H263972   5.705   0.604  17.020 -0.8863  0.6264  0.6107
14161TIP3   OH263973   2.076   5.186  15.285  0.3782  0.0561 -0.2922
14161TIP3    H163974   2.115   5.154  15.203  1.4768 -2.3764  1.0589
14161TIP3    H263975   2.035   5.269  15.261  3.1257  0.9115 -2.6915
14162TIP3   OH263976   4.157   3.020  16.047 -0.2418  0.2852  0.4633
14162TIP3    H163977   4.173   2.926  16.052 -2.7175 -0.2984 -0.9264
14162TIP3    H263978   4.071   3.031  16.086 -0.3725  1.8524 -0.2175
14163TIP3   OH263979   0.558   2.593  11.674 -0.5889 -0.3005  0.3842
14163TIP3    H163980   0.614   2.573  11.749 -1.6487 -1.6256  0.8745
14163TIP3    H263981   0.515   2.675  11.697  1.1037  0.7450 -0.0091
14164TIP3   OH263982   4.668   2.937   4.600  0.0141  0.6332  0.0922
14164TIP3    H163983   4.738   2.881   4.568  0.1345  0.6359  0.3523
14164TIP3    H263984   4.644   2.901   4.685 -1.5780 -0.4958 -0.7928
14165TIP3   OH263985   4.299   5.383  12.395  0.0261 -0.4627 -0.3353
14165TIP3    H163986   4.204   5.386  12.383  0.0060 -2.9839 -1.5889
14165TIP3    H263987   4.313   5.306  12.450  1.4215 -1.6029 -2.1680
14166TIP3   OH263988   4.783   2.488  13.396 -0.0847  0.0725  0.0169
14166TIP3    H163989   4.861   2.450  13.437  0.2114  0.0730 -0.5473
14166TIP3    H263990   4.714   2.476  13.462 -0.1885 -2.1340 -0.4124
14167TIP3   OH263991   0.478   2.321  12.997  0.3348  0.3453 -0.5103
14167TIP3    H163992   0.384   2.334  13.006  0.3529  1.3022 -1.5076
14167TIP3    H263993   0.494   2.320  12.902  1.6423  2.9214 -0.4116
14168TIP3   OH263994   2.660   2.882  14.945 -0.1645 -0.0776 -0.5370
14168TIP3    H163995   2.636   2.957  14.892  1.4337  0.0729 -1.1126
14168TIP3    H263996   2.586   2.868  15.004 -0.9892  1.1797 -1.2531
14169TIP3   OH263997   0.922   0.530  14.775 -0.2678  0.0009  0.2207
14169TIP3    H163998   0.929   0.534  14.680  1.9506  0.2662  0.3516
14169TIP3    H263999   0.843   0.478  14.791 -3.3862  3.5837 -1.7305
14170TIP3   OH264000   4.460   3.361   4.491  0.4102  0.3225 -0.1406
14170TIP3    H164001   4.509   3.327   4.566 -0.3182  0.6068  0.4677
14170TIP3    H264002   4.522   3.354   4.418  1.2174  0.2771  0.5265
14171TIP3   OH264003   0.158   2.885   3.753  0.7977 -0.5083 -0.2393
14171TIP3    H164004   0.135   2.874   3.661 -0.0307 -3.1860  0.1885
14171TIP3    H264005   0.074   2.893   3.798  1.2238  1.7934  0.2362
14172TIP3   OH264006   0.896   1.887   2.255  0.4227  0.4431  0.8331
14172TIP3    H164007   0.962   1.904   2.323 -1.1388 -1.1584  2.8978
14172TIP3    H264008   0.815   1.876   2.303 -0.5755 -1.9484 -1.1799
14173TIP3   OH264009   1.823   6.546  10.511 -0.5941 -0.1106  0.7099
14173TIP3    H164010   1.744   6.496  10.493 -0.0517 -0.8479  0.3037
14173TIP3    H264011   1.793   6.637  10.521 -1.4273 -0.3147  0.1494
14174TIP3   OH264012   4.106   4.633   5.655 -0.4325 -0.0924  0.0986
14174TIP3    H164013   4.197   4.650   5.680  0.2867 -0.8180 -1.8364
14174TIP3    H264014   4.070   4.583   5.728  0.6801  0.2825  0.9295
14175TIP3   OH264015   5.344   2.389  16.359  0.2692 -0.2512 -0.5328
14175TIP3    H164016   5.317   2.408  16.269  0.2011 -0.9229 -0.6577
14175TIP3    H264017   5.316   2.466  16.409 -0.2501 -0.1447 -0.9795
14176TIP3   OH264018   5.615   3.707   2.577  0.5797 -0.2619  0.2149
14176TIP3    H164019   5.562   3.677   2.650  2.3117 -0.2888  1.5149
14176TIP3    H264020   5.617   3.633   2.517 -2.0819  0.2627 -0.6655
14177TIP3   OH264021   3.134   1.961  12.847  0.8087 -0.1774  0.1939
14177TIP3    H164022   3.039   1.972  12.840  1.0564  1.5362 -1.6251
14177TIP3    H264023   3.148   1.913  12.928 -1.4915  1.7675  1.8733
14178TIP3   OH264024   2.044   1.005   2.738 -0.1612  0.3871  0.3230
14178TIP3    H164025   2.035   1.053   2.655  0.2361 -2.3908 -1.4879
14178TIP3    H264026   1.972   0.942   2.736  0.7814 -0.7508  1.3396
14179TIP3   OH264027   0.746   2.832  16.717 -0.7054 -0.1213  0.0734
14179TIP3    H164028   0.681   2.884  16.763 -0.7772 -2.9668  3.5997
14179TIP3    H264029   0.717   2.742  16.728  2.3336 -1.3220 -0.7735
14180TIP3   OH264030   0.306   4.159   0.488 -0.4438 -0.5460 -0.0940
14180TIP3    H164031   0.265   4.172   0.573 -1.0538 -0.4057 -0.4003
14180TIP3    H264032   0.252   4.092   0.446 -0.0189 -0.7721 -0.2889
14181TIP3   OH264033   1.602   4.843  14.038 -0.7696 -0.1229  0.0057
14181TIP3    H164034   1.669   4.824  14.104  0.3323  1.5596 -0.5487
14181TIP3    H264035   1.593   4.762  13.988 -1.1960 -1.2343  1.8202
14182TIP3   OH264036   2.100   2.496  17.175  0.2727 -0.5596  0.1091
14182TIP3    H164037   2.052   2.414  17.189  0.2236 -0.3329  1.3472
14182TIP3    H264038   2.192   2.470  17.181  0.2657 -0.5936  0.0761
14183TIP3   OH264039   6.553   1.380  13.133 -0.1661 -0.1488 -0.3504
14183TIP3    H164040   6.635   1.355  13.090  0.3188  0.0782  0.4297
14183TIP3    H264041   6.578   1.450  13.194 -0.5880 -1.3633  1.2840
14184TIP3   OH264042   0.013   3.099  13.502 -0.0294 -0.1633  0.2634
14184TIP3    H164043  -0.074   3.060  13.515  1.0314 -2.8552 -0.0862
14184TIP3    H264044   0.046   3.059  13.422  1.3220  1.2955  0.0388
14185TIP3   OH264045   5.300   4.781   5.656 -0.1757  0.2513 -0.0120
14185TIP3    H164046   5.258   4.726   5.590 -1.8692 -0.0155  1.2506
14185TIP3    H264047   5.296   4.869   5.619  0.4347 -0.1169 -1.0003
14186TIP3   OH264048   4.806   2.471  10.882 -0.3041  0.2870 -0.7001
14186TIP3    H164049   4.733   2.520  10.844 -1.6123  0.8043  2.1748
14186TIP3    H264050   4.826   2.518  10.963  0.2264 -2.3682  0.8089
14187TIP3   OH264051   3.521   0.802  15.440 -0.0424 -0.5690  0.4098
14187TIP3    H164052   3.608   0.763  15.426 -0.1763 -1.3150  1.5024
14187TIP3    H264053   3.460   0.729  15.428 -0.4147 -0.3561  0.9882
14188TIP3   OH264054   5.705   4.791  11.265  0.0627  0.2432  0.1814
14188TIP3    H164055   5.779   4.746  11.305 -0.1670  0.0312  0.3702
14188TIP3    H264056   5.743   4.870  11.227  1.0956 -1.5828 -3.0155
14189TIP3   OH264057   0.403   2.580  13.137 -0.1344 -0.0455  0.3520
14189TIP3    H164058   0.498   2.584  13.140 -0.1483 -0.2475  1.1758
14189TIP3    H264059   0.384   2.516  13.068  0.3007  0.8790 -0.6431
14190TIP3   OH264060   5.501   4.334   4.844 -0.4439  0.6509  0.0642
14190TIP3    H164061   5.439   4.357   4.913  0.2282  3.8715 -0.2708
14190TIP3    H264062   5.455   4.268   4.792 -2.7279  1.3471  1.0637
14191TIP3   OH264063   2.107   1.535   0.657  0.5323  0.1355  0.2807
14191TIP3    H164064   2.025   1.582   0.642  0.3442 -0.8820 -2.4013
14191TIP3    H264065   2.081   1.456   0.704 -0.0924 -0.3132 -0.7919
14192TIP3   OH264066   4.005   6.694  14.676 -0.0859 -0.5203 -0.4324
14192TIP3    H164067   3.967   6.673  14.591 -2.0512  0.0953  0.2305
14192TIP3    H264068   3.929   6.713  14.732  1.1817 -0.2414  1.2710
14193TIP3   OH264069   2.342   5.158  12.938 -0.2347 -0.0413 -0.3462
14193TIP3    H164070   2.301   5.244  12.940  0.0579  0.2100 -2.6525
14193TIP3    H264071   2.349   5.132  13.030 -2.9387  1.1238  0.2572
14194TIP3   OH264072   6.042   2.966   5.756 -0.3870 -0.2671 -0.4127
14194TIP3    H164073   6.090   3.002   5.830  0.8311  1.1676 -1.8331
14194TIP3    H264074   6.081   3.008   5.679 -1.6198 -1.6706 -1.8794
14195TIP3   OH264075   1.677   3.691   4.094  0.5179 -0.1216  0.2013
14195TIP3    H164076   1.617   3.658   4.027  2.2055 -0.1892 -1.3519
14195TIP3    H264077   1.645   3.778   4.115  0.1566  0.0357 -0.9595
14196TIP3   OH264078   3.099   2.362  11.936  0.2334  0.0388  0.3591
14196TIP3    H164079   3.186   2.350  11.974 -0.0322  0.7753  1.2476
14196TIP3    H264080   3.050   2.286  11.965  0.4643 -0.1788  0.1892
14197TIP3   OH264081   3.228   4.427  15.986  0.4245  0.0079  0.0290
14197TIP3    H164082   3.283   4.504  16.002 -0.7105  1.0617 -0.9374
14197TIP3    H264083   3.174   4.419  16.065 -0.5217  1.1676 -0.4640
14198TIP3   OH264084   2.216   2.046  11.575  0.1680  1.0659  0.1728
14198TIP3    H164085   2.214   2.094  11.658 -0.2067  0.9241  0.2504
14198TIP3    H264086   2.197   2.112  11.508  1.0867  1.3032  0.1315
14199TIP3   OH264087   6.389   2.635  15.462 -0.6963  0.0521  0.2319
14199TIP3    H164088   6.396   2.583  15.381 -1.5575 -0.8748  0.7303
14199TIP3    H264089   6.467   2.611  15.512  0.0968  0.9911 -0.4931
14200TIP3   OH264090   6.525   5.070  13.771 -0.0226 -0.2452 -0.2070
14200TIP3    H164091   6.542   4.980  13.743  0.9077 -0.1080 -0.1179
14200TIP3    H264092   6.517   5.064  13.866 -2.9538 -0.6742 -0.3762
14201TIP3   OH264093   2.352   3.274   6.690 -0.1138  0.5836  0.6009
14201TIP3    H164094   2.282   3.270   6.625 -0.0099  2.2715  0.3257
14201TIP3    H264095   2.311   3.242   6.771 -0.4906 -0.7146 -0.0757
14202TIP3   OH264096   5.128   0.979   2.059 -0.2588  0.3416  0.4806
14202TIP3    H164097   5.043   0.994   2.016 -0.6471 -0.4543  0.9375
14202TIP3    H264098   5.106   0.928   2.137  0.5298  1.0661  1.1936
14203TIP3   OH264099   4.348   1.671  12.377 -1.0832 -0.5681  0.3894
14203TIP3    H164100   4.258   1.662  12.343 -0.5352 -0.1023 -1.3188
14203TIP3    H264101   4.385   1.744  12.326  0.2278 -0.6827  1.1439
14204TIP3   OH264102   2.218   0.566  16.990 -0.2423 -0.2770 -0.3680
14204TIP3    H164103   2.265   0.484  16.971  0.3791  0.3664 -1.7113
14204TIP3    H264104   2.275   0.613  17.051  1.0425  0.6027 -2.1657
14205TIP3   OH264105   4.582   0.020   0.158  0.2993  0.8205 -0.6265
14205TIP3    H164106   4.666   0.020   0.204  0.6199 -0.6630 -1.1697
14205TIP3    H264107   4.563  -0.072   0.143 -0.7455  1.2022 -1.7643
14206TIP3   OH264108   0.434   0.169  16.329  0.2308  0.1101 -0.2181
14206TIP3    H164109   0.375   0.243  16.344  1.1414  0.9511 -0.7392
14206TIP3    H264110   0.491   0.168  16.406  2.0439  1.7241 -1.4418
14207TIP3   OH264111   1.970   0.177   4.480  0.3613  0.2466 -0.2450
14207TIP3    H164112   1.878   0.176   4.455  0.8698  0.2963 -2.2922
14207TIP3    H264113   1.969   0.170   4.575 -1.7715  0.9725 -0.1600
14208TIP3   OH264114   6.635   0.873  14.138 -0.0701  0.1396 -0.2426
14208TIP3    H164115   6.648   0.955  14.187 -3.2060  0.3566  0.4256
14208TIP3    H264116   6.634   0.805  14.206 -0.3529 -0.0841 -0.4718
14209TIP3   OH264117   4.619   5.868  13.676  0.0766  0.0430  0.2591
14209TIP3    H164118   4.540   5.826  13.711 -0.4560 -0.6046 -1.5637
14209TIP3    H264119   4.600   5.961  13.679 -0.3588 -0.0538  0.7222
14210TIP3   OH264120   1.842   5.904  16.983 -0.0891  0.2738  0.2447
14210TIP3    H164121   1.763   5.861  16.949 -0.5993  1.8712 -0.7192
14210TIP3    H264122   1.912   5.876  16.924 -0.4666  0.9337 -0.5362
14211TIP3   OH264123   6.048   5.482   2.879 -0.1901  0.3976 -0.3741
14211TIP3    H164124   6.046   5.425   2.802 -0.0989 -2.0903  1.3447
14211TIP3    H264125   6.118   5.545   2.861 -0.9270  0.6305 -2.7642
14212TIP3   OH264126   0.694   5.661  17.323 -0.0848  0.4823 -0.2052
14212TIP3    H164127   0.655   5.611  17.252  1.1710  2.5770 -2.5316
14212TIP3    H264128   0.775   5.614  17.344 -1.0885 -0.8636  0.8451
14213TIP3   OH264129   1.349   3.799   2.248 -0.1146 -0.5197 -0.4253
14213TIP3    H164130   1.347   3.891   2.220 -1.4836 -0.1443  0.7503
14213TIP3    H264131   1.441   3.776   2.248  0.2828  0.9322 -0.5374
14214TIP3   OH264132   6.686   0.347   0.715  0.0785 -0.2987  0.4696
14214TIP3    H164133   6.722   0.408   0.780 -0.5196 -0.8504  1.3418
14214TIP3    H264134   6.760   0.326   0.658  1.1818 -1.4515  2.2406
14215TIP3   OH264135   6.682   4.310  13.966 -0.6460  0.7157  0.3206
14215TIP3    H164136   6.765   4.353  13.946 -0.4067  0.5534  0.9263
14215TIP3    H264137   6.678   4.235  13.907 -1.0563  1.5422 -0.7273
14216TIP3   OH264138   5.258   2.871  11.581 -0.0460 -0.2250 -0.0319
14216TIP3    H164139   5.164   2.888  11.572 -0.4969 -2.3633  0.0772
14216TIP3    H264140   5.278   2.898  11.671 -1.0160 -1.5294  0.6093
14217TIP3   OH264141   4.040   3.958  16.733 -0.0725 -0.4983 -0.2993
14217TIP3    H164142   3.952   3.951  16.696 -0.0708 -0.3566 -0.3328
14217TIP3    H264143   4.028   3.946  16.827 -0.1115 -0.6034 -0.3184
14218TIP3   OH264144   5.129   2.387   3.765 -0.3700 -0.2194  0.0562
14218TIP3    H164145   5.062   2.331   3.803  0.4162 -0.8731  0.5095
14218TIP3    H264146   5.147   2.347   3.679  0.3457 -0.8086  0.4695
14219TIP3   OH264147   2.646   5.206   5.982  0.5264  0.6607  0.1233
14219TIP3    H164148   2.602   5.261   6.048  1.3822  0.5794  0.7894
14219TIP3    H264149   2.583   5.199   5.910 -0.4699  0.6957  0.9628
14220TIP3   OH264150   0.235   3.631  14.143 -0.1913  0.4270  0.5943
14220TIP3    H164151   0.249   3.543  14.110  0.4533  0.9335 -0.5501
14220TIP3    H264152   0.314   3.651  14.194  0.4205  0.9282 -0.5178
14221TIP3   OH264153   4.514   2.452  14.958  0.4806 -0.4104 -0.2697
14221TIP3    H164154   4.442   2.425  14.901 -0.4447 -0.9237  1.1073
14221TIP3    H264155   4.474   2.463  15.044  1.8370  0.4238  0.2834
14222TIP3   OH264156   6.070   4.854   5.542  0.2442  0.5254 -0.2916
14222TIP3    H164157   6.165   4.862   5.537  0.6414 -1.2263  2.2529
14222TIP3    H264158   6.044   4.917   5.609 -0.5801  1.8291 -1.8008
14223TIP3   OH264159   1.753   5.704   2.037  0.7111 -0.5481  0.1304
14223TIP3    H164160   1.657   5.703   2.040  0.6547  1.8144  1.6262
14223TIP3    H264161   1.774   5.732   1.948  0.0749 -1.8045 -0.4476
14224TIP3   OH264162   2.753   6.211  11.536 -1.0348  0.3482  0.8372
14224TIP3    H164163   2.774   6.117  11.528 -2.4010  0.1127 -0.4998
14224TIP3    H264164   2.658   6.213  11.540 -1.0069  1.6888  1.0589
14225TIP3   OH264165   5.054   1.088  16.067  0.5893 -0.0284  0.0352
14225TIP3    H164166   5.126   1.057  16.122  0.4566 -0.1921  0.1189
14225TIP3    H264167   4.998   1.138  16.127 -1.0018 -2.4425  0.7089
14226TIP3   OH264168   2.211   4.683   1.708  0.5687  0.5603 -0.6735
14226TIP3    H164169   2.223   4.778   1.718  1.1645  0.3608  0.8080
14226TIP3    H264170   2.279   4.645   1.764 -1.4676 -0.7172  1.0867
14227TIP3   OH264171   1.673   2.324  13.470  0.5322 -0.0318  0.1724
14227TIP3    H164172   1.700   2.403  13.516  1.5921  0.4346 -1.1829
14227TIP3    H264173   1.607   2.284  13.527 -0.2961  2.0016  0.7048
14228TIP3   OH264174   4.117   2.479  13.953 -0.5970 -0.3552  0.2083
14228TIP3    H164175   4.202   2.520  13.968 -0.8816  0.7324 -1.0031
14228TIP3    H264176   4.127   2.390  13.985  1.9622 -1.2176 -2.5510
14229TIP3   OH264177   2.947   6.470  16.693  0.0177  0.0726  0.0726
14229TIP3    H164178   3.007   6.513  16.754 -0.5775 -0.0807  0.7696
14229TIP3    H264179   2.878   6.534  16.678  0.1158  0.0778 -0.3844
14230TIP3   OH264180   1.009   1.859  10.977  0.1127 -0.4570 -0.2536
14230TIP3    H164181   0.974   1.805  10.906 -1.2536 -0.8159  0.6553
14230TIP3    H264182   0.967   1.825  11.056 -1.0447  2.1082  0.3312
14231TIP3   OH264183   0.573   5.779   4.856 -0.1496 -0.4524 -0.6547
14231TIP3    H164184   0.620   5.699   4.836  0.3160 -1.3531  3.2263
14231TIP3    H264185   0.630   5.849   4.823  0.3335 -1.6092 -2.4185
14232TIP3   OH264186   5.658   2.438   1.358 -0.4014  0.0077 -0.9565
14232TIP3    H164187   5.590   2.371   1.370  0.1000 -0.2713  0.6074
14232TIP3    H264188   5.614   2.521   1.378 -0.6170 -0.0293 -1.2766
14233TIP3   OH264189   4.612   1.781  13.930 -0.2934 -0.0161  0.4110
14233TIP3    H164190   4.695   1.734  13.930 -0.1481  0.1673 -1.2213
14233TIP3    H264191   4.554   1.728  13.984  0.6519 -0.5869  0.8909
14234TIP3   OH264192   1.147   1.426   1.184  0.1709  0.1276  0.1430
14234TIP3    H164193   1.124   1.499   1.126 -0.9670 -0.1229  0.2423
14234TIP3    H264194   1.126   1.348   1.133 -0.8007 -0.0974  0.8437
14235TIP3   OH264195   0.319   3.550   5.515  1.1470 -0.3090  0.5255
14235TIP3    H164196   0.301   3.485   5.448 -1.4636  0.7081  0.0888
14235TIP3    H264197   0.282   3.513   5.595  0.0861  0.3714  0.3759
14236TIP3   OH264198   5.016   0.680   5.833  0.0929 -0.0284 -0.3346
14236TIP3    H164199   4.994   0.646   5.747 -0.4652 -0.5031 -0.0131
14236TIP3    H264200   4.952   0.750   5.848  0.8269  0.7429 -0.7211
14237TIP3   OH264201   6.546   4.951   4.980  0.1295 -0.2388 -0.2336
14237TIP3    H164202   6.570   4.949   5.073  0.3804 -0.9620 -0.3137
14237TIP3    H264203   6.472   4.890   4.973  0.5872 -0.7493 -0.6426
14238TIP3   OH264204   6.128   4.613  17.143  0.7629  0.2097 -0.7215
14238TIP3    H164205   6.076   4.567  17.077  0.6203 -0.0146 -0.4605
14238TIP3    H264206   6.064   4.640  17.209  1.1660 -1.7852  0.6042
14239TIP3   OH264207   2.084   5.467  15.590 -0.8982 -0.5868  0.0058
14239TIP3    H164208   2.179   5.466  15.603 -0.9551 -2.7769  0.7117
14239TIP3    H264209   2.049   5.494  15.675 -0.9291  0.2243 -0.2553
14240TIP3   OH264210   3.732   5.172  12.057 -0.0258  0.0466  0.1895
14240TIP3    H164211   3.700   5.252  12.016  2.9459  1.7090  0.7891
14240TIP3    H264212   3.776   5.125  11.986  2.3173  1.3554  0.6684
14241TIP3   OH264213   1.064   2.157   4.969  0.2509 -0.6739 -0.0505
14241TIP3    H164214   1.061   2.134   4.876 -1.1447 -2.0114  0.2844
14241TIP3    H264215   1.014   2.089   5.012 -0.4290  0.7585  1.5374
14242TIP3   OH264216   6.747   5.644  12.425  0.0897  0.1215 -0.5189
14242TIP3    H164217   6.730   5.660  12.517  2.1411 -1.4396  0.2198
14242TIP3    H264218   6.661   5.641  12.384 -0.9783 -0.8180  1.6636
14243TIP3   OH264219   6.492   0.646   0.845 -0.1423  0.3517 -0.7752
14243TIP3    H164220   6.431   0.720   0.848 -0.4380  0.0725  0.5955
14243TIP3    H264221   6.561   0.670   0.906  0.5362  0.1456 -1.4537
14244TIP3   OH264222   5.489   2.523  12.910  0.1334  0.0670 -0.5099
14244TIP3    H164223   5.397   2.503  12.889  0.1312  0.1157 -0.5460
14244TIP3    H264224   5.539   2.454  12.867  0.0893 -0.1604 -0.1966
14245TIP3   OH264225   2.647   3.281   4.659 -0.0335  0.2444  0.3699
14245TIP3    H164226   2.727   3.236   4.630  0.3382  0.7245  0.6446
14245TIP3    H264227   2.601   3.302   4.578 -0.1825 -0.5642  0.2309
14246TIP3   OH264228   2.244   2.189  11.319 -0.0789 -0.2582 -0.1805
14246TIP3    H164229   2.148   2.190  11.317 -0.1283 -1.5996  0.4371
14246TIP3    H264230   2.270   2.273  11.280 -1.5234  0.9310  1.2491
14247TIP3   OH264231   1.307   0.709  15.757 -0.6017  0.0095 -0.2730
14247TIP3    H164232   1.382   0.726  15.700 -1.1896 -0.3041 -1.1713
14247TIP3    H264233   1.261   0.793  15.762  0.8737  0.7541  1.9427
14248TIP3   OH264234   2.714   2.344  15.770  0.3266 -0.0365 -0.4787
14248TIP3    H164235   2.805   2.314  15.780  0.1282  0.0060  2.2484
14248TIP3    H264236   2.674   2.278  15.713  1.6958 -0.8840 -0.5262
14249TIP3   OH264237   6.286   5.668  12.484  0.3380 -0.0423  0.1721
14249TIP3    H164238   6.284   5.573  12.495  0.7358 -0.2944 -1.6301
14249TIP3    H264239   6.374   5.686  12.452  0.3480  0.9769  0.7419
14250TIP3   OH264240   1.021   6.677   4.972  0.0023 -0.0196  0.2204
14250TIP3    H164241   1.061   6.610   4.917  0.4593 -1.5510  2.2778
14250TIP3    H264242   0.939   6.638   5.002 -1.0381  1.4262 -0.6043
14251TIP3   OH264243   4.073   0.385  11.969  0.2920  0.1086 -0.4551
14251TIP3    H164244   3.995   0.420  12.012  0.4666  1.1856 -0.9922
14251TIP3    H264245   4.078   0.294  11.999 -1.5989 -0.2159 -1.0274
14252TIP3   OH264246   3.273   3.321  14.846 -0.1841  0.2864 -0.0125
14252TIP3    H164247   3.232   3.395  14.891 -1.3770  0.2896 -1.0244
14252TIP3    H264248   3.349   3.299  14.899 -0.9510  0.9353  1.4094
14253TIP3   OH264249   3.556   3.325   3.651 -0.5262 -0.2093  0.0509
14253TIP3    H164250   3.476   3.326   3.704  2.0652  0.9394  4.5340
14253TIP3    H264251   3.569   3.417   3.627 -1.2656 -0.6200 -2.1872
14254TIP3   OH264252   4.925   3.266   3.030 -0.7260 -0.0753 -0.4347
14254TIP3    H164253   4.940   3.274   2.936  0.4168 -0.3982 -0.2913
14254TIP3    H264254   5.007   3.294   3.070 -0.6907 -1.2999  0.4221
14255TIP3   OH264255   0.305   6.453  11.099  0.2612  0.3815  0.2834
14255TIP3    H164256   0.286   6.474  11.008 -2.0294  1.3725  0.9307
14255TIP3    H264257   0.382   6.506  11.120  1.2211 -0.3520 -1.2094
14256TIP3   OH264258   5.404   6.765  14.501  0.5496 -0.2062 -0.3920
14256TIP3    H164259   5.431   6.825  14.570  0.2111 -1.5073  0.9307
14256TIP3    H264260   5.320   6.799  14.471  0.0663 -0.3307  0.7699
14257TIP3   OH264261   5.866   2.816   5.440  0.4076  0.0657  0.3704
14257TIP3    H164262   5.937   2.869   5.403 -0.1626  1.3351  1.0091
14257TIP3    H264263   5.805   2.881   5.475  0.1483 -1.0461  2.0817
14258TIP3   OH264264   2.453   4.083   1.595 -0.0375  0.0609 -0.6639
14258TIP3    H164265   2.409   4.164   1.570  0.3211 -0.2548 -2.4214
14258TIP3    H264266   2.403   4.050   1.669 -0.6033  1.5252 -0.3656
14259TIP3   OH264267   0.082   0.057  16.523 -0.2963 -0.2671 -0.4531
14259TIP3    H164268   0.154   0.044  16.584  0.2222 -0.3830 -1.0799
14259TIP3    H264269   0.021   0.115  16.569  1.3387  1.8526 -0.8337
14260TIP3   OH264270   2.606   4.616  13.955  0.3040  0.3143  0.4074
14260TIP3    H164271   2.558   4.671  14.017  1.0374  2.4032 -0.7825
14260TIP3    H264272   2.684   4.667  13.933  2.2883 -2.2645  1.0199
14261TIP3   OH264273   1.069   1.119  15.143  0.5332 -0.0473  0.0022
14261TIP3    H164274   1.058   1.062  15.066  0.7239  0.9354 -0.7693
14261TIP3    H264275   1.010   1.192  15.128  0.7622  0.2826  0.6689
14262TIP3   OH264276   6.079   0.584  12.610 -0.3742 -0.7777 -0.0719
14262TIP3    H164277   6.125   0.663  12.582  0.0807 -1.2960 -0.8495
14262TIP3    H264278   5.998   0.584  12.558 -0.6207 -0.5563  0.3109
14263TIP3   OH264279   0.459   2.157   3.965  0.2772 -0.2203 -0.7404
14263TIP3    H164280   0.499   2.224   4.020 -3.3385  1.5504  0.0681
14263TIP3    H264281   0.466   2.076   4.016 -1.0475  0.9466  1.4245
14264TIP3   OH264282   1.834   5.842   5.476 -0.3915  0.1338  0.3800
14264TIP3    H164283   1.873   5.790   5.406  2.4333  0.0500  1.8789
14264TIP3    H264284   1.825   5.930   5.438 -1.1699 -0.4310 -0.8068
14265TIP3   OH264285   1.539   0.294   1.788  0.0152 -0.0138 -0.1626
14265TIP3    H164286   1.487   0.225   1.828 -0.2772 -0.3156 -1.0570
14265TIP3    H264287   1.628   0.280   1.822  0.0284 -1.0290 -0.6023
14266TIP3   OH264288   5.550   6.175   3.293 -0.0302 -0.0800  0.4389
14266TIP3    H164289   5.533   6.110   3.361 -1.0599  1.0499  1.3147
14266TIP3    H264290   5.645   6.187   3.294 -0.0298 -0.0646  1.7207
14267TIP3   OH264291   5.549   5.988   0.319  0.0145  0.2521 -0.2430
14267TIP3    H164292   5.509   6.021   0.400  0.4307 -3.3223  1.6410
14267TIP3    H264293   5.476   5.951   0.270 -0.0755  1.4447 -1.0611
14268TIP3   OH264294   2.856   3.362  12.444  0.4673  0.3416 -0.5737
14268TIP3    H164295   2.909   3.291  12.407 -0.5683 -1.0191  0.4595
14268TIP3    H264296   2.920   3.425  12.478  1.4117 -0.4266 -0.8863
14269TIP3   OH264297   2.521   4.530  11.170 -0.2673 -0.2854 -0.2657
14269TIP3    H164298   2.534   4.573  11.086 -0.9109 -0.0429 -0.2450
14269TIP3    H264299   2.448   4.577  11.210 -0.2796 -0.7099  0.2198
14270TIP3   OH264300   1.443   5.007   3.641  0.0730 -0.1887 -0.0217
14270TIP3    H164301   1.534   5.018   3.616 -0.0918 -0.7284 -0.8832
14270TIP3    H264302   1.398   5.083   3.604  0.0045 -0.4616 -0.5129
14271TIP3   OH264303   6.506   5.888   4.190 -0.3368  0.2538 -0.2587
14271TIP3    H164304   6.480   5.806   4.148  0.2462 -0.6576  1.0859
14271TIP3    H264305   6.468   5.883   4.278  0.7720  0.8321  0.2740
14272TIP3   OH264306   3.177   4.291  14.605 -0.1774  0.5279  0.2940
14272TIP3    H164307   3.206   4.233  14.676  0.2550  0.4713  0.0702
14272TIP3    H264308   3.214   4.376  14.626 -1.0463  0.8009  0.7713
14273TIP3   OH264309   1.012   1.661   2.795 -0.0946 -0.4231 -0.3484
14273TIP3    H164310   1.088   1.712   2.767 -0.2198 -0.1683 -0.2222
14273TIP3    H264311   0.937   1.709   2.761 -0.2537 -0.0729  0.4744
14274TIP3   OH264312   5.444   0.491  15.773  0.7141 -0.6366 -0.6113
14274TIP3    H164313   5.374   0.454  15.719  1.4441 -0.1397 -1.9406
14274TIP3    H264314   5.474   0.568  15.725  1.8164 -0.5333  0.2035
14275TIP3   OH264315   2.489   1.349   3.921  0.1442  0.2488 -0.3200
14275TIP3    H164316   2.401   1.367   3.888 -0.1572 -2.4607 -1.2291
14275TIP3    H264317   2.505   1.258   3.899  1.0117 -1.1414  4.7076
14276TIP3   OH264318   0.307   4.857   1.922 -0.5955 -0.0820 -0.0177
14276TIP3    H164319   0.218   4.872   1.952 -1.2999 -1.9679 -0.9896
14276TIP3    H264320   0.359   4.852   2.002 -1.8251 -1.4305  0.7509
14277TIP3   OH264321   3.319   5.006  16.075 -0.2445 -0.8139  0.5006
14277TIP3    H164322   3.395   5.063  16.086 -0.9850  0.2521  0.2396
14277TIP3    H264323   3.328   4.971  15.986 -0.3093 -0.3058  0.2910
14278TIP3   OH264324   4.191   4.626  14.495  0.4599  0.2728 -0.4132
14278TIP3    H164325   4.205   4.590  14.408  0.7292  0.2083 -0.3440
14278TIP3    H264326   4.132   4.564  14.538 -0.7651  0.9964 -1.0037
14279TIP3   OH264327   4.292   3.201   6.205 -0.2735 -0.5606  0.2493
14279TIP3    H164328   4.202   3.234   6.206  0.3013  1.2082  2.1079
14279TIP3    H264329   4.336   3.255   6.139 -0.5994 -1.6860 -0.9414
14280TIP3   OH264330   6.157   1.470  13.357  0.0926  0.2006  0.6518
14280TIP3    H164331   6.195   1.411  13.422 -1.0848 -0.3141  0.9053
14280TIP3    H264332   6.062   1.462  13.371 -0.0921  2.3796  0.8956
14281TIP3   OH264333   1.368   4.105  15.627  0.4320 -0.0688 -0.8218
14281TIP3    H164334   1.452   4.118  15.672  1.8034 -4.1731 -1.7400
14281TIP3    H264335   1.303   4.098  15.696  1.7243 -1.6139  0.3080
14282TIP3   OH264336   5.221   4.177   0.604 -0.7534  0.3346  0.3878
14282TIP3    H164337   5.305   4.132   0.606 -0.6297  0.2393 -2.5276
14282TIP3    H264338   5.157   4.108   0.621 -0.3170  0.3241  2.1695
14283TIP3   OH264339   1.646   2.887   1.026  0.1226  0.4263 -0.4628
14283TIP3    H164340   1.575   2.916   0.970  0.4928  0.0071 -1.1652
14283TIP3    H264341   1.726   2.909   0.978  0.4307 -2.3436 -1.3934
14284TIP3   OH264342   6.216   5.195   5.050 -0.1544 -0.2297  0.2534
14284TIP3    H164343   6.130   5.193   5.010  0.4283 -0.1760 -1.0302
14284TIP3    H264344   6.221   5.114   5.101 -0.3893 -1.0107 -0.9237
14285TIP3   OH264345   5.630   6.198  11.995  0.0215 -0.3953  0.2136
14285TIP3    H164346   5.622   6.273  11.935  0.3506 -0.8869 -0.4565
14285TIP3    H264347   5.722   6.172  11.988  0.3647  0.2745  1.8372
14286TIP3   OH264348   3.313   3.271  16.761  0.5537  0.7651  0.2611
14286TIP3    H164349   3.219   3.286  16.769  0.6231  0.3134  2.4044
14286TIP3    H264350   3.320   3.185  16.719  0.1077  2.0927 -2.7933
14287TIP3   OH264351   2.384   5.653  15.180 -0.0078  0.2908  0.5193
14287TIP3    H164352   2.393   5.657  15.085  1.2786  2.3235  0.6522
14287TIP3    H264353   2.305   5.704  15.198 -0.2198 -0.0476  0.5638
14288TIP3   OH264354   6.113   1.509   0.279  0.6608  0.3090 -0.6096
14288TIP3    H164355   6.078   1.557   0.204  0.9260  0.0965 -0.8754
14288TIP3    H264356   6.176   1.570   0.318 -0.9980  1.2605  0.7339
14289TIP3   OH264357   1.787   1.049  13.634  0.3336 -0.6197 -0.1917
14289TIP3    H164358   1.735   1.084  13.706 -0.0773  0.0313 -0.7997
14289TIP3    H264359   1.809   1.125  13.580 -0.6756 -1.2946 -1.6040
14290TIP3   OH264360   5.440   1.098  12.382  0.2899 -0.1397 -0.4075
14290TIP3    H164361   5.467   1.088  12.290  1.9692 -0.7436  0.1165
14290TIP3    H264362   5.479   1.181  12.409 -0.6367  0.2935 -0.3714
14291TIP3   OH264363   5.319   1.202   2.641  0.3192 -0.5513  0.3113
14291TIP3    H164364   5.281   1.119   2.672 -0.8398 -0.1434  0.0224
14291TIP3    H264365   5.388   1.221   2.705 -0.1387 -1.1860  1.0232
14292TIP3   OH264366   3.848   5.571   3.664 -0.3422  0.1017 -0.1587
14292TIP3    H164367   3.852   5.565   3.569 -0.6487  0.1347 -0.1769
14292TIP3    H264368   3.758   5.601   3.682 -0.0974  0.6911  0.1070
14293TIP3   OH264369   5.833   0.032   3.628 -0.6139 -0.3650 -0.0737
14293TIP3    H164370   5.769  -0.032   3.599  1.8837 -2.3648 -1.6907
14293TIP3    H264371   5.844   0.091   3.553 -0.8908  0.2511  0.3642
14294TIP3   OH264372   0.924   6.182  13.949 -0.2288  0.0026  0.2445
14294TIP3    H164373   0.956   6.153  13.864 -0.1884 -1.0731  0.6045
14294TIP3    H264374   0.876   6.106  13.984 -1.7691  1.0151  0.4288
14295TIP3   OH264375   3.026   4.025   2.066  0.1395  0.3595  0.6216
14295TIP3    H164376   2.958   4.048   2.003 -0.7359 -1.3646  0.8755
14295TIP3    H264377   3.102   4.003   2.012 -0.2381  0.0444  0.2096
14296TIP3   OH264378   6.457   5.425   3.973  0.0950  0.7984  0.4859
14296TIP3    H164379   6.516   5.351   3.989 -0.2026  0.5533  0.4516
14296TIP3    H264380   6.415   5.405   3.890  1.3962  1.9193 -0.4834
14297TIP3   OH264381   5.899   0.674  11.113  0.0378  0.2058  0.2785
14297TIP3    H164382   5.945   0.647  11.033 -1.0755 -0.9150 -0.0060
14297TIP3    H264383   5.809   0.690  11.086 -0.6986 -1.5095  1.5167
14298TIP3   OH264384   2.724   3.275  11.496 -0.3036 -0.2197  0.4135
14298TIP3    H164385   2.685   3.250  11.412  0.0649 -0.3915  0.2895
14298TIP3    H264386   2.650   3.300  11.551 -0.5808 -0.5156  0.1735
14299TIP3   OH264387   4.788   5.050  16.317  0.2653  0.6980  0.2669
14299TIP3    H164388   4.874   5.037  16.277  0.6178  1.5462  0.7280
14299TIP3    H264389   4.783   4.983  16.386  0.3739  0.3759 -0.0351
14300TIP3   OH264390   3.181   2.382   0.424  0.4087 -0.5011 -0.2748
14300TIP3    H164391   3.152   2.411   0.337  0.2335 -1.1154 -0.4261
14300TIP3    H264392   3.276   2.378   0.417  0.4399  0.0837 -0.2346
14301TIP3   OH264393   2.273   0.670  14.284 -0.1823 -0.3350  0.3944
14301TIP3    H164394   2.204   0.646  14.346 -1.9881 -0.1120 -1.4109
14301TIP3    H264395   2.264   0.765  14.273 -0.0644 -0.4075 -0.3855
14302TIP3   OH264396   3.401   4.928  17.204  0.9030 -0.0817  0.0201
14302TIP3    H164397   3.361   4.864  17.263  0.2860 -0.6878 -1.0284
14302TIP3    H264398   3.334   4.944  17.137  1.5748  0.6103 -0.5030
14303TIP3   OH264399   0.274   0.611   3.690 -0.0159 -0.0911  0.5363
14303TIP3    H164400   0.364   0.643   3.681 -0.5890  1.8653  1.2554
14303TIP3    H264401   0.239   0.612   3.601  0.2283  0.5159  0.4472
14304TIP3   OH264402   4.367   5.385  11.001 -0.4354  0.2911  0.2276
14304TIP3    H164403   4.442   5.430  10.961 -0.4696 -0.6229 -0.9338
14304TIP3    H264404   4.318   5.351  10.926 -1.5053  0.0740  1.0113
14305TIP3   OH264405   5.640   0.899   3.115 -0.6038  0.1436 -0.3275
14305TIP3    H164406   5.638   0.949   3.033  2.3527  1.4219  0.2785
14305TIP3    H264407   5.625   0.964   3.183  2.5120  0.2291  0.4245
14306TIP3   OH264408   5.170   0.723   0.123  0.1895 -0.0123  0.2311
14306TIP3    H164409   5.168   0.650   0.184 -0.9946 -0.8248 -0.7214
14306TIP3    H264410   5.232   0.696   0.055  2.8525  1.6228  1.8637
14307TIP3   OH264411   2.903   5.806   5.289  0.4182 -0.4463  0.1268
14307TIP3    H164412   2.924   5.887   5.242 -0.4905 -0.1644  0.1963
14307TIP3    H264413   2.886   5.742   5.221  1.3855 -0.6644  0.0673
14308TIP3   OH264414   6.628   6.175   5.272  1.1303  0.4370 -0.1338
14308TIP3    H164415   6.655   6.159   5.182 -0.0398  0.6267 -0.5443
14308TIP3    H264416   6.532   6.170   5.269  1.0245  1.5421  0.8865
14309TIP3   OH264417   0.023   4.492  17.378  0.6400  0.6416 -0.8649
14309TIP3    H164418   0.018   4.537  17.462  1.7335  0.4648 -0.6986
14309TIP3    H264419  -0.054   4.436  17.376  1.7537 -1.0604  1.0193
14310TIP3   OH264420   5.940   0.580   0.044 -0.0184  0.3606  0.0519
14310TIP3    H164421   5.974   0.668   0.028  0.6758  0.1432  0.3071
14310TIP3    H264422   5.845   0.590   0.040 -0.0114  1.4541  1.8061
14311TIP3   OH264423   5.514   3.628   5.476 -0.6810  0.0252  0.4889
14311TIP3    H164424   5.475   3.711   5.502  0.5967  0.9794 -0.5355
14311TIP3    H264425   5.559   3.647   5.393  1.7630 -1.0424  1.4674
14312TIP3   OH264426   4.331   1.478  14.238  0.1128 -0.3221 -0.5535
14312TIP3    H164427   4.355   1.425  14.313  2.2044  0.3767 -0.6567
14312TIP3    H264428   4.280   1.550  14.275  1.0733 -0.0146  0.2215
14313TIP3   OH264429   2.364   6.428  16.910 -0.1586 -0.5139 -0.0660
14313TIP3    H164430   2.382   6.340  16.876  0.0192 -0.3032 -0.5274
14313TIP3    H264431   2.282   6.419  16.958  1.0299 -1.4552  1.8854
14314TIP3   OH264432   4.924   1.718   3.608 -0.3899 -0.1773 -0.1793
14314TIP3    H164433   4.962   1.753   3.528  0.5689  0.2132  0.4329
14314TIP3    H264434   4.872   1.790   3.645 -0.1898 -0.1043 -0.0410
14315TIP3   OH264435   0.380   5.419   3.440  0.0100 -0.4874 -0.0580
14315TIP3    H164436   0.419   5.408   3.353 -3.3091  0.9887 -1.9447
14315TIP3    H264437   0.386   5.332   3.480 -1.1092 -2.1144 -3.0998
14316TIP3   OH264438   4.504   1.036   0.110 -0.2078 -0.0565  0.5935
14316TIP3    H164439   4.581   1.090   0.094  0.9894 -2.2090 -1.5808
14316TIP3    H264440   4.445   1.093   0.159  1.0997  3.0451 -1.1324
14317TIP3   OH264441   1.576   5.019   2.464  0.2925  0.1727 -0.1644
14317TIP3    H164442   1.665   5.045   2.488  0.4068  2.7398 -2.8023
14317TIP3    H264443   1.528   5.020   2.547  2.3980  0.0480  1.1274
14318TIP3   OH264444   1.419   2.238   1.055 -0.0480  0.2499 -0.2652
14318TIP3    H164445   1.374   2.244   1.139  0.7851  0.5839  0.1659
14318TIP3    H264446   1.381   2.162   1.012 -0.1568 -0.1947  0.6076
14319TIP3   OH264447   4.193   1.775  17.355  0.2395  0.2996  0.0955
14319TIP3    H164448   4.164   1.730  17.276  1.1871  2.3128 -1.4894
14319TIP3    H264449   4.194   1.867  17.332  1.2934  0.8963  2.2177
14320TIP3   OH264450   2.449   0.578  10.424 -0.1614  0.3165  0.0494
14320TIP3    H164451   2.486   0.665  10.437 -0.5684  0.4953  0.0377
14320TIP3    H264452   2.515   0.531  10.373 -0.1025  0.7378 -0.2665
14321TIP3   OH264453   2.839   0.286  13.638  0.1351  0.0983 -0.1141
14321TIP3    H164454   2.810   0.377  13.643 -2.3646 -0.6667  0.8424
14321TIP3    H264455   2.836   0.255  13.729  0.5726 -1.0512 -0.4706
14322TIP3   OH264456   3.647   2.164   2.956  0.2499 -0.0107  0.3609
14322TIP3    H164457   3.664   2.179   2.863 -1.5417  1.5021  0.2138
14322TIP3    H264458   3.710   2.220   3.001  0.5681 -0.1102  0.0475
14323TIP3   OH264459   4.255   6.678  10.719  0.1440 -0.3367  0.8092
14323TIP3    H164460   4.258   6.658  10.812  1.1006  0.6894  1.0224
14323TIP3    H264461   4.348   6.682  10.693 -0.0730  0.8784  0.1618
14324TIP3   OH264462   4.554   5.449  17.031  0.1039 -0.2671 -0.2684
14324TIP3    H164463   4.464   5.448  17.062 -0.4433 -0.3198 -1.7602
14324TIP3    H264464   4.549   5.414  16.942  1.3204  1.4278 -1.0556
14325TIP3   OH264465   6.531   3.422   4.837 -0.1906  0.5260  0.0912
14325TIP3    H164466   6.613   3.377   4.817 -0.5411 -0.4124  0.6971
14325TIP3    H264467   6.471   3.394   4.768 -0.4065  0.0676  0.4617
14326TIP3   OH264468   1.534   4.112  15.195 -0.0481  0.1217 -0.9484
14326TIP3    H164469   1.440   4.092  15.197 -0.0779  0.2774 -0.6590
14326TIP3    H264470   1.540   4.199  15.234  0.2229  0.0936 -0.9275
14327TIP3   OH264471   5.270   5.237   3.217 -0.6523 -0.7199 -0.2059
14327TIP3    H164472   5.276   5.142   3.228 -0.9153 -0.7235 -0.1086
14327TIP3    H264473   5.189   5.251   3.168 -0.5565 -0.5524 -0.3203
14328TIP3   OH264474   1.000   6.582   3.145 -0.4555  0.5864 -0.1873
14328TIP3    H164475   1.014   6.511   3.207 -1.7975  1.4431  1.1758
14328TIP3    H264476   0.910   6.570   3.115  0.2265  0.0611 -2.1990
14329TIP3   OH264477   5.347   1.968   0.361 -0.4561 -0.5632  0.1950
14329TIP3    H164478   5.286   1.901   0.392 -1.7754 -0.2194 -1.4992
14329TIP3    H264479   5.367   1.941   0.271  1.1068 -0.0902  0.3628
14330TIP3   OH264480   0.557   0.749   2.454  0.6673 -0.2533  0.1406
14330TIP3    H164481   0.610   0.753   2.533  0.9571  0.0773 -0.0698
14330TIP3    H264482   0.511   0.665   2.461  0.4909 -0.1081  0.7798
14331TIP3   OH264483   3.160   3.853  16.543  0.6014 -0.0731  0.1133
14331TIP3    H164484   3.080   3.820  16.502 -0.1802  1.0562  0.6852
14331TIP3    H264485   3.155   3.822  16.634  1.3862 -0.9502 -0.1278
14332TIP3   OH264486   1.152   3.318  11.925  0.3725 -0.4573 -0.1136
14332TIP3    H164487   1.077   3.365  11.891  0.3186  0.6300  1.4039
14332TIP3    H264488   1.125   3.226  11.925 -1.8659  0.0851  2.4235
14333TIP3   OH264489   6.510   2.739  16.298  0.1487 -0.3388  0.1466
14333TIP3    H164490   6.592   2.697  16.323  0.4668  0.1895  0.0050
14333TIP3    H264491   6.472   2.681  16.232 -0.1504 -1.1627  1.0363
14334TIP3   OH264492   5.332   2.208  15.650 -0.3485 -0.5458  0.7884
14334TIP3    H164493   5.323   2.116  15.627 -0.9574 -0.6019  1.2352
14334TIP3    H264494   5.272   2.221  15.723  1.1999 -0.2682  2.0744
14335TIP3   OH264495   3.816   5.633  12.347  0.0757  0.0378  0.4992
14335TIP3    H164496   3.730   5.675  12.346  0.2716  0.4469  0.6566
14335TIP3    H264497   3.868   5.684  12.285 -0.7814 -2.3693 -2.4398
14336TIP3   OH264498   4.755   3.644   0.045 -0.0659  0.3125 -0.6822
14336TIP3    H164499   4.812   3.594   0.104 -0.9114  0.8989  0.6985
14336TIP3    H264500   4.807   3.657  -0.034  1.1289 -0.4929 -0.0581
14337TIP3   OH264501   5.594   5.562   2.099 -0.5165 -0.5308  0.3365
14337TIP3    H164502   5.502   5.570   2.073 -0.7684  0.9618  1.5331
14337TIP3    H264503   5.590   5.551   2.194  0.5593  0.9103  0.5800
14338TIP3   OH264504   1.400   0.093   1.899  0.6034 -0.3877 -0.2435
14338TIP3    H164505   1.368   0.073   1.987  0.9103 -2.5486 -0.5730
14338TIP3    H264506   1.371   0.019   1.846  0.3218  0.9376 -2.0112
14339TIP3   OH264507   3.880   0.028  12.667 -0.2103 -0.5293  0.2722
14339TIP3    H164508   3.920  -0.059  12.672  0.5077 -0.1532  2.1634
14339TIP3    H264509   3.954   0.087  12.650 -0.9545 -0.4059 -3.1087
14340TIP3   OH264510   2.334   3.588  13.252  0.2281  0.1072  0.6610
14340TIP3    H164511   2.410   3.611  13.200  0.0749  1.3352  0.9530
14340TIP3    H264512   2.359   3.608  13.342 -0.6724  1.1905  0.6854
14341TIP3   OH264513   4.342   0.902  11.219 -0.2820 -0.2763  0.1838
14341TIP3    H164514   4.356   0.940  11.306 -0.6169  0.5395 -0.1044
14341TIP3    H264515   4.286   0.965  11.174 -1.5046 -1.5023 -0.0605
14342TIP3   OH264516   6.368   5.554  16.717  0.2835  0.1864  0.6386
14342TIP3    H164517   6.334   5.468  16.693 -0.4502  0.0202  2.1430
14342TIP3    H264518   6.367   5.604  16.636 -1.9321 -0.3677  0.2597
14343TIP3   OH264519   4.340   4.494  12.905  0.0707 -0.2927 -0.4908
14343TIP3    H164520   4.303   4.425  12.960 -0.2036 -0.1015 -0.4338
14343TIP3    H264521   4.335   4.573  12.959 -0.2345 -0.0963 -0.8037
14344TIP3   OH264522   4.157   5.514   6.279  0.1275  0.7005 -0.1953
14344TIP3    H164523   4.105   5.568   6.220 -0.5228  0.7708  0.4327
14344TIP3    H264524   4.239   5.562   6.288 -0.5979  1.8233  0.6925
14345TIP3   OH264525   2.593   4.743   6.218  0.0158  0.2381  0.2802
14345TIP3    H164526   2.638   4.785   6.291  0.0517 -1.9474  1.6088
14345TIP3    H264527   2.609   4.801   6.143  4.0032  0.2066  0.9072
14346TIP3   OH264528   4.817   1.557   4.890 -0.2803 -0.6138 -0.2682
14346TIP3    H164529   4.780   1.532   4.805  2.3057  0.2847 -1.7634
14346TIP3    H264530   4.799   1.650   4.897  0.5167 -0.4436 -0.3998
14347TIP3   OH264531   4.748   0.532  15.523  1.1495 -0.1692 -0.0480
14347TIP3    H164532   4.765   0.564  15.434  0.4160 -0.9124 -0.4677
14347TIP3    H264533   4.795   0.449  15.528 -1.8076 -2.0735 -1.1001
14348TIP3   OH264534   5.169   3.004  13.502 -0.4727  0.3107 -0.2722
14348TIP3    H164535   5.157   3.020  13.596  1.8198  0.1732  0.1135
14348TIP3    H264536   5.171   3.091  13.462 -0.4943  0.4131 -0.0499
14349TIP3   OH264537   3.047   1.891   4.638 -0.0011 -0.0001  0.2326
14349TIP3    H164538   2.984   1.830   4.677  0.0690  0.3901  0.9669
14349TIP3    H264539   3.037   1.971   4.688  0.9066  0.1528  0.1840
14350TIP3   OH264540   5.134   0.804  14.249  0.3845  0.1094  0.3887
14350TIP3    H164541   5.160   0.770  14.334 -1.3722 -0.3266  0.7996
14350TIP3    H264542   5.077   0.735  14.212 -0.3673  1.0722 -0.3101
14351TIP3   OH264543   1.348   1.653  12.346  0.0103 -0.3793 -0.4946
14351TIP3    H164544   1.264   1.677  12.308 -0.8684 -1.0494  0.9300
14351TIP3    H264545   1.328   1.577  12.402  1.1178  0.7795  1.5855
14352TIP3   OH264546   2.849   5.532  13.665  0.2185  0.1843 -0.0036
14352TIP3    H164547   2.897   5.593  13.722  0.1589 -1.7038  2.1854
14352TIP3    H264548   2.858   5.447  13.708 -0.7875 -1.1439 -2.2785
14353TIP3   OH264549   0.009   2.479   1.536  0.4754 -0.2538  0.1642
14353TIP3    H164550   0.028   2.501   1.445  2.1125  0.2516  0.6039
14353TIP3    H264551  -0.087   2.473   1.539  0.4397 -2.3904 -2.0490
14354TIP3   OH264552   2.494   2.551   2.275 -0.2592 -0.1679 -0.2965
14354TIP3    H164553   2.469   2.463   2.301 -1.1723  0.4449  1.0345
14354TIP3    H264554   2.586   2.543   2.248 -0.6463 -1.7031 -1.2707
14355TIP3   OH264555   1.306   3.148  13.650  0.0597 -0.4154  0.2163
14355TIP3    H164556   1.262   3.212  13.593 -0.4147 -1.9106 -1.1777
14355TIP3    H264557   1.261   3.156  13.734 -0.6062  0.4290 -0.2013
14356TIP3   OH264558   1.996   0.630   2.918  0.8793  0.2842 -0.0289
14356TIP3    H164559   2.043   0.552   2.886  0.9985  0.4496 -0.2643
14356TIP3    H264560   1.920   0.595   2.964  1.1153  0.0190  0.1629
14357TIP3   OH264561   2.363   1.565  14.925 -0.3054  0.8008 -0.1499
14357TIP3    H164562   2.454   1.566  14.894  0.0090  1.1793  0.7484
14357TIP3    H264563   2.310   1.567  14.845  0.4741  1.5010 -0.6674
14358TIP3   OH264564   5.184   0.554   0.937  0.0709  0.3724 -0.4097
14358TIP3    H164565   5.135   0.515   1.010  0.3877 -0.9485 -0.8804
14358TIP3    H264566   5.187   0.647   0.958  1.9155 -0.2017  2.3529
14359TIP3   OH264567   6.669   4.997  15.376 -0.2517  0.0058  0.4134
14359TIP3    H164568   6.625   5.051  15.311 -1.2404  1.7712  2.4176
14359TIP3    H264569   6.601   4.975  15.439  1.1513  0.6796  2.2709
14360TIP3   OH264570   3.231   0.336  11.169 -0.1754  0.0796  0.2221
14360TIP3    H164571   3.270   0.312  11.253  0.5323  0.4285  0.0002
14360TIP3    H264572   3.305   0.342  11.109 -0.4010  1.9891  0.0785
14361TIP3   OH264573   0.750   5.732   1.927 -0.7012  0.3702  0.9173
14361TIP3    H164574   0.809   5.807   1.932  0.0426 -0.1073 -0.1774
14361TIP3    H264575   0.806   5.660   1.898 -2.1536  0.3502 -2.2145
14362TIP3   OH264576   4.175   1.137   1.099 -0.1829  0.0065 -0.0216
14362TIP3    H164577   4.162   1.210   1.038 -0.4401  1.0619  1.2417
14362TIP3    H264578   4.213   1.067   1.045  0.4169  1.1933 -1.2134
14363TIP3   OH264579   6.758   5.876   3.201  0.4140  0.5875 -0.0954
14363TIP3    H164580   6.826   5.830   3.250 -0.1785  0.2117  0.3882
14363TIP3    H264581   6.767   5.843   3.111  0.3271 -0.0988  0.1412
14364TIP3   OH264582   6.473   6.338  16.527 -0.0101 -0.0024 -0.5162
14364TIP3    H164583   6.459   6.292  16.609  0.0463  1.6634  0.4759
14364TIP3    H264584   6.395   6.391  16.515  1.2506  2.1301  0.1198
14365TIP3   OH264585   6.323   1.985  13.896  0.0884  0.0974  0.2148
14365TIP3    H164586   6.240   1.963  13.854 -0.0266  2.0016 -0.6382
14365TIP3    H264587   6.388   1.934  13.847 -0.4316 -0.4790  0.1061
14366TIP3   OH264588   1.596   0.605  13.099 -0.0577  0.2313 -0.4297
14366TIP3    H164589   1.560   0.590  13.012  0.8460  1.8136 -1.1096
14366TIP3    H264590   1.652   0.682  13.090 -1.1391  1.3897  1.8836
14367TIP3   OH264591   4.955   2.989  11.901  0.1047 -0.2115  0.4762
14367TIP3    H164592   4.901   3.038  11.839  1.6830 -1.3241 -1.9321
14367TIP3    H264593   4.975   2.907  11.855  0.8039 -1.4092  2.7730
14368TIP3   OH264594   5.200   6.608   4.088 -0.6993 -0.3856  0.1400
14368TIP3    H164595   5.224   6.621   3.997  0.0156 -1.3965  0.1638
14368TIP3    H264596   5.104   6.613   4.089 -0.7812 -1.4337 -0.8591
14369TIP3   OH264597   2.119   5.085   4.243 -0.7424 -0.4380 -0.1322
14369TIP3    H164598   2.131   5.145   4.316 -1.0716 -0.5640  0.0239
14369TIP3    H264599   2.208   5.068   4.212 -0.6774  0.5629 -0.5352
14370TIP3   OH264600   6.292   0.080   3.757 -0.4476  0.0487 -0.4080
14370TIP3    H164601   6.379   0.108   3.728 -0.6977 -0.2315 -1.4879
14370TIP3    H264602   6.287   0.107   3.848 -0.1954  2.3577 -1.0341
14371TIP3   OH264603   0.690   1.873  13.000  0.5298 -0.0346  0.0523
14371TIP3    H164604   0.598   1.856  12.979 -0.3074  1.4706  2.1766
14371TIP3    H264605   0.690   1.959  13.041  3.2800  1.1454 -2.1230
14372TIP3   OH264606   4.836   5.214  16.874  0.1494 -0.3807  0.0998
14372TIP3    H164607   4.771   5.220  16.944 -0.9915 -1.4826 -0.8088
14372TIP3    H264608   4.827   5.296  16.826 -0.2069 -0.2994  0.2985
14373TIP3   OH264609   4.653   2.316   3.259  0.1802  0.2515 -0.2391
14373TIP3    H164610   4.686   2.401   3.229 -0.4930  1.0139  1.0483
14373TIP3    H264611   4.682   2.254   3.193  0.5988  1.5022 -1.2778
14374TIP3   OH264612   3.195   4.123   4.827 -0.0214 -0.0678 -0.1744
14374TIP3    H164613   3.156   4.096   4.910  0.1267 -1.8682 -0.6375
14374TIP3    H264614   3.186   4.218   4.826 -2.1722 -0.1877  0.8371
14375TIP3   OH264615   6.236   4.550   3.800 -0.4448 -0.0886  0.3671
14375TIP3    H164616   6.163   4.488   3.809 -0.0709 -0.6656 -0.4384
14375TIP3    H264617   6.306   4.512   3.852 -1.6218  2.0387  3.7923
14376TIP3   OH264618   3.428   1.630  11.244 -0.2247 -0.1739 -0.1451
14376TIP3    H164619   3.355   1.690  11.229  0.7037  0.7894 -1.0516
14376TIP3    H264620   3.433   1.578  11.163  0.0861 -0.2230 -0.0954
14377TIP3   OH264621   5.771   3.289  13.169  0.3373  0.4767 -0.0432
14377TIP3    H164622   5.772   3.207  13.218  1.7277  0.8799  0.6704
14377TIP3    H264623   5.702   3.341  13.209 -2.1141 -1.1015 -1.9273
14378TIP3   OH264624   2.715   0.749  16.090  0.2654 -0.6217 -0.0957
14378TIP3    H164625   2.669   0.753  16.173 -0.0148 -0.4230 -0.2589
14378TIP3    H264626   2.792   0.696  16.108  0.4868 -0.1367  0.4260
14379TIP3   OH264627   3.409   0.591   6.070 -0.5445 -0.1604 -0.4559
14379TIP3    H164628   3.326   0.551   6.097 -1.0938  1.8102  1.0599
14379TIP3    H264629   3.464   0.585   6.149  0.6450 -1.0739 -1.3203
14380TIP3   OH264630   0.056   3.330  10.983  0.2319 -0.1756  0.0849
14380TIP3    H164631   0.001   3.269  11.031 -0.6451  0.1333 -0.4990
14380TIP3    H264632   0.141   3.327  11.028 -0.0519 -1.1710  0.5742
14381TIP3   OH264633   6.506   5.037   2.482 -0.0755 -0.1581 -0.1914
14381TIP3    H164634   6.477   4.977   2.550 -1.8723  0.9220  0.0712
14381TIP3    H264635   6.427   5.056   2.431  0.8570  0.4278 -1.5039
14382TIP3   OH264636   3.435   0.644   2.293  0.0322 -0.6261 -0.3010
14382TIP3    H164637   3.401   0.634   2.204 -0.2854  0.3593 -0.3000
14382TIP3    H264638   3.528   0.663   2.282  0.2049 -1.4785 -0.3766
14383TIP3   OH264639   3.852   2.031  16.845 -0.2958 -0.2043 -0.1203
14383TIP3    H164640   3.818   2.118  16.823  2.1828  0.4511 -1.6644
14383TIP3    H264641   3.903   2.005  16.769  1.7269 -1.5747  1.5863
14384TIP3   OH264642   5.023   2.025  14.519  0.3009  0.0794  0.5217
14384TIP3    H164643   5.088   1.955  14.520 -0.5268 -0.7066  1.1343
14384TIP3    H264644   4.967   2.005  14.444 -0.0830 -0.0712  0.8424
14385TIP3   OH264645   0.141   5.759  13.235 -0.7487  0.0968 -0.0246
14385TIP3    H164646   0.110   5.675  13.201  1.3893 -1.2379  1.0288
14385TIP3    H264647   0.216   5.735  13.290  1.4811  2.8805 -1.6042
14386TIP3   OH264648   0.315   5.469  12.174 -0.2080  0.0480  0.1760
14386TIP3    H164649   0.250   5.459  12.104  1.4349 -2.3569 -1.1777
14386TIP3    H264650   0.290   5.404  12.239  0.5127 -0.5670 -0.1383
14387TIP3   OH264651   3.021   1.046   3.373  0.2504  0.5358  0.5514
14387TIP3    H164652   3.098   0.991   3.363  0.3811  0.5867  1.2110
14387TIP3    H264653   2.947   0.987   3.359  0.3391 -0.2052  2.7642
14388TIP3   OH264654   1.046   6.795   2.528 -0.0323 -0.3964 -0.2234
14388TIP3    H164655   0.984   6.757   2.591  0.0057 -1.0965 -0.5982
14388TIP3    H264656   1.010   6.881   2.509  0.5986  0.3430  1.6711
14389TIP3   OH264657   3.011   0.034   4.782 -0.0713  0.0210 -0.2787
14389TIP3    H164658   3.058   0.110   4.818  0.0897 -0.3426  0.2911
14389TIP3    H264659   3.043   0.028   4.692  2.5711 -1.4217  0.6424
14390TIP3   OH264660   4.350   2.302   3.035  0.2941 -0.4182 -0.1464
14390TIP3    H164661   4.359   2.351   3.117 -0.0899 -3.3850  1.8342
14390TIP3    H264662   4.300   2.359   2.977  1.8879  2.4027  1.0933
14391TIP3   OH264663   6.342   1.502  17.206  0.2537 -0.2854 -0.0470
14391TIP3    H164664   6.264   1.493  17.152 -0.3155 -0.2718  0.7535
14391TIP3    H264665   6.332   1.586  17.250  0.0372 -0.8943  1.1070
14392TIP3   OH264666   0.319   2.890   0.187  0.2602  0.4330 -0.4053
14392TIP3    H164667   0.229   2.917   0.169 -0.6684 -1.9361  0.2589
14392TIP3    H264668   0.336   2.820   0.123  1.8546  1.2050 -0.8750
14393TIP3   OH264669   5.425   3.399  16.938  0.1168 -1.2550 -0.3747
14393TIP3    H164670   5.429   3.329  17.004 -0.1481  0.1526  1.2107
14393TIP3    H264671   5.470   3.472  16.979  0.9077 -0.6515 -2.2381
14394TIP3   OH264672   5.278   0.896   3.905  0.3149 -0.3809 -0.0020
14394TIP3    H164673   5.311   0.951   3.975 -0.2046  0.9179 -0.7369
14394TIP3    H264674   5.258   0.957   3.834 -0.9894 -1.4263 -0.5813
14395TIP3   OH264675   4.551   1.226  13.311  0.0627 -0.3718  0.3853
14395TIP3    H164676   4.506   1.310  13.322  1.0304  0.2542 -0.3131
14395TIP3    H264677   4.593   1.233  13.225 -0.8565 -2.0517 -0.2383
14396TIP3   OH264678   3.747   2.335   0.885  0.3445  0.1760  0.6722
14396TIP3    H164679   3.804   2.408   0.909 -0.6860  1.5295 -0.8238
14396TIP3    H264680   3.660   2.374   0.877  0.0719 -0.7559 -1.9821
14397TIP3   OH264681   6.021   1.901   0.032  0.3809 -0.4211 -0.4000
14397TIP3    H164682   6.059   1.929   0.115 -1.5573 -1.9735  1.1298
14397TIP3    H264683   5.995   1.982  -0.011 -0.1344  0.3824  1.3234
14398TIP3   OH264684   4.053   6.175  11.088  0.3567  0.3340  0.0469
14398TIP3    H164685   4.125   6.136  11.039 -0.7730 -2.5965  0.5142
14398TIP3    H264686   3.981   6.181  11.025 -0.0961 -0.3235  0.4845
14399TIP3   OH264687   1.349   5.639   5.128  0.8932 -0.7349 -0.2608
14399TIP3    H164688   1.413   5.665   5.062 -0.4397  0.3456 -1.1617
14399TIP3    H264689   1.365   5.698   5.201  0.2878  0.2173 -0.8777
14400TIP3   OH264690   2.449   1.451  15.254 -0.5779 -0.8492  0.1209
14400TIP3    H164691   2.397   1.370  15.256 -2.1949  0.0680 -1.2780
14400TIP3    H264692   2.482   1.455  15.164 -0.5836  0.0844  0.1560
14401TIP3   OH264693   6.017   2.206  13.244 -0.5055 -0.4191 -0.3359
14401TIP3    H164694   5.944   2.222  13.304  0.7989 -0.9493  1.5011
14401TIP3    H264695   5.996   2.122  13.203 -0.6603 -0.8844  0.6582
14402TIP3   OH264696   5.428   1.628  15.961  0.2826  0.1520 -0.1415
14402TIP3    H164697   5.495   1.684  16.001  0.2224 -0.3144  0.6400
14402TIP3    H264698   5.350   1.683  15.957  0.5403  0.4948 -0.4606
14403TIP3   OH264699   1.959   1.901   6.030 -0.3090 -0.0030  0.5835
14403TIP3    H164700   1.920   1.833   5.975  0.6061  0.8430 -1.2029
14403TIP3    H264701   2.035   1.859   6.070  1.3796  0.3365 -1.9798
14404TIP3   OH264702   3.798   3.433   3.038 -0.8626  0.3555  0.4494
14404TIP3    H164703   3.778   3.375   3.111  1.4019  1.2410  1.8936
14404TIP3    H264704   3.830   3.513   3.079 -0.3167  1.2076 -1.5161
14405TIP3   OH264705   1.763   3.564   2.603 -0.0859 -0.1415  0.3074
14405TIP3    H164706   1.839   3.582   2.547 -0.7292  1.0906 -0.2068
14405TIP3    H264707   1.687   3.578   2.546 -0.7306 -2.0072  0.6206
14406TIP3   OH264708   5.369   1.174   1.399 -0.4216  0.6084  0.4944
14406TIP3    H164709   5.320   1.184   1.481 -0.9905  1.3351  0.0856
14406TIP3    H264710   5.304   1.187   1.331  0.3103  1.4729 -0.0652
14407TIP3   OH264711   3.778   1.281  16.171  0.1805 -0.6616 -0.0472
14407TIP3    H164712   3.811   1.263  16.258  2.2586 -0.0237 -0.6371
14407TIP3    H264713   3.780   1.197  16.126  2.3654 -0.4483 -0.4520
14408TIP3   OH264714   4.008   2.913  10.993 -0.1833  0.8528  0.3944
14408TIP3    H164715   3.956   2.838  10.964  1.1089 -0.3665  1.1285
14408TIP3    H264716   4.081   2.917  10.932  0.6379  0.4683  1.3349
14409TIP3   OH264717   1.795   4.672   0.663  0.0549  0.2959 -0.0431
14409TIP3    H164718   1.844   4.590   0.662  1.5949  1.1541  0.9293
14409TIP3    H264719   1.813   4.713   0.579 -0.8915 -0.4204 -0.6209
14410TIP3   OH264720   5.700   2.180   0.592 -0.4809  0.1770 -0.1434
14410TIP3    H164721   5.607   2.190   0.573 -0.1361 -0.2179 -2.2894
14410TIP3    H264722   5.714   2.086   0.598 -0.0328  0.1922 -0.8981
14411TIP3   OH264723   0.109   3.401   1.316  0.1389 -0.5708 -0.5593
14411TIP3    H164724   0.133   3.464   1.249  1.3316 -1.0375 -0.5867
14411TIP3    H264725   0.082   3.455   1.391 -0.3162 -0.0495 -1.0931
14412TIP3   OH264726   0.641   5.792   2.809 -0.2344 -0.0125  0.3540
14412TIP3    H164727   0.599   5.723   2.861 -1.1336  0.6849  0.5759
14412TIP3    H264728   0.681   5.745   2.736 -1.4193 -0.7126  0.1272
14413TIP3   OH264729   5.758   5.553  16.976 -0.2087  0.3642  0.3283
14413TIP3    H164730   5.804   5.633  16.952  2.3327 -0.8823  0.6073
14413TIP3    H264731   5.745   5.560  17.071  2.1322 -0.4480  0.7788
14414TIP3   OH264732   4.256   2.484  16.476 -0.4467 -0.5382  0.1637
14414TIP3    H164733   4.350   2.500  16.478 -0.7321  2.1224 -1.7786
14414TIP3    H264734   4.248   2.390  16.461  1.9543 -0.6646 -0.8637
14415TIP3   OH264735   2.407   0.566   0.558  0.5025  0.3229 -0.0787
14415TIP3    H164736   2.406   0.471   0.545  0.3981  0.2417  0.5322
14415TIP3    H264737   2.333   0.583   0.616  2.0159  0.4803  1.8934
14416TIP3   OH264738   6.007   5.877   1.966 -0.7460 -0.4734 -0.3682
14416TIP3    H164739   5.916   5.879   1.998 -0.9370  1.0909 -0.9457
14416TIP3    H264740   6.047   5.805   2.015 -1.8512 -0.1300  1.1355
14417TIP3   OH264741   6.125   1.852  11.212  0.3037  0.0024  0.3632
14417TIP3    H164742   6.042   1.809  11.230  0.2493  0.4350  1.1948
14417TIP3    H264743   6.101   1.935  11.172  0.3902 -0.4611 -0.6825
14418TIP3   OH264744   5.976   3.431   0.525 -0.2719  0.4453 -0.1510
14418TIP3    H164745   5.909   3.371   0.556 -1.4339  2.0618  0.5898
14418TIP3    H264746   6.054   3.376   0.515 -1.2543 -1.1558  0.5525
14419TIP3   OH264747   6.309   0.302   0.158 -0.5920  0.2315 -0.1493
14419TIP3    H164748   6.404   0.311   0.147 -0.7770  0.7898 -1.6038
14419TIP3    H264749   6.297   0.216   0.198  0.5445  0.3324  0.4504
14420TIP3   OH264750   6.246   2.351  13.622  0.4999  0.3138  0.8849
14420TIP3    H164751   6.229   2.338  13.529  0.9492  2.2797  0.4825
14420TIP3    H264752   6.165   2.324  13.665  0.0084  0.0987 -0.1422
14421TIP3   OH264753   3.365   6.801   5.691 -0.4374 -0.0263 -0.8635
14421TIP3    H164754   3.449   6.845   5.692 -0.2656 -0.3500  0.8243
14421TIP3    H264755   3.303   6.865   5.728 -0.5773 -0.4472 -0.3615
14422TIP3   OH264756   2.906   4.346  11.891 -0.8022 -0.6400 -0.3352
14422TIP3    H164757   2.967   4.281  11.925 -1.9295 -1.9092 -0.6551
14422TIP3    H264758   2.822   4.322  11.929 -1.7602 -0.9996 -2.5076
14423TIP3   OH264759   4.057   2.498  14.976  0.4722  0.5962  0.7282
14423TIP3    H164760   4.060   2.448  15.057 -0.1130  1.0514  1.0360
14423TIP3    H264761   3.963   2.506  14.956  0.5891  1.0314  0.3456
14424TIP3   OH264762   4.131   5.917   6.199  0.2020  0.3197 -0.0494
14424TIP3    H164763   4.159   5.897   6.110 -2.1716  1.8616 -1.2571
14424TIP3    H264764   4.212   5.936   6.247  1.5340 -0.6441 -1.8133
14425TIP3   OH264765   3.984   2.139  10.833 -0.0770  0.1047 -0.1305
14425TIP3    H164766   3.926   2.064  10.844 -0.1142  0.1191 -0.2308
14425TIP3    H264767   4.071   2.106  10.855 -0.0845  0.0180 -0.2322
14426TIP3   OH264768   6.506   3.551   4.224 -0.1124 -0.1585 -0.0045
14426TIP3    H164769   6.465   3.637   4.231 -0.6777 -0.4761  0.6886
14426TIP3    H264770   6.463   3.509   4.150 -0.5879 -0.2425  0.3153
14427TIP3   OH264771   2.317   2.623   1.289 -0.0585  0.2477  0.0182
14427TIP3    H164772   2.343   2.615   1.380 -0.9999 -0.5172  0.2478
14427TIP3    H264773   2.279   2.710   1.282 -1.2514 -0.1862  0.7272
14428TIP3   OH264774   1.447   0.386   3.086  0.2818 -0.8643  0.0458
14428TIP3    H164775   1.377   0.345   3.035  1.4201 -1.2375 -1.2907
14428TIP3    H264776   1.510   0.316   3.100  0.7670 -0.3394  0.5593
14429TIP3   OH264777   4.564   5.031   5.751 -0.0267  0.1949 -0.1768
14429TIP3    H164778   4.647   5.000   5.789 -0.4409  1.0845  1.5539
14429TIP3    H264779   4.505   5.038   5.825 -1.2143  1.0472 -1.1675
14430TIP3   OH264780   2.569   5.674  14.908  0.3908 -0.0212 -0.1450
14430TIP3    H164781   2.599   5.732  14.977  0.6304  0.4404 -0.6335
14430TIP3    H264782   2.610   5.590  14.927 -1.3781 -0.5834  1.6186
14431TIP3   OH264783   5.658   2.036  14.342  0.0954  0.0365 -0.0792
14431TIP3    H164784   5.589   2.101  14.356 -0.4988 -0.5908 -0.0676
14431TIP3    H264785   5.656   2.019  14.247 -0.0763 -0.3221 -0.0120
14432TIP3   OH264786   1.333   2.916   5.428 -0.1590 -0.0636  0.2099
14432TIP3    H164787   1.354   2.863   5.504  1.0792  1.5445  1.0524
14432TIP3    H264788   1.257   2.968   5.455 -1.5808 -1.5539 -0.7276
14433TIP3   OH264789   1.318   5.256   3.579  0.0480  0.2367  0.2880
14433TIP3    H164790   1.267   5.287   3.504 -0.4278 -1.0967  0.0297
14433TIP3    H264791   1.404   5.297   3.569 -1.0798  3.0028  1.0307
14434TIP3   OH264792   6.201   3.813   0.698 -0.5177  0.1267 -0.7559
14434TIP3    H164793   6.288   3.789   0.665 -1.2188  0.4938 -3.0911
14434TIP3    H264794   6.164   3.731   0.729  1.2900  0.2590  2.0745
14435TIP3   OH264795   5.924   0.579  15.066 -0.0010 -0.4171 -0.6268
14435TIP3    H164796   5.884   0.597  14.982  3.1773  2.5184 -1.7515
14435TIP3    H264797   5.851   0.578  15.128 -2.2672 -1.0988 -3.1511
14436TIP3   OH264798   4.586   0.292   1.150 -0.3623  0.0995  0.0266
14436TIP3    H164799   4.629   0.264   1.069  0.2141 -2.2564  1.0616
14436TIP3    H264800   4.495   0.309   1.124  0.1351  0.8031 -1.3549
14437TIP3   OH264801   2.570   2.290  12.902 -0.0182 -0.1401  0.7017
14437TIP3    H164802   2.570   2.200  12.869  0.9632 -0.1610  0.7125
14437TIP3    H264803   2.621   2.338  12.837 -0.6480  0.4398  0.6308
14438TIP3   OH264804   0.300   1.202  16.658 -0.4396 -0.2906  0.3290
14438TIP3    H164805   0.303   1.296  16.677 -1.2173 -0.0468 -0.6326
14438TIP3    H264806   0.263   1.163  16.737 -0.0217  0.1944  0.7741
14439TIP3   OH264807   0.546   2.019   3.574 -0.3169 -0.3026 -0.0353
14439TIP3    H164808   0.598   2.095   3.598  0.3629 -0.9834  0.7041
14439TIP3    H264809   0.456   2.051   3.574 -0.1537  0.2402  1.4185
14440TIP3   OH264810   5.797   5.968  15.639 -0.1713  1.1782 -0.2843
14440TIP3    H164811   5.713   5.925  15.621 -0.1062  1.1784 -0.6022
14440TIP3    H264812   5.807   6.032  15.568 -0.8062  2.5406  0.8285
14441TIP3   OH264813   5.201   3.775  11.753  0.4759  0.0430  0.8222
14441TIP3    H164814   5.284   3.728  11.752 -0.1412 -1.1830 -1.5330
14441TIP3    H264815   5.204   3.831  11.675 -1.5026 -1.2827 -0.3037
14442TIP3   OH264816   6.118   5.251  10.922 -0.0595  0.4259 -0.2419
14442TIP3    H164817   6.141   5.172  10.874  1.2686  1.0272 -0.6634
14442TIP3    H264818   6.148   5.323  10.865  1.7066  1.1650  1.5128
14443TIP3   OH264819   5.381   4.141  11.766 -0.0841 -0.5762 -0.1122
14443TIP3    H164820   5.412   4.058  11.730  0.0890 -0.1067 -1.0837
14443TIP3    H264821   5.311   4.168  11.706 -1.9576 -1.2702  1.6441
14444TIP3   OH264822   0.182   5.922   0.117  0.5152  0.2533 -0.2650
14444TIP3    H164823   0.127   5.950   0.044  0.0706 -1.0983 -0.4611
14444TIP3    H264824   0.272   5.937   0.086  0.3417 -0.6010 -1.2180
14445TIP3   OH264825   3.911   4.076   1.535  0.4112  0.4927  0.4011
14445TIP3    H164826   3.956   3.993   1.550  0.2956  0.4438  0.4767
14445TIP3    H264827   3.974   4.143   1.559  0.6133  0.4323  0.0463
14446TIP3   OH264828   0.183   3.855   1.427  0.1576 -0.6019 -0.0223
14446TIP3    H164829   0.154   3.778   1.378  1.3164 -1.7959  1.0867
14446TIP3    H264830   0.219   3.914   1.360 -0.0540 -1.3502 -0.8157
14447TIP3   OH264831   1.663   6.225  14.840  0.4012 -0.4055  0.7971
14447TIP3    H164832   1.591   6.288  14.836  0.2777 -0.5786  0.0835
14447TIP3    H264833   1.677   6.199  14.749  0.7703 -1.0472  1.0290
14448TIP3   OH264834   4.883   4.500  12.152 -0.2396  0.5960  0.4511
14448TIP3    H164835   4.870   4.436  12.082  1.6597  1.5278 -0.8241
14448TIP3    H264836   4.803   4.552  12.151 -1.5053 -1.2177  1.0187
14449TIP3   OH264837   0.471   4.205   1.901  0.0819  0.0414 -0.1185
14449TIP3    H164838   0.491   4.214   1.994  0.4342 -1.4356 -0.0104
14449TIP3    H264839   0.397   4.143   1.898  0.3979 -0.3211 -0.8240
14450TIP3   OH264840   1.997   2.045   4.971 -0.0233  0.0123 -0.0280
14450TIP3    H164841   2.040   2.130   4.978 -0.2362  0.1515 -0.4132
14450TIP3    H264842   1.974   2.036   4.879  0.1591 -0.5446 -0.0267
14451TIP3   OH264843   2.109   5.819   5.034 -0.2911 -0.3746 -0.2645
14451TIP3    H164844   2.176   5.759   5.001 -1.1323 -1.1101 -0.6786
14451TIP3    H264845   2.124   5.823   5.128  1.7589  1.2593 -0.5686
14452TIP3   OH264846   1.238   6.794   3.397  0.4916  0.3741  0.0959
14452TIP3    H164847   1.224   6.718   3.454  0.3688 -0.2058 -0.6901
14452TIP3    H264848   1.250   6.756   3.310  0.6145  1.2528 -0.2746
14453TIP3   OH264849   3.571   1.974   5.517  0.3864 -0.3269 -0.6216
14453TIP3    H164850   3.563   1.884   5.487  1.0829 -0.5454 -0.1661
14453TIP3    H264851   3.481   2.008   5.516  0.2889 -0.5567 -2.2101
14454TIP3   OH264852   0.971   1.248   1.706 -0.4544  0.0019  0.3176
14454TIP3    H164853   0.968   1.282   1.616 -0.2488  1.7570  0.9312
14454TIP3    H264854   0.882   1.256   1.738 -0.4959 -0.4813  0.3325
14455TIP3   OH264855   6.502   2.173   6.679 -0.2172 -0.0525  0.1252
14455TIP3    H164856   6.561   2.234   6.636 -0.4360 -0.3061 -0.5393
14455TIP3    H264857   6.416   2.193   6.642 -0.8592  1.3683  2.1873
14456TIP3   OH264858   4.011   4.655   3.078  0.5552 -0.1549  0.5228
14456TIP3    H164859   4.006   4.738   3.125 -0.9568  0.3433 -0.4515
14456TIP3    H264860   3.940   4.658   3.014 -0.3399 -2.7020  1.2569
14457TIP3   OH264861   6.140   5.661  12.867  0.2958  0.3879 -0.0670
14457TIP3    H164862   6.062   5.667  12.812  0.6480  1.9997 -0.4544
14457TIP3    H264863   6.112   5.612  12.944 -1.1674  1.1448 -0.0883
14458TIP3   OH264864   3.803   3.566   0.111  0.1665 -0.0420  0.9338
14458TIP3    H164865   3.756   3.649   0.106 -0.7071 -0.5988 -1.9393
14458TIP3    H264866   3.887   3.588   0.152  0.2166  2.4031 -0.3228
14459TIP3   OH264867   3.882   1.315  12.724 -0.0126  0.1109 -0.0897
14459TIP3    H164868   3.818   1.298  12.655 -0.9390  1.3236  0.4300
14459TIP3    H264869   3.855   1.400  12.761  2.3119  1.0322 -0.3397
14460TIP3   OH264870   0.535   2.644   4.406  0.2930 -0.2368 -0.2972
14460TIP3    H164871   0.569   2.732   4.392 -0.7405  0.0050 -1.5129
14460TIP3    H264872   0.576   2.591   4.338  1.8148 -1.0030  1.1362
14461TIP3   OH264873   3.397   1.650  13.576 -0.2835 -0.0029 -0.0136
14461TIP3    H164874   3.378   1.605  13.658  0.1331  0.5024  0.3641
14461TIP3    H264875   3.325   1.712  13.564 -0.7510 -0.6180 -0.4309
14462TIP3   OH264876   5.372   0.518   1.511 -0.5351 -0.3641  0.0872
14462TIP3    H164877   5.321   0.439   1.491 -2.7955  0.9436  0.3847
14462TIP3    H264878   5.323   0.560   1.582  1.6700  0.3600  1.2633
14463TIP3   OH264879   2.167   2.602   4.529 -1.0302  0.2618  0.1001
14463TIP3    H164880   2.164   2.600   4.625  1.7354 -0.3009  0.2758
14463TIP3    H264881   2.165   2.510   4.504  1.1964  0.2018 -0.1077
14464TIP3   OH264882   4.942   5.879  12.061  0.0521  0.3592 -0.7000
14464TIP3    H164883   5.011   5.879  11.994  0.0875 -2.1892 -0.7480
14464TIP3    H264884   4.954   5.797  12.108  0.4039  2.3033  2.9595
14465TIP3   OH264885   3.744   0.715   3.888 -0.1040  0.2898 -0.0557
14465TIP3    H164886   3.722   0.623   3.902 -1.8096  0.5327 -0.8918
14465TIP3    H264887   3.793   0.716   3.807 -2.7219  0.3574 -1.7682
14466TIP3   OH264888   5.474   5.582  16.747 -0.3227 -0.3110  0.5792
14466TIP3    H164889   5.479   5.599  16.653 -2.0614  0.9722  0.6561
14466TIP3    H264890   5.540   5.515  16.763 -0.0630 -0.6504 -1.5716
14467TIP3   OH264891   4.991   6.707  13.739  0.0369 -0.2296 -0.0225
14467TIP3    H164892   5.078   6.696  13.703 -0.0714 -1.3957  0.0244
14467TIP3    H264893   5.001   6.774  13.807  0.5194  0.9521 -1.2089
14468TIP3   OH264894   4.482   0.380  11.894  0.0284  0.8227 -0.6672
14468TIP3    H164895   4.553   0.357  11.956 -2.1680  0.9346  2.0943
14468TIP3    H264896   4.428   0.301  11.890 -0.6494  1.3071 -1.3296
14469TIP3   OH264897   6.782   2.588   5.407 -0.3799 -0.0699  0.3291
14469TIP3    H164898   6.844   2.615   5.340 -0.8055 -0.2309 -0.1458
14469TIP3    H264899   6.743   2.669   5.439  0.4113  0.0606  0.9655
14470TIP3   OH264900   6.697   5.684   0.397  0.0764 -0.8003  0.1935
14470TIP3    H164901   6.735   5.629   0.466 -0.7119  1.6378  2.7545
14470TIP3    H264902   6.763   5.751   0.380 -0.4401 -0.3643 -0.1495
14471TIP3   OH264903   3.794   2.589  15.989  0.0662  0.3181  0.1558
14471TIP3    H164904   3.813   2.669  15.940  2.4948 -0.4645 -0.3151
14471TIP3    H264905   3.788   2.520  15.923  0.9726 -0.3632  0.7612
14472TIP3   OH264906   4.555   4.401  12.364  0.4140 -0.2707  0.1552
14472TIP3    H164907   4.479   4.439  12.408  0.6021 -1.4326  1.5710
14472TIP3    H264908   4.630   4.428  12.418  0.6888 -1.4398  0.3931
14473TIP3   OH264909   0.000   3.354  11.258 -0.0100  0.3212 -0.1130
14473TIP3    H164910  -0.080   3.326  11.213  0.1157 -1.5134  0.7071
14473TIP3    H264911  -0.018   3.339  11.351  1.2075  0.0734  0.0997
14474TIP3   OH264912   3.316   5.073   2.154  0.3260 -0.1271  0.2593
14474TIP3    H164913   3.269   5.089   2.072  0.6438 -1.0929 -0.1228
14474TIP3    H264914   3.405   5.104   2.137  0.4926 -0.6787  0.1008
14475TIP3   OH264915   6.640   4.152   3.113  0.3054  0.2061  0.2403
14475TIP3    H164916   6.560   4.106   3.140  0.8359  0.7066  2.9251
14475TIP3    H264917   6.608   4.227   3.063 -0.7513 -0.8991 -0.8244
14476TIP3   OH264918   5.464   5.386   3.713  0.0743 -0.2546 -0.5019
14476TIP3    H164919   5.472   5.338   3.630  0.9850 -1.6842  0.3578
14476TIP3    H264920   5.372   5.377   3.737 -0.9836  2.7359 -2.7406
14477TIP3   OH264921   2.272   1.708   3.449  0.0130  0.5132 -0.3781
14477TIP3    H164922   2.318   1.766   3.388  0.4439 -1.2332 -1.7674
14477TIP3    H264923   2.313   1.726   3.534 -0.3536  2.7287 -0.6038
14478TIP3   OH264924   4.549   6.237   1.544  0.1120  0.4449  0.3584
14478TIP3    H164925   4.456   6.217   1.533  0.1286  0.9583 -0.8108
14478TIP3    H264926   4.579   6.174   1.609 -0.9134 -0.1529  0.2725
14479TIP3   OH264927   4.718   2.101  12.251  0.1234  0.4504  0.0338
14479TIP3    H164928   4.645   2.152  12.285 -1.0352 -1.0159 -0.1868
14479TIP3    H264929   4.789   2.165  12.240 -0.6889  1.6585  1.4979
14480TIP3   OH264930   5.975   1.451   0.616  0.1760 -0.7249  0.4567
14480TIP3    H164931   5.988   1.356   0.618  0.9639 -0.6692 -0.8207
14480TIP3    H264932   6.032   1.484   0.685 -1.0710 -1.2510  1.7799
14481TIP3   OH264933   2.886   2.766   3.529 -0.6571  0.6660  0.0308
14481TIP3    H164934   2.967   2.721   3.504 -0.7545 -0.0944  1.0409
14481TIP3    H264935   2.884   2.761   3.624 -2.4765 -0.3909 -0.0160
14482TIP3   OH264936   3.515   4.846   2.073 -0.6682 -0.2296 -0.5061
14482TIP3    H164937   3.444   4.782   2.082 -1.1580  0.0143 -2.2232
14482TIP3    H264938   3.495   4.892   1.991 -0.3677  2.1865  0.6944
14483TIP3   OH264939   2.316   4.620   3.715  0.1920 -0.0893  0.0833
14483TIP3    H164940   2.351   4.628   3.804  4.3576  1.1132 -1.3949
14483TIP3    H264941   2.317   4.526   3.697 -2.3616 -0.5292  1.7371
14484TIP3   OH264942   6.294   0.017  12.462 -0.2412  0.1953  0.3719
14484TIP3    H164943   6.244   0.087  12.420 -0.3780  0.1555  0.4680
14484TIP3    H264944   6.242  -0.007  12.539 -0.8781 -0.9224 -0.3672
14485TIP3   OH264945   2.425   2.016  14.310  0.2174  0.4516 -0.0909
14485TIP3    H164946   2.432   2.018  14.406  2.9055 -2.2208 -0.0776
14485TIP3    H264947   2.408   1.924  14.290 -0.3853  0.9846 -2.2133
14486TIP3   OH264948   4.874   5.520   4.710  0.0771 -0.6067 -0.3422
14486TIP3    H164949   4.916   5.552   4.630  0.4008 -1.5536 -0.5686
14486TIP3    H264950   4.935   5.545   4.780 -1.0307  1.7795 -0.1375
14487TIP3   OH264951   5.678   3.451  15.595 -0.2238 -0.5952  0.1543
14487TIP3    H164952   5.737   3.498  15.536 -1.4367  1.6417  0.6085
14487TIP3    H264953   5.735   3.418  15.664  0.9233 -1.5020 -1.1555
14488TIP3   OH264954   5.810   4.421  15.847 -0.0692 -0.5235  0.3475
14488TIP3    H164955   5.834   4.330  15.826  0.1315  0.0807 -2.4774
14488TIP3    H264956   5.756   4.414  15.925  0.7116 -2.9879  0.7639
14489TIP3   OH264957   2.367   1.414   3.644 -0.3968 -0.5562  0.4999
14489TIP3    H164958   2.399   1.501   3.668 -0.4720 -0.3404 -0.1672
14489TIP3    H264959   2.418   1.390   3.567 -1.3126 -0.5267 -0.1276
14490TIP3   OH264960   3.264   5.870  12.639  0.5539 -0.2781  0.1078
14490TIP3    H164961   3.328   5.909  12.580  2.0242 -0.2741  1.6033
14490TIP3    H264962   3.179   5.898  12.605  1.4031  0.9486 -1.1075
14491TIP3   OH264963   1.371   3.554  12.881 -0.2441  0.0144 -0.0854
14491TIP3    H164964   1.379   3.641  12.920  2.4306 -0.8630  1.6307
14491TIP3    H264965   1.278   3.534  12.887 -0.5149  1.5216  2.4499
14492TIP3   OH264966   2.278   4.809   4.270 -0.1951  0.2231  0.4622
14492TIP3    H164967   2.239   4.726   4.242 -0.8856  0.5511  0.4499
14492TIP3    H264968   2.283   4.861   4.190 -0.3613  0.4309  0.5851
14493TIP3   OH264969   2.796   0.582  12.019  0.2389  0.2253  0.1192
14493TIP3    H164970   2.884   0.598  12.054  1.6712  0.5097 -3.2905
14493TIP3    H264971   2.792   0.487  12.005  0.6556  0.3826 -1.1851
14494TIP3   OH264972   3.276   5.991   3.613  0.1378 -0.5022 -0.2504
14494TIP3    H164973   3.365   6.021   3.594 -0.1147  0.4570  0.0281
14494TIP3    H264974   3.257   5.927   3.545  0.6843 -0.0038 -0.8813
14495TIP3   OH264975   6.572   1.500   1.684  0.7464 -0.0794  0.0935
14495TIP3    H164976   6.531   1.563   1.625 -1.8519 -1.3098  0.4340
14495TIP3    H264977   6.632   1.552   1.737  0.5584  1.6388 -1.2892
14496TIP3   OH264978   5.851   6.439  16.053  0.1093  0.4674  0.8272
14496TIP3    H164979   5.938   6.466  16.024 -0.2872  0.0737 -0.8626
14496TIP3    H264980   5.793   6.467  15.982 -0.8946 -0.9423  1.0503
14497TIP3   OH264981   6.718   3.100  16.494  0.2223 -0.4245 -0.4067
14497TIP3    H164982   6.698   3.193  16.499 -0.1148 -0.2486 -3.5656
14497TIP3    H264983   6.644   3.056  16.536 -1.5195  0.6416 -2.2120
14498TIP3   OH264984   6.176   6.062  15.787  0.5632  0.2560  0.3346
14498TIP3    H164985   6.138   6.083  15.702  1.2861  1.2314  0.2440
14498TIP3    H264986   6.111   6.093  15.850  1.6691  3.1007  0.2161
14499TIP3   OH264987   1.622   1.216   3.351  0.1544 -0.0937  0.2050
14499TIP3    H164988   1.671   1.182   3.426 -0.3641  1.2549  1.2014
14499TIP3    H264989   1.668   1.296   3.326 -0.1201 -0.1257 -0.4385
14500TIP3   OH264990   3.168   2.844   4.013  0.1325  0.4302  0.1713
14500TIP3    H164991   3.127   2.762   4.040 -1.3304  1.4217  1.0878
14500TIP3    H264992   3.254   2.818   3.979  0.4484 -1.3001  2.0912
14501TIP3   OH264993   3.214   1.536  17.082 -0.2754 -1.0723 -0.1114
14501TIP3    H164994   3.172   1.621  17.095 -0.6634 -1.2305 -0.3128
14501TIP3    H264995   3.308   1.554  17.086 -0.3517 -0.5754 -0.5233
14502TIP3   OH264996   5.780   6.020  11.094 -0.1161  0.3443 -0.2141
14502TIP3    H164997   5.687   6.044  11.101 -0.2725  0.3611 -2.0230
14502TIP3    H264998   5.822   6.099  11.059  0.8782  0.8327  1.8584
14503TIP3   OH264999   6.502   3.168  16.985  0.2359  0.7435 -0.5049
14503TIP3    H165000   6.503   3.253  16.941  1.1267  1.3901  0.7116
14503TIP3    H265001   6.425   3.171  17.042  0.5475  0.9471 -0.0874
14504TIP3   OH265002   1.928   3.104   2.786  0.0955 -0.2713 -0.3420
14504TIP3    H165003   2.010   3.059   2.765  0.5815  1.1825 -1.7213
14504TIP3    H265004   1.862   3.034   2.788  1.1147 -1.2682 -0.6085
14505TIP3   OH265005   5.765   2.863   1.225 -0.0387 -0.5043 -0.4722
14505TIP3    H165006   5.842   2.808   1.211 -0.5806 -1.0653 -1.3130
14505TIP3    H265007   5.796   2.934   1.280  0.8639 -1.2276 -0.0234
14506TIP3   OH265008   0.612   6.517   1.328 -0.2351 -0.0978  0.3287
14506TIP3    H165009   0.528   6.543   1.290 -0.4385 -0.0262  0.8165
14506TIP3    H265010   0.662   6.599   1.333 -0.8171  0.2069  1.7166
14507TIP3   OH265011   5.307   0.042   4.650  0.0510  0.0854  0.6853
14507TIP3    H165012   5.260   0.027   4.568  0.0492  0.0569  0.6916
14507TIP3    H265013   5.388  -0.007   4.640 -0.2895 -0.5682  1.0180
14508TIP3   OH265014   0.871   4.907  11.538  0.0748 -0.1408 -0.2080
14508TIP3    H165015   0.827   4.940  11.616  1.0552  0.1556  0.2307
14508TIP3    H265016   0.842   4.816  11.531  1.2410 -0.6775  1.4665
14509TIP3   OH265017   6.708   1.874  14.478  0.6878  0.8733  0.1172
14509TIP3    H165018   6.752   1.923  14.548  0.0969  0.7388  0.5999
14509TIP3    H265019   6.621   1.914  14.473 -0.9942 -2.0311  2.6866
14510TIP3   OH265020   5.586   1.606   2.051  0.0972 -0.0543  0.4569
14510TIP3    H165021   5.637   1.599   1.971 -0.0815  0.5212  0.2895
14510TIP3    H265022   5.602   1.523   2.097  0.5561 -0.1990  0.0433
14511TIP3   OH265023   2.772   1.990  13.755 -0.1777 -0.6584  0.1849
14511TIP3    H165024   2.763   2.060  13.819  0.3014 -1.0141  0.6518
14511TIP3    H265025   2.826   1.924  13.799 -0.8110 -1.4274 -0.1599
14512TIP3   OH265026   6.051   3.781   3.947 -0.6916  0.2203  0.1966
14512TIP3    H165027   6.088   3.770   3.859 -0.8035 -0.2749  0.2098
14512TIP3    H265028   6.126   3.776   4.006 -0.6113  0.5926  0.1315
14513TIP3   OH265029   1.492   6.158   2.967 -0.3517  0.1076  0.2154
14513TIP3    H165030   1.511   6.144   2.874 -2.2572  1.0020 -0.3630
14513TIP3    H265031   1.558   6.106   3.013  0.7984 -0.1506 -1.6213
14514TIP3   OH265032   6.514   3.810   1.428  0.1116 -0.6347 -0.2276
14514TIP3    H165033   6.507   3.753   1.504 -0.0463  0.5684  0.6836
14514TIP3    H265034   6.533   3.750   1.355 -0.0508 -1.8380  0.6829
14515TIP3   OH265035   4.769   5.626   1.066 -0.6328  0.2627 -0.4162
14515TIP3    H165036   4.845   5.683   1.077 -1.2078  0.9938 -0.1309
14515TIP3    H265037   4.731   5.651   0.982 -1.6336  1.2403  0.2940
14516TIP3   OH265038   0.015   5.533   2.961 -0.2973  0.4166 -0.0050
14516TIP3    H165039   0.002   5.468   2.892  0.5552  0.7361 -0.4801
14516TIP3    H265040  -0.050   5.510   3.028 -0.2931 -0.6577 -0.3521
14517TIP3   OH265041   5.966   3.127   4.686 -0.3344 -0.2537  0.1263
14517TIP3    H165042   5.908   3.158   4.756 -0.2910 -0.7401  0.3788
14517TIP3    H265043   6.048   3.107   4.730  0.6105  1.9878 -0.4601
14518TIP3   OH265044   1.243   5.503  13.653  0.5524 -0.0448  0.1978
14518TIP3    H165045   1.260   5.517  13.746  2.3074  1.4205 -0.2947
14518TIP3    H265046   1.321   5.459  13.620 -0.8862 -2.4887 -0.2629
14519TIP3   OH265047   6.278   0.946   2.891  0.0492 -1.0306 -0.0450
14519TIP3    H165048   6.197   0.971   2.848 -0.7204 -4.7158 -1.0644
14519TIP3    H265049   6.347   0.967   2.828 -0.5109 -1.2892 -0.7545
14520TIP3   OH265050   3.387   5.644   1.488 -0.3179 -0.6094  0.5380
14520TIP3    H165051   3.312   5.596   1.453 -0.0714 -1.0084  0.5491
14520TIP3    H265052   3.453   5.577   1.504  0.6965 -0.0890 -1.1491
14521TIP3   OH265053   6.347   0.322  14.411 -0.5414  0.9172 -0.3559
14521TIP3    H165054   6.406   0.344  14.483  1.9273 -2.4472 -1.0833
14521TIP3    H265055   6.372   0.381  14.340 -0.2144  1.5843  0.2993
14522TIP3   OH265056   0.513   4.132  13.909 -0.1575 -0.3146 -0.0936
14522TIP3    H165057   0.430   4.180  13.903 -0.3872 -0.5406  0.9839
14522TIP3    H265058   0.573   4.194  13.951 -0.2235 -0.6685  0.5392
14523TIP3   OH265059   0.604   4.002  16.651 -0.1765 -0.5273  0.7689
14523TIP3    H165060   0.687   3.957  16.639 -0.6731 -0.9714 -1.4260
14523TIP3    H265061   0.587   3.996  16.745  1.5029 -1.7697  1.0458
14524TIP3   OH265062   3.336   2.181  12.812  0.3861 -0.3939  0.2757
14524TIP3    H165063   3.297   2.095  12.794 -0.8640  0.0928  0.5822
14524TIP3    H265064   3.337   2.188  12.907 -0.2066  0.2247  0.2453
14525TIP3   OH265065   1.200   0.547   3.698  0.2709  0.6591 -0.2593
14525TIP3    H165066   1.257   0.487   3.747  0.9676  0.3418 -1.4296
14525TIP3    H265067   1.246   0.563   3.616 -0.6919  1.5008 -0.6579
14526TIP3   OH265068   3.213   2.449  16.286 -0.2362 -0.5223  0.1438
14526TIP3    H165069   3.155   2.518  16.317  0.7524  1.1337 -1.4779
14526TIP3    H265070   3.180   2.426  16.200 -0.2755 -1.7816  0.4791
14527TIP3   OH265071   2.698   5.130   0.892  0.4099  0.5082 -0.5270
14527TIP3    H165072   2.654   5.162   0.814  1.1432  0.7304 -0.8599
14527TIP3    H265073   2.778   5.182   0.898 -0.2027  1.3233  1.0537
14528TIP3   OH265074   0.503   3.144   4.942 -0.3206 -0.0650 -0.0919
14528TIP3    H165075   0.476   3.172   4.855 -1.7227 -0.3310  0.2306
14528TIP3    H265076   0.492   3.049   4.942 -0.6780 -0.0295  0.4875
14529TIP3   OH265077   4.137   2.666  15.294 -0.1174  0.3113  0.2914
14529TIP3    H165078   4.176   2.652  15.208 -1.7323 -1.9207 -0.1707
14529TIP3    H265079   4.066   2.728  15.278 -2.4126 -2.3420 -0.7589
14530TIP3   OH265080   0.373   1.989  15.716  0.1011  0.4324 -0.0806
14530TIP3    H165081   0.335   1.976  15.803  0.1796 -1.9727 -0.3374
14530TIP3    H265082   0.446   2.049  15.731 -1.5173  2.2088  1.0234
14531TIP3   OH265083   5.605   4.168   3.680  0.2513 -0.0821  0.2451
14531TIP3    H165084   5.571   4.247   3.722 -0.4144  0.7225 -1.7097
14531TIP3    H265085   5.531   4.106   3.683  0.0838  0.1012 -0.0422
14532TIP3   OH265086   6.158   0.207   3.218 -0.0262  0.3519 -0.0492
14532TIP3    H165087   6.116   0.218   3.132  1.7089 -0.4436 -1.0525
14532TIP3    H265088   6.154   0.294   3.258 -1.3762  0.6057 -0.6612
14533TIP3   OH265089   2.956   0.373   1.250 -0.2684 -0.3940 -0.1001
14533TIP3    H165090   2.960   0.277   1.254  1.2101 -0.4240 -1.2721
14533TIP3    H265091   3.047   0.400   1.235 -0.9479  1.0567 -2.0528
14534TIP3   OH265092   3.031   6.376   4.048 -0.4972  0.4924  0.4781
14534TIP3    H165093   3.000   6.466   4.040  1.1140  1.1276  1.1376
14534TIP3    H265094   3.110   6.372   3.996  0.2743 -0.1235  1.6503
14535TIP3   OH265095   0.861   3.062   5.639  0.5072 -0.0632  0.0111
14535TIP3    H165096   0.824   3.133   5.691 -1.7320 -0.4443 -0.9060
14535TIP3    H265097   0.861   2.987   5.698 -1.0949 -0.2621 -0.1927
14536TIP3   OH265098   5.281   4.072  13.492 -0.1943 -0.3410  0.2142
14536TIP3    H165099   5.199   4.032  13.522  1.3112 -2.8453  1.3308
14536TIP3    H265100   5.325   4.098  13.573  0.3146  0.5806 -0.3489
14537TIP3   OH265101   6.592   3.061   4.373  0.0124  0.3671  0.1334
14537TIP3    H165102   6.675   3.098   4.401  1.8474 -3.4452  0.3978
14537TIP3    H265103   6.529   3.091   4.439  1.8499  0.8890  1.7478
14538TIP3   OH265104   1.125   0.233   3.001  0.1350 -0.0340  0.2127
14538TIP3    H165105   1.040   0.188   2.997  0.0247  0.2405 -1.0439
14538TIP3    H265106   1.187   0.170   2.964 -0.3021  1.3783 -3.2516
14539TIP3   OH265107   5.338   5.129  14.460 -0.0728 -0.1510 -0.2386
14539TIP3    H165108   5.331   5.048  14.511 -1.6222  0.5719  0.7812
14539TIP3    H265109   5.323   5.102  14.370 -1.1495 -0.9426  0.1595
14540TIP3   OH265110   6.668   3.281  17.274  0.2799  0.0344 -0.5632
14540TIP3    H165111   6.675   3.253  17.365  0.4523 -1.3275 -0.9733
14540TIP3    H265112   6.603   3.222  17.235  0.7785  0.0870 -1.5103
14541TIP3   OH265113   3.156   3.761  16.798  0.2173  0.0554  0.0855
14541TIP3    H165114   3.165   3.788  16.889 -0.5709 -1.9119  0.8087
14541TIP3    H265115   3.108   3.678  16.803  2.7522 -1.6859 -1.8814
14542TIP3   OH265116   3.388   3.099  14.678  0.6416  0.2406 -0.4866
14542TIP3    H165117   3.349   3.176  14.638 -2.4387 -0.3418  1.0343
14542TIP3    H265118   3.371   3.028  14.616 -0.3203  0.0877 -0.0667
14543TIP3   OH265119   3.523   1.344   4.042 -0.0224 -0.8696 -0.2996
14543TIP3    H165120   3.559   1.429   4.067  1.0673 -1.4834  0.2965
14543TIP3    H265121   3.574   1.281   4.092 -1.3864 -1.8359 -0.0876
14544TIP3   OH265122   2.476   6.525  15.930 -0.0839 -0.7170 -0.0003
14544TIP3    H165123   2.525   6.443  15.925 -1.3228 -1.4443 -0.8060
14544TIP3    H265124   2.533   6.584  15.980  0.7054 -2.1561  0.8841
14545TIP3   OH265125   1.496   6.677   6.044  0.0879 -0.1056  0.3315
14545TIP3    H165126   1.546   6.597   6.059 -0.5759 -0.3603  1.3251
14545TIP3    H265127   1.470   6.706   6.132  1.5464  2.0276  0.1454
14546TIP3   OH265128   5.090   2.575  13.487  0.7751  0.5715 -0.0199
14546TIP3    H165129   5.171   2.593  13.535  0.5226  2.9368 -0.3643
14546TIP3    H265130   5.094   2.481  13.468  2.1946  0.1042  2.1711
14547TIP3   OH265131   5.987   0.749   5.910 -0.5912  0.0503 -0.0408
14547TIP3    H165132   6.018   0.699   5.834 -0.2408  2.0858 -1.3033
14547TIP3    H265133   5.993   0.687   5.983  2.1224 -1.0172 -1.0567
14548TIP3   OH265134   1.324   5.262   2.081 -0.1190 -0.2767 -0.3242
14548TIP3    H165135   1.255   5.210   2.040  0.9899 -1.8312 -0.2957
14548TIP3    H265136   1.402   5.243   2.030  0.3683  1.2402 -0.1853
14549TIP3   OH265137   6.136   1.308  12.061  0.7350 -0.3131 -0.2600
14549TIP3    H165138   6.131   1.216  12.034  1.8852 -0.3104 -0.5421
14549TIP3    H265139   6.046   1.341  12.050  0.4890 -1.1734 -0.9823
14550TIP3   OH265140   1.585   0.738   4.471  0.2400  0.0395  0.2104
14550TIP3    H165141   1.674   0.710   4.449  0.2495  0.2958 -0.0936
14550TIP3    H265142   1.531   0.707   4.399  0.1814  0.4030  0.0935
14551TIP3   OH265143   0.326   0.367   4.623  0.0728 -0.3746 -0.2077
14551TIP3    H165144   0.273   0.326   4.555  0.7025 -0.2461 -0.7879
14551TIP3    H265145   0.403   0.311   4.631 -1.0385 -1.6888  2.0576
14552TIP3   OH265146   5.502   6.568   3.347  0.7139  0.2343  0.4844
14552TIP3    H165147   5.427   6.628   3.341  0.9619  0.6267  1.1463
14552TIP3    H265148   5.500   6.519   3.265 -0.0039  0.5527  0.3013
14553TIP3   OH265149   2.098   1.314  14.300 -0.0593 -0.1156  0.0079
14553TIP3    H165150   2.155   1.280  14.369  3.3480  1.1630 -1.9379
14553TIP3    H265151   2.086   1.406  14.322 -0.4406 -0.1158 -0.1990
14554TIP3   OH265152   1.551   2.367  17.100 -0.3165 -0.5061 -0.3424
14554TIP3    H165153   1.560   2.403  17.188  0.2249  1.1410 -1.0270
14554TIP3    H265154   1.562   2.272  17.112 -1.0472 -0.4088  1.4406
14555TIP3   OH265155   0.260   4.133  11.604 -0.1241  0.4208 -0.6027
14555TIP3    H165156   0.221   4.063  11.658  0.6120  0.2053 -0.3425
14555TIP3    H265157   0.309   4.086  11.537  0.2599  0.6913 -0.5119
14556TIP3   OH265158   6.424   6.678  10.941 -0.4627  0.1514 -0.1476
14556TIP3    H165159   6.333   6.703  10.923 -0.2038  0.5314 -0.9869
14556TIP3    H265160   6.444   6.611  10.875 -0.0804  0.1928 -0.0770
14557TIP3   OH265161   6.381   6.570   0.434 -0.0746 -0.0532  0.5804
14557TIP3    H165162   6.317   6.544   0.501 -0.5830 -0.2139  0.0447
14557TIP3    H265163   6.423   6.648   0.470 -2.1282  1.3984  0.0268
14558TIP3   OH265164   0.500   0.349  17.221 -0.1901 -0.1502  0.2074
14558TIP3    H165165   0.565   0.289  17.183  0.1660  0.4319 -0.1203
14558TIP3    H265166   0.423   0.339  17.166  0.0720  0.1368 -0.2184
14559TIP3   OH265167   3.176   1.317   5.442  0.1723  0.1413  0.9161
14559TIP3    H165168   3.212   1.355   5.362 -0.4735  1.1222  1.0765
14559TIP3    H265169   3.119   1.385   5.477 -2.0199 -1.3920  0.5593
14560TIP3   OH265170   6.675   0.877  14.898  0.6151  0.4278  0.2083
14560TIP3    H165171   6.601   0.932  14.927 -1.6729 -1.1808 -2.0746
14560TIP3    H265172   6.669   0.879  14.802  2.3523 -1.3579  0.0077
14561TIP3   OH265173   2.927   0.816   3.071 -0.0868 -0.2700 -0.6763
14561TIP3    H165174   2.859   0.864   3.022 -0.7735 -0.6824 -0.1414
14561TIP3    H265175   2.878   0.759   3.131  0.7236 -1.2544 -0.9259
14562TIP3   OH265176   2.537   2.274   5.527 -0.1793 -0.4831  0.3518
14562TIP3    H165177   2.569   2.206   5.586  0.5173 -0.1333  0.3859
14562TIP3    H265178   2.556   2.356   5.573 -1.3467 -0.2717  0.4783
14563TIP3   OH265179   5.488   5.076   4.410  0.3477  0.5575  0.0214
14563TIP3    H165180   5.537   5.146   4.368  1.3121 -0.4311 -0.5577
14563TIP3    H265181   5.481   5.008   4.343 -1.9258  0.6811  0.0351
14564TIP3   OH265182   0.664   2.563  16.715  0.1121  0.4389 -0.3514
14564TIP3    H165183   0.578   2.530  16.739 -0.1933  0.9671 -0.7287
14564TIP3    H265184   0.657   2.586  16.623  0.4802  1.0452 -0.2345
14565TIP3   OH265185   1.880   6.744   3.866  0.1964  0.0088  0.1420
14565TIP3    H165186   1.936   6.744   3.789 -0.7839  0.5925 -0.5935
14565TIP3    H265187   1.844   6.656   3.870 -0.8102  0.3542 -0.8801
14566TIP3   OH265188   2.217   3.712  16.410 -0.2359 -0.3194 -0.0138
14566TIP3    H165189   2.305   3.727  16.444 -0.1120 -0.4491 -0.2798
14566TIP3    H265190   2.230   3.670  16.325 -0.5845 -2.5171  0.9494
14567TIP3   OH265191   1.706   1.945  14.097  0.7833 -0.1300 -0.2660
14567TIP3    H165192   1.756   1.926  14.018 -1.2369 -3.3670 -0.9736
14567TIP3    H265193   1.713   1.865  14.149 -1.0844  0.4813  1.0127
14568TIP3   OH265194   0.590   3.508   2.420  0.3731  0.1612 -0.1003
14568TIP3    H165195   0.531   3.579   2.444 -0.7310 -0.9241  0.5367
14568TIP3    H265196   0.595   3.453   2.499  0.9087 -0.6514 -0.6777
14569TIP3   OH265197   4.397   5.317  12.123 -0.1000  0.1048 -0.8562
14569TIP3    H165198   4.418   5.224  12.118  0.7332  0.2470 -0.2309
14569TIP3    H265199   4.385   5.334  12.217 -0.8703  0.4986 -1.0159
14570TIP3   OH265200   5.028   4.122  15.134  0.4802  0.2462  0.7134
14570TIP3    H165201   5.006   4.035  15.101  1.1832  0.4485 -0.3271
14570TIP3    H265202   5.115   4.111  15.173  0.9418  0.6534 -0.1768
14571TIP3   OH265203   0.790   4.623  15.339  0.1066  0.1436 -0.4188
14571TIP3    H165204   0.821   4.695  15.285  1.6059 -1.6475 -2.1305
14571TIP3    H265205   0.717   4.585  15.290 -0.8481  0.6035  0.5959
14572TIP3   OH265206   3.313   1.360  17.392  0.0476 -0.0072  0.5826
14572TIP3    H165207   3.396   1.383  17.349 -0.0261 -0.8292 -0.0287
14572TIP3    H265208   3.261   1.441  17.389 -0.6114 -0.4249 -2.4474
14573TIP3   OH265209   5.079   3.731   1.475  0.2030  0.4347  0.5372
14573TIP3    H165210   5.153   3.732   1.414 -0.0446  0.7167  0.2355
14573TIP3    H265211   5.101   3.798   1.540  0.4525  0.1561  0.7410
14574TIP3   OH265212   5.414   3.082  12.351 -0.1304  0.4283 -0.2420
14574TIP3    H165213   5.339   3.027  12.330 -0.6558 -0.2808  3.0564
14574TIP3    H265214   5.393   3.167  12.312 -1.7141 -0.2765 -1.0182
14575TIP3   OH265215   5.028   5.419   2.884 -0.4685  0.0107 -0.0770
14575TIP3    H165216   5.099   5.483   2.879 -0.1220 -0.3147  0.5362
14575TIP3    H265217   4.956   5.466   2.925 -0.6703  0.3932 -0.8623
14576TIP3   OH265218   1.712   0.614  11.535  0.4102  0.3175 -0.1995
14576TIP3    H165219   1.675   0.633  11.448 -1.1873 -3.0216 -0.4126
14576TIP3    H265220   1.667   0.675  11.594 -0.8222  0.5348 -1.3092
14577TIP3   OH265221   0.240   3.408   2.341  0.5211 -0.3843 -0.0114
14577TIP3    H165222   0.310   3.385   2.280 -2.1388 -3.6439 -2.2297
14577TIP3    H265223   0.233   3.332   2.399  0.1897  0.8392  1.6324
14578TIP3   OH265224   5.323   3.359   2.773 -0.2331  0.3937  0.0584
14578TIP3    H165225   5.314   3.274   2.815 -2.2757  0.5517  0.0473
14578TIP3    H265226   5.246   3.366   2.716  1.2486  1.1668 -1.9578
14579TIP3   OH265227   2.764   3.567  16.265 -0.4006 -0.2130  0.0306
14579TIP3    H165228   2.852   3.536  16.243 -0.9696 -1.9669  0.0423
14579TIP3    H265229   2.772   3.662  16.267  1.1830 -0.2655 -1.2948
14580TIP3   OH265230   4.120   0.680  14.843 -0.4808 -0.6173  0.3148
14580TIP3    H165231   4.054   0.724  14.789  0.7765 -0.9118 -1.5940
14580TIP3    H265232   4.088   0.591  14.852 -1.1469 -0.3314  0.8598
14581TIP3   OH265233   4.791   2.976   3.500  0.1879 -0.1222  0.1262
14581TIP3    H165234   4.854   2.990   3.429 -0.2203 -0.5623 -0.3385
14581TIP3    H265235   4.710   2.952   3.455 -0.4062  0.7447  0.7049
14582TIP3   OH265236   1.938   6.054   0.571  0.2895 -0.1710  0.1374
14582TIP3    H165237   1.861   6.036   0.517  0.4728  0.2124 -0.2626
14582TIP3    H265238   1.969   6.140   0.541  1.1029 -0.4996  0.0066
14583TIP3   OH265239   5.892   2.917  16.349 -0.1978 -0.2776  0.0865
14583TIP3    H165240   5.840   2.947  16.424 -2.0443  0.4717 -1.4045
14583TIP3    H265241   5.862   2.828  16.333 -1.7224  0.4346 -1.2824
14584TIP3   OH265242   0.548   4.927   1.662 -0.0283  0.2272 -0.4178
14584TIP3    H165243   0.598   4.939   1.742  2.3017 -1.9657 -1.4043
14584TIP3    H265244   0.569   5.003   1.608  0.9432  0.1448 -0.1679
14585TIP3   OH265245   5.947   0.461   4.069 -0.3707 -0.4799 -0.4989
14585TIP3    H165246   5.981   0.511   3.996 -0.2300  1.7100  0.9809
14585TIP3    H265247   5.937   0.372   4.035  0.4267  0.2870 -2.9045
14586TIP3   OH265248   6.342   6.358   2.070 -0.1126 -0.2276  0.1008
14586TIP3    H165249   6.268   6.308   2.104  0.7893  0.0202  2.6167
14586TIP3    H265250   6.419   6.304   2.092  0.6170  0.5514 -0.4823
14587TIP3   OH265251   3.235   5.833  13.098 -0.0117 -0.3951  0.2297
14587TIP3    H165252   3.175   5.832  13.173 -1.7669  0.4932 -1.0965
14587TIP3    H265253   3.311   5.783  13.128 -0.9889 -0.7488  2.3148
14588TIP3   OH265254   6.658   2.957  17.370 -0.1525 -0.1481  0.0035
14588TIP3    H165255   6.700   2.933  17.288 -0.0503 -0.7825  0.2355
14588TIP3    H265256   6.564   2.944  17.354 -0.1420 -0.1662 -0.0426
14589TIP3   OH265257   0.535   2.959   6.490  0.4633 -0.7676  0.4619
14589TIP3    H165258   0.509   2.907   6.414  0.7861  0.5155 -0.5438
14589TIP3    H265259   0.622   2.992   6.469  0.5108 -0.2867  1.3413
14590TIP3   OH265260   4.532   5.612  10.354  0.1182 -0.0513 -0.6601
14590TIP3    H165261   4.549   5.705  10.372  0.5764 -0.2733  0.1245
14590TIP3    H265262   4.488   5.580  10.433 -0.2603 -0.4429 -1.0290
14591TIP3   OH265263   1.767   5.077  16.725  0.0290  0.1637 -0.9160
14591TIP3    H165264   1.755   4.998  16.672 -0.4232 -0.6047  0.2790
14591TIP3    H265265   1.799   5.044  16.809  1.9479  1.4497 -1.0739
14592TIP3   OH265266   5.801   1.200   4.586 -0.4859 -0.1095 -0.1518
14592TIP3    H165267   5.734   1.243   4.640  0.9032  2.2727 -0.1825
14592TIP3    H265268   5.851   1.148   4.648 -0.8182  0.1109  0.3107
14593TIP3   OH265269   5.149   1.996   1.002 -0.1023  0.1472 -0.2097
14593TIP3    H165270   5.108   1.910   1.007 -0.3717  0.1483 -1.7965
14593TIP3    H265271   5.222   1.984   0.941  1.2380  0.5426  1.2552
14594TIP3   OH265272   5.329   1.699  11.033  0.0490  0.1157 -0.3637
14594TIP3    H165273   5.335   1.661  10.946 -1.4380  0.5353 -0.6805
14594TIP3    H265274   5.389   1.774  11.031  2.4944 -1.7107  0.0595
14595TIP3   OH265275   5.578   1.116   2.258 -0.6187  0.1787 -0.2706
14595TIP3    H165276   5.639   1.046   2.235  0.5818  1.3836 -0.8746
14595TIP3    H265277   5.510   1.112   2.190 -0.9454 -0.8120  0.0904
14596TIP3   OH265278   6.699   1.308  13.825 -0.1788  0.3264  0.2761
14596TIP3    H165279   6.631   1.348  13.771  0.5739  0.3501 -0.6746
14596TIP3    H265280   6.729   1.233  13.774  0.4731  0.2840  0.7064
14597TIP3   OH265281   4.698   1.859  12.347  0.3356 -0.6264  0.4290
14597TIP3    H165282   4.619   1.886  12.395  0.0016  0.6520 -0.7840
14597TIP3    H265283   4.720   1.935  12.293  1.7519 -1.3822 -0.0896
14598TIP3   OH265284   1.202   0.071  16.965 -0.1942 -0.6455  0.6526
14598TIP3    H165285   1.220   0.127  16.889  3.6320 -0.7148  1.3440
14598TIP3    H265286   1.153   0.128  17.025 -1.9442 -0.1237 -1.1437
14599TIP3   OH265287   3.770   0.152  14.886 -0.1375  0.2281  0.1781
14599TIP3    H165288   3.722   0.090  14.942  0.3301 -0.3855 -0.0816
14599TIP3    H265289   3.813   0.211  14.948  0.5413 -0.5695  0.5019
14600TIP3   OH265290   5.748   4.762  12.501 -0.1990 -0.0682  0.4980
14600TIP3    H165291   5.843   4.768  12.491 -0.3150  0.9121 -0.1733
14600TIP3    H265292   5.735   4.738  12.593  0.7064 -1.0298  0.3933
14601TIP3   OH265293   0.555   2.331  11.005 -0.7338  0.1591 -0.3915
14601TIP3    H165294   0.544   2.271  11.079  0.5693 -0.2502 -0.4996
14601TIP3    H265295   0.650   2.344  10.999 -0.8395  0.4487 -1.7802
14602TIP3   OH265296   3.585   3.717   3.946  0.0493 -0.4858  0.1445
14602TIP3    H165297   3.521   3.781   3.977 -0.1108 -1.1575  1.2330
14602TIP3    H265298   3.553   3.633   3.980  0.4559 -1.1004 -0.9430
14603TIP3   OH265299   0.967   3.825   6.042 -0.0819  0.0700  0.3044
14603TIP3    H165300   0.905   3.801   6.110 -1.7397  0.9516 -0.8314
14603TIP3    H265301   0.964   3.921   6.039 -1.5608  0.0312 -2.2723
14604TIP3   OH265302   3.342   2.052  13.790  0.5231  0.3702 -0.1158
14604TIP3    H165303   3.393   2.121  13.833  0.5327 -0.0685  0.5826
14604TIP3    H265304   3.396   2.026  13.715  0.9222  0.5242  0.1147
14605TIP3   OH265305   4.132   0.772   1.393 -0.0942  0.0894  0.3796
14605TIP3    H165306   4.215   0.785   1.438  0.5614 -1.2510 -0.3785
14605TIP3    H265307   4.096   0.692   1.431  0.5128 -1.1265 -1.4448
14606TIP3   OH265308   3.459   5.314  16.241 -0.4507  0.3428 -0.0150
14606TIP3    H165309   3.491   5.232  16.204 -0.2410 -0.3889  1.6977
14606TIP3    H265310   3.530   5.376  16.226  0.2913 -0.3509  0.5507
14607TIP3   OH265311   2.411   4.613  12.180  0.0949 -0.7571 -0.0991
14607TIP3    H165312   2.488   4.648  12.136 -0.6079  0.5850 -0.2984
14607TIP3    H265313   2.368   4.689  12.220 -0.2756 -1.6885  1.3814
14608TIP3   OH265314   6.605   4.578   1.302 -0.0021 -0.4692  0.0014
14608TIP3    H165315   6.665   4.602   1.231 -0.6691  0.6054 -0.2261
14608TIP3    H265316   6.618   4.484   1.314  0.6188 -0.5384 -1.0881
14609TIP3   OH265317   5.482   2.864  14.699  0.2636  0.0438  0.5091
14609TIP3    H165318   5.554   2.924  14.720 -1.5985  2.1668  1.2107
14609TIP3    H265319   5.422   2.871  14.773 -1.3487 -0.5521 -0.6680
14610TIP3   OH265320   1.200   4.145   0.304 -0.5952  0.3125 -0.1472
14610TIP3    H165321   1.120   4.101   0.277  0.0513 -1.3021  0.4485
14610TIP3    H265322   1.247   4.080   0.356  0.4691  1.6809  0.6787
14611TIP3   OH265323   1.371   1.616   5.844  0.0369  0.9707 -0.0334
14611TIP3    H165324   1.371   1.696   5.792 -1.7302  0.0689 -1.5634
14611TIP3    H265325   1.440   1.629   5.909  2.0628  2.3527 -2.3112
14612TIP3   OH265326   1.513   5.385   4.333  0.2284  0.1589  0.0309
14612TIP3    H165327   1.537   5.359   4.244  0.7167 -0.7265  0.4063
14612TIP3    H265328   1.569   5.331   4.389 -0.0697  0.7127  0.8755
14613TIP3   OH265329   5.608   0.662  15.649  0.5235 -0.1943  0.2957
14613TIP3    H165330   5.615   0.597  15.579  1.6723  0.7311 -0.4599
14613TIP3    H265331   5.697   0.671  15.683  0.3195  0.7473  0.6087
14614TIP3   OH265332   1.505   1.520  14.090 -0.0295  0.0790  0.0965
14614TIP3    H165333   1.598   1.510  14.109 -0.3260 -1.1127  0.9822
14614TIP3    H265334   1.474   1.583  14.156  0.1819  0.6894 -0.3701
14615TIP3   OH265335   3.667   4.690  15.072 -0.0110  0.4387  0.6777
14615TIP3    H165336   3.637   4.778  15.095  0.7872  0.7971  0.3708
14615TIP3    H265337   3.741   4.674  15.131  0.1332  0.1540  0.4214
14616TIP3   OH265338   4.441   1.365  14.699 -0.4488 -0.0279  0.1458
14616TIP3    H165339   4.469   1.346  14.609 -1.3352  0.0592 -0.1540
14616TIP3    H265340   4.422   1.279  14.737  1.6347 -0.2456  0.8599
14617TIP3   OH265341   0.507   4.312   3.600  0.0852 -0.0482 -0.2906
14617TIP3    H165342   0.573   4.268   3.548  1.4430 -1.0438  2.1372
14617TIP3    H265343   0.464   4.242   3.649 -1.0321  0.8529  0.0579
14618TIP3   OH265344   5.148   3.502   5.498  0.6381  0.2677 -0.2963
14618TIP3    H165345   5.139   3.560   5.423 -3.1811 -1.0989 -1.1043
14618TIP3    H265346   5.183   3.421   5.462  0.4180  0.1560 -0.2566
14619TIP3   OH265347   5.975   2.001   3.756 -0.3806  0.3032  0.3276
14619TIP3    H165348   5.902   1.959   3.711 -0.2547 -0.2995  0.6907
14619TIP3    H265349   5.934   2.048   3.829 -0.4085  0.0187  0.4934
14620TIP3   OH265350   5.614   5.580  14.187  0.4875 -1.2063  0.6293
14620TIP3    H165351   5.582   5.588  14.097  1.8496 -2.4297  0.0035
14620TIP3    H265352   5.687   5.642  14.192 -0.2810 -0.3082  1.2745
14621TIP3   OH265353   6.031   5.915   0.658 -1.0468 -1.3733  0.2537
14621TIP3    H165354   5.999   5.846   0.600  0.1106 -4.0191  2.5575
14621TIP3    H265355   6.040   5.873   0.744  0.2183  1.5273  1.6867
14622TIP3   OH265356   5.289   5.438  11.895  0.6330  0.1060  0.1843
14622TIP3    H165357   5.237   5.374  11.944  1.7349 -0.0834  1.1501
14622TIP3    H265358   5.226   5.479  11.836 -0.1123 -1.8284 -0.4432
14623TIP3   OH265359   6.639   3.369  16.559 -0.1333  0.1016  0.3697
14623TIP3    H165360   6.614   3.433  16.492  0.1769 -1.0320 -0.8662
14623TIP3    H265361   6.722   3.403  16.594  0.5206 -0.1030 -0.9440
14624TIP3   OH265362   6.677   4.361  15.227  0.0219  0.4976 -0.0558
14624TIP3    H165363   6.595   4.326  15.194 -0.5974  0.3973  1.4922
14624TIP3    H265364   6.744   4.301  15.195 -0.6960 -0.3393 -0.0177
14625TIP3   OH265365   6.129   2.865  11.841 -0.0326 -0.4634 -0.3224
14625TIP3    H165366   6.139   2.960  11.851 -3.2322  0.0230 -0.8140
14625TIP3    H265367   6.166   2.829  11.921  0.2252  1.2902  0.4034
14626TIP3   OH265368   0.972   1.175  15.495 -0.5467  0.4686 -0.1149
14626TIP3    H165369   0.998   1.093  15.453 -1.6175 -0.8407  1.6306
14626TIP3    H265370   0.876   1.173  15.495 -0.5781  1.2337  0.8424
14627TIP3   OH265371   1.822   6.453  15.744 -0.6523  0.2085  0.4885
14627TIP3    H165372   1.756   6.457  15.674 -0.8750 -0.9402  0.6167
14627TIP3    H265373   1.820   6.362  15.773 -0.0199  0.5052  1.4824
14628TIP3   OH265374   0.472   6.503   3.280 -0.3845 -0.1272 -0.2117
14628TIP3    H165375   0.543   6.550   3.323 -1.7027 -0.2227  2.2411
14628TIP3    H265376   0.394   6.553   3.301 -1.4234 -1.6861 -0.2211
14629TIP3   OH265377   2.963   2.629   3.147  0.0518 -0.0142 -0.5769
14629TIP3    H165378   2.991   2.538   3.139 -1.5844 -0.6049 -0.1050
14629TIP3    H265379   2.988   2.654   3.236 -2.7823 -1.3006  0.7094
14630TIP3   OH265380   3.086   3.371   4.802  0.0951  0.1812  0.0605
14630TIP3    H165381   3.104   3.464   4.816 -1.0057  0.2006  1.4606
14630TIP3    H265382   3.057   3.338   4.887 -2.3950 -0.7763 -1.0830
14631TIP3   OH265383   2.504   0.174   3.352  1.0487  0.2840 -0.5618
14631TIP3    H165384   2.495   0.269   3.350 -3.2614  0.0442 -2.9777
14631TIP3    H265385   2.446   0.146   3.423  0.7218 -0.6034 -1.1651
14632TIP3   OH265386   4.466   1.198  11.588 -0.0177  0.0106 -0.1900
14632TIP3    H165387   4.549   1.195  11.635  0.2953  2.7665 -0.3967
14632TIP3    H265388   4.412   1.259  11.639 -1.5625 -0.9640 -0.5951
14633TIP3   OH265389   5.924   4.678   0.823  0.1327 -0.6344 -0.8228
14633TIP3    H165390   5.942   4.770   0.840  1.3171 -0.7440 -1.4048
14633TIP3    H265391   5.837   4.663   0.861  0.8998  0.1458  1.3762
14634TIP3   OH265392   3.711   2.689  14.105 -0.0519  0.0324  0.2326
14634TIP3    H165393   3.732   2.707  14.013 -0.4099  0.0157  0.1431
14634TIP3    H265394   3.653   2.760  14.130 -3.0220 -1.8521 -0.6856
14635TIP3   OH265395   0.576   4.234   5.509 -0.2182  0.0294 -0.3558
14635TIP3    H165396   0.601   4.163   5.568  1.0932  0.3365 -0.5035
14635TIP3    H265397   0.482   4.221   5.494 -0.4869 -0.3377  1.3995
14636TIP3   OH265398   2.319   2.601   4.969 -0.3013 -0.1919  0.6690
14636TIP3    H165399   2.340   2.559   4.885 -1.6891  0.8688 -0.2514
14636TIP3    H265400   2.299   2.528   5.028  0.7694 -0.9593  0.1247
14637TIP3   OH265401   3.222   2.605  14.092 -0.4984 -0.1780 -0.4598
14637TIP3    H165402   3.199   2.634  14.180  0.4775 -0.7565  0.0066
14637TIP3    H265403   3.166   2.529  14.076 -1.8746  0.9208 -1.0261
14638TIP3   OH265404   3.637   2.238  13.024  0.2271  0.2795 -0.6504
14638TIP3    H165405   3.660   2.173  12.958  2.5782 -0.1575  0.4795
14638TIP3    H265406   3.672   2.203  13.106 -1.0141  1.6378  0.5309
14639TIP3   OH265407   5.688   5.330   2.548  0.6662  0.7981 -0.0478
14639TIP3    H165408   5.640   5.251   2.525  0.8978  0.5299  0.3729
14639TIP3    H265409   5.768   5.298   2.591  0.6635  1.2582  0.3076
14640TIP3   OH265410   3.621   2.460   4.653 -0.2513  0.2817 -0.3277
14640TIP3    H165411   3.542   2.509   4.675 -0.2811  0.2894 -0.4536
14640TIP3    H265412   3.590   2.387   4.600 -0.2493 -0.0733  0.1547
14641TIP3   OH265413   5.210   4.207  16.004  0.0532  0.1386  0.2059
14641TIP3    H165414   5.250   4.261  15.936  0.7596 -1.5281 -0.7817
14641TIP3    H265415   5.284   4.165  16.048 -0.4757 -0.1903  0.7931
14642TIP3   OH265416   2.438   0.652   2.931  0.3081 -0.2298 -0.3765
14642TIP3    H165417   2.469   0.684   3.016 -2.2275 -0.6896  0.8005
14642TIP3    H265418   2.390   0.726   2.893 -0.4669 -0.7131 -0.3679
14643TIP3   OH265419   3.299   5.134   3.581 -0.0595  0.5272  0.4573
14643TIP3    H165420   3.240   5.155   3.654 -1.7644  0.4436 -0.8276
14643TIP3    H265421   3.376   5.097   3.622 -0.5686  1.3869  2.2748
14644TIP3   OH265422   0.947   4.231  16.380  0.5017 -0.3299 -0.0238
14644TIP3    H165423   0.883   4.290  16.339  0.0943 -0.5067  0.3594
14644TIP3    H265424   0.961   4.163  16.315 -0.0562 -0.5450  0.0746
14645TIP3   OH265425   4.660   1.170  13.549 -0.2575  0.2384 -0.2003
14645TIP3    H165426   4.620   1.204  13.469 -0.3961  1.4928  0.3831
14645TIP3    H265427   4.718   1.240  13.580  1.6854 -1.1598 -0.4916
14646TIP3   OH265428   0.754   0.953   4.882 -0.0192 -0.0535 -0.6594
14646TIP3    H165429   0.788   1.040   4.863  0.6613  0.3255  2.0151
14646TIP3    H265430   0.676   0.969   4.935  1.2415 -1.0427  1.5992
14647TIP3   OH265431   3.009   3.927  17.315 -0.2107  0.6976  0.0001
14647TIP3    H165432   3.010   3.971  17.401 -3.6769 -0.1327  0.5785
14647TIP3    H265433   3.059   3.847  17.329  2.0429  2.0511  0.2494
14648TIP3   OH265434   3.212   4.985  13.362  0.1493 -0.7409  0.2220
14648TIP3    H165435   3.251   5.019  13.282 -1.6010 -1.7619 -1.1545
14648TIP3    H265436   3.283   4.938  13.405  1.2345  0.1778 -0.5321
14649TIP3   OH265437   3.580   2.214  11.896 -0.6030 -0.6187 -0.0425
14649TIP3    H165438   3.594   2.268  11.818 -1.6530  0.1246  0.2537
14649TIP3    H265439   3.667   2.187  11.923 -0.2081 -0.7093 -1.3497
14650TIP3   OH265440   5.144   1.220  11.814 -0.4455  0.3941  1.0028
14650TIP3    H165441   5.160   1.129  11.788  1.4869  0.2468  2.4921
14650TIP3    H265442   5.119   1.264  11.733 -0.0835 -1.1903 -0.0066
14651TIP3   OH265443   1.828   5.057   4.807 -0.3329 -0.5178 -0.2204
14651TIP3    H165444   1.879   5.019   4.879  2.0419  2.4149 -0.1750
14651TIP3    H265445   1.860   5.013   4.729 -0.1477 -1.0352  0.1381
14652TIP3   OH265446   4.084   0.831   5.747  0.1353  0.3135  0.3581
14652TIP3    H165447   4.134   0.750   5.754  0.7963  0.5191 -1.3832
14652TIP3    H265448   3.995   0.808   5.773  0.4562 -0.8113  0.4987
14653TIP3   OH265449   0.902   2.114   2.090  0.3865 -0.6259 -0.5548
14653TIP3    H165450   0.877   2.049   2.156 -1.3067  1.3212  0.8538
14653TIP3    H265451   0.992   2.136   2.111  0.9914 -2.4394 -1.0514
14654TIP3   OH265452   4.051   6.575  13.919 -0.0341 -0.3926 -0.1545
14654TIP3    H165453   4.110   6.543  13.851  2.1235 -0.2277  1.5238
14654TIP3    H265454   4.104   6.574  13.999 -2.5381 -0.9200  1.6323
14655TIP3   OH265455   6.015   0.034   4.047  0.3865 -0.7459 -0.0321
14655TIP3    H165456   5.950   0.028   4.116  1.8429  2.5909  1.8891
14655TIP3    H265457   5.974   0.089   3.980 -0.2987 -2.3450 -0.9805
14656TIP3   OH265458   1.621   6.595  16.946 -0.1377  0.0405  0.0129
14656TIP3    H165459   1.626   6.505  16.976  0.5280 -0.0915 -0.4444
14656TIP3    H265460   1.679   6.598  16.870  1.3118  1.2705  1.0885
14657TIP3   OH265461   4.418   4.831  15.092 -0.4563 -0.1882  0.4602
14657TIP3    H165462   4.400   4.787  15.175  0.8326  1.2826  1.5942
14657TIP3    H265463   4.507   4.804  15.068  0.1013  1.2056  0.8381
14658TIP3   OH265464   4.042   5.176  13.681  0.6169  0.1153 -0.2149
14658TIP3    H165465   4.073   5.103  13.735 -0.2634  0.5363  0.8895
14658TIP3    H265466   3.959   5.145  13.645  0.9235  0.0567 -0.8903
14659TIP3   OH265467   5.029   2.147  14.168 -0.1370 -0.0788 -0.3891
14659TIP3    H165468   5.100   2.208  14.186 -0.3931 -0.0473  0.5834
14659TIP3    H265469   5.050   2.111  14.082  1.2179 -0.2941  0.0027
14660TIP3   OH265470   5.444   3.498  11.535  0.4122  0.9308  0.7790
14660TIP3    H165471   5.475   3.566  11.476 -1.4696  1.3455  0.2300
14660TIP3    H265472   5.429   3.543  11.618  1.0510  0.7718  0.9851
14661TIP3   OH265473   5.269   6.297  11.971  0.5817  0.1462 -0.3881
14661TIP3    H165474   5.277   6.216  11.921 -0.0554  0.2239 -0.6253
14661TIP3    H265475   5.181   6.328  11.952  0.2739  0.1008  0.8997
14662TIP3   OH265476   6.150   5.558  16.525  0.2943 -0.2782 -0.1431
14662TIP3    H165477   6.230   5.507  16.537  1.3229  1.4362  0.6289
14662TIP3    H265478   6.127   5.544  16.433  1.2023 -1.1618 -0.2599
14663TIP3   OH265479   0.378   4.260   0.000  0.1334  0.3354  0.8547
14663TIP3    H165480   0.333   4.176   0.012 -1.5605  1.1487  0.3723
14663TIP3    H265481   0.471   4.237   0.005 -0.2725 -1.6171  0.4626
14664TIP3   OH265482   0.916   0.029   5.781  0.1510 -0.0444 -0.7590
14664TIP3    H165483   0.988  -0.033   5.776  0.4874  0.3018 -0.3221
14664TIP3    H265484   0.846  -0.018   5.826  0.6812  0.1304  0.3000
14665TIP3   OH265485   0.932   2.604   0.376 -0.3137 -0.1077  0.4964
14665TIP3    H165486   1.002   2.556   0.333 -1.8610 -2.3674  0.3681
14665TIP3    H265487   0.905   2.670   0.312 -0.6187 -1.5157 -0.8921
14666TIP3   OH265488   1.282   1.236  15.031 -0.6031  0.2271  0.6773
14666TIP3    H165489   1.341   1.176  14.986 -2.0166  0.0290 -1.0196
14666TIP3    H265490   1.220   1.178  15.077 -1.1895  0.3758  0.0906
14667TIP3   OH265491   1.279   3.396  14.254 -0.1995 -0.2817 -0.7429
14667TIP3    H165492   1.360   3.359  14.289 -0.8156 -0.9012  0.0619
14667TIP3    H265493   1.215   3.387  14.325 -1.1258 -0.2999 -1.5472
14668TIP3   OH265494   4.397   4.151  10.357 -0.5564  0.0871  0.0171
14668TIP3    H165495   4.311   4.183  10.383 -0.1567  0.9313  0.3476
14668TIP3    H265496   4.383   4.110  10.272 -0.9603  1.9207 -0.8468
14669TIP3   OH265497   4.519   5.168  16.282  0.8127  0.5328 -0.0691
14669TIP3    H165498   4.611   5.143  16.276  0.9672  0.6690  1.3464
14669TIP3    H265499   4.473   5.087  16.303  0.6790  0.5795 -0.1778
14670TIP3   OH265500   3.954   2.124   4.187  0.2139 -0.0582  0.1922
14670TIP3    H165501   3.980   2.205   4.143  0.5108  0.3722  1.1248
14670TIP3    H265502   4.035   2.088   4.223  0.0491 -0.6491 -0.0249
14671TIP3   OH265503   6.458   0.986  15.046  0.2763 -0.0896  1.0770
14671TIP3    H165504   6.427   1.053  15.107  2.2018  1.1760  0.7595
14671TIP3    H265505   6.467   0.907  15.099 -1.1794  0.1037  1.6627
14672TIP3   OH265506   1.100   3.111   4.375  0.0470  0.0771  0.0528
14672TIP3    H165507   1.114   3.031   4.324  0.7691  0.0190  0.3412
14672TIP3    H265508   1.126   3.182   4.317 -1.8458  0.2162 -0.6928
14673TIP3   OH265509   4.342   3.909  13.994 -0.1842  0.3339 -0.2239
14673TIP3    H165510   4.428   3.950  14.006 -0.3357  0.1276  1.9716
14673TIP3    H265511   4.319   3.876  14.081 -1.9371 -0.7285 -1.0416
14674TIP3   OH265512   1.585   6.527   3.917 -0.2049 -0.3359  0.6289
14674TIP3    H165513   1.600   6.539   4.010 -1.9106  0.1021  0.8775
14674TIP3    H265514   1.672   6.528   3.878  0.4793  0.2940  2.1169
14675TIP3   OH265515   0.030   0.833  13.658 -0.0710  0.4707 -0.1319
14675TIP3    H165516   0.080   0.817  13.739 -1.1425 -0.0065  0.4596
14675TIP3    H265517  -0.037   0.896  13.684 -0.6271  0.0676 -0.5604
14676TIP3   OH265518   2.165   5.341  11.919 -0.2414 -0.1159 -0.2567
14676TIP3    H165519   2.093   5.291  11.959  1.3019 -1.9735  0.3302
14676TIP3    H265520   2.213   5.377  11.994  1.0150 -1.2321 -0.4831
14677TIP3   OH265521   4.029   4.862   4.183 -0.1259  0.0983 -0.7585
14677TIP3    H165522   3.965   4.912   4.131  0.2696  0.3493 -1.0074
14677TIP3    H265523   4.096   4.836   4.119  0.1062 -0.0206 -0.4653
14678TIP3   OH265524   4.943   5.615   0.535  0.3802 -0.1332  0.2602
14678TIP3    H165525   4.883   5.586   0.603 -0.1749 -1.7092 -0.8512
14678TIP3    H265526   4.886   5.639   0.461  1.0333 -0.0032 -0.2094
14679TIP3   OH265527   3.557   0.755   3.296 -0.1935 -0.3006  0.5253
14679TIP3    H165528   3.538   0.847   3.316 -0.8231 -0.5815  1.2713
14679TIP3    H265529   3.502   0.705   3.356  2.5127 -1.2057  2.4244
14680TIP3   OH265530   3.391   1.608   5.047  0.2097  0.0162 -0.4061
14680TIP3    H165531   3.338   1.629   4.970  0.9004 -0.0962 -0.9156
14680TIP3    H265532   3.479   1.637   5.025  0.7458 -1.4444 -0.2957
14681TIP3   OH265533   5.241   6.218   1.631  0.2260 -0.0954  0.8153
14681TIP3    H165534   5.168   6.240   1.687 -0.0090 -1.0298  0.8953
14681TIP3    H265535   5.244   6.288   1.566  1.4080  1.8103  2.7899
14682TIP3   OH265536   0.833   6.432  11.559 -0.3506 -0.5541 -0.1704
14682TIP3    H165537   0.827   6.374  11.484 -3.1814  0.5584 -0.9295
14682TIP3    H265538   0.777   6.392  11.626  0.4659 -0.4657  0.5854
14683TIP3   OH265539   0.220   2.769  12.902 -0.2864  0.3253  0.4446
14683TIP3    H165540   0.155   2.732  12.962  0.5478  1.6678  2.2816
14683TIP3    H265541   0.295   2.710  12.908 -0.0813  0.6375  0.9978
14684TIP3   OH265542   4.322   5.470  11.694 -0.6339  0.7236  0.2264
14684TIP3    H165543   4.306   5.543  11.754 -0.1674  0.7910  0.2749
14684TIP3    H265544   4.287   5.393  11.739 -1.2615  0.9347  0.1119
14685TIP3   OH265545   6.288   0.995  17.380 -0.7629  0.1586 -0.5038
14685TIP3    H165546   6.343   1.065  17.346 -0.8489  1.5253  1.9297
14685TIP3    H265547   6.337   0.915  17.363  0.7896  1.1039 -0.6359
14686TIP3   OH265548   4.027   6.514  12.846 -0.1038  0.2369  0.4853
14686TIP3    H165549   4.053   6.595  12.890  0.8593 -0.3365  1.0046
14686TIP3    H265550   4.062   6.444  12.902  0.4251 -0.5186 -0.7438
14687TIP3   OH265551   2.268   6.345   4.721  0.4544 -0.2615 -0.2417
14687TIP3    H165552   2.199   6.293   4.681 -0.4795  0.5748  0.2592
14687TIP3    H265553   2.303   6.290   4.791  1.1314 -1.1596 -1.2432
14688TIP3   OH265554   3.880   1.154  15.073  0.5089 -0.1894  0.3406
14688TIP3    H165555   3.869   1.081  15.012  0.8882  0.7557 -0.9271
14688TIP3    H265556   3.967   1.140  15.112 -0.2916 -1.5308  1.7435
14689TIP3   OH265557   3.615   6.202   6.072  0.0497 -0.1528 -0.0516
14689TIP3    H165558   3.689   6.141   6.064  0.6191 -0.0958  3.1533
14689TIP3    H265559   3.649   6.285   6.039  1.2885 -0.2690  0.8270
14690TIP3   OH265560   2.586   5.776   0.899  0.2393 -0.3540 -0.3699
14690TIP3    H165561   2.625   5.729   0.826  0.4682 -0.7910  0.0285
14690TIP3    H265562   2.630   5.861   0.899 -1.4259  0.6085 -2.1985
14691TIP3   OH265563   4.759   3.692  16.294 -0.2618 -0.4566 -0.1017
14691TIP3    H165564   4.837   3.704  16.348 -0.6910  0.1676  0.3907
14691TIP3    H265565   4.792   3.692  16.204  0.3878 -0.9094  0.1300
14692TIP3   OH265566   4.007   4.131  15.955  0.5566  0.2849 -0.1241
14692TIP3    H165567   4.083   4.154  16.009 -1.3507 -1.6582  3.8408
14692TIP3    H265568   4.008   4.036  15.952 -0.4337  0.2952 -2.1148
14693TIP3   OH265569   5.185   5.610   1.796  0.2429 -0.5196 -0.0256
14693TIP3    H165570   5.173   5.704   1.785 -2.3098 -0.9819 -1.8098
14693TIP3    H265571   5.154   5.592   1.885  0.3244  0.2269  0.1596
14694TIP3   OH265572   4.781   4.504   2.619 -1.0347 -0.3896  0.5896
14694TIP3    H165573   4.785   4.477   2.710 -1.2113  0.0666  0.7326
14694TIP3    H265574   4.765   4.598   2.622  0.5539 -0.0723  0.1090
14695TIP3   OH265575   2.414   1.867   3.246  0.0344 -0.0867  0.9034
14695TIP3    H165576   2.381   1.861   3.157  0.5779 -1.7664  0.7701
14695TIP3    H265577   2.383   1.951   3.278  0.1051  0.7047 -0.9757
14696TIP3   OH265578   4.904   6.770  15.478  0.0152  0.2224  0.2461
14696TIP3    H165579   4.829   6.744  15.425 -0.1961  0.5057  0.4045
14696TIP3    H265580   4.959   6.820  15.417  0.6845 -1.0160 -0.2057
14697TIP3   OH265581   3.216   4.079  16.820 -0.2082  0.2674 -0.4613
14697TIP3    H165582   3.174   4.000  16.787  1.1013 -0.9847  0.7297
14697TIP3    H265583   3.177   4.094  16.906  0.4787  0.1407 -0.1196
14698TIP3   OH265584   3.155   2.269   2.862  0.0478  0.6676  0.0598
14698TIP3    H165585   3.153   2.177   2.889  0.2059  0.4756 -0.5672
14698TIP3    H265586   3.185   2.267   2.771 -3.9844  0.9634 -1.5048
14699TIP3   OH265587   0.065   5.836   4.731 -0.2812 -0.2141 -0.3912
14699TIP3    H165588   0.019   5.761   4.694 -0.1098  0.1599 -1.4096
14699TIP3    H265589   0.100   5.882   4.654  0.3726  0.4103  0.2697
14700TIP3   OH265590   1.832   2.602   5.143 -0.1771  0.0288  0.5939
14700TIP3    H165591   1.847   2.696   5.142 -1.3830  0.2503 -0.8278
14700TIP3    H265592   1.789   2.584   5.059 -0.2382 -1.7386  0.9650
14701TIP3   OH265593   1.011   3.785   4.341  0.2569 -0.2316  0.1163
14701TIP3    H165594   0.950   3.727   4.295 -0.2821 -1.0928  1.8171
14701TIP3    H265595   1.087   3.791   4.283  0.4902 -2.9775  0.0044
14702TIP3   OH265596   0.233   6.744  11.247  0.0844  0.2058 -0.2071
14702TIP3    H165597   0.315   6.698  11.231  1.0297  1.3300  1.1146
14702TIP3    H265598   0.199   6.707  11.328 -1.0299 -0.6224 -1.0175
14703TIP3   OH265599   0.568   1.198  17.299 -0.0143 -0.2834 -0.0127
14703TIP3    H165600   0.508   1.123  17.303  1.0351 -1.1776 -0.5265
14703TIP3    H265601   0.578   1.216  17.206  0.2595  0.0604  0.0825
14704TIP3   OH265602   0.157   6.655  12.122  0.0293 -0.1927 -0.3985
14704TIP3    H165603   0.075   6.641  12.076 -1.9753 -2.0422  3.3065
14704TIP3    H265604   0.205   6.573  12.112  1.6488  0.9225 -2.6560
14705TIP3   OH265605   3.660   0.417   0.682 -0.2820  0.0901 -0.2966
14705TIP3    H165606   3.705   0.333   0.676  1.5698  0.7566  2.5231
14705TIP3    H265607   3.646   0.444   0.591 -0.2901 -2.8946 -1.2594
14706TIP3   OH265608   5.931   4.969  16.273 -0.1771 -0.1777  0.0711
14706TIP3    H165609   5.845   4.992  16.237  0.2543 -0.1260 -0.9675
14706TIP3    H265610   5.992   4.985  16.201  0.6112 -0.9129  0.5585
14707TIP3   OH265611   3.670   1.860   6.657 -0.1351  0.4484 -0.0912
14707TIP3    H165612   3.743   1.822   6.706  1.1685  1.0237 -1.5264
14707TIP3    H265613   3.593   1.840   6.711  1.1592  0.6919  1.9780
14708TIP3   OH265614   3.515   6.437   3.168 -0.5167 -0.5443  0.1347
14708TIP3    H165615   3.530   6.435   3.074 -3.1703 -0.2080 -0.3921
14708TIP3    H265616   3.587   6.386   3.206  0.4662 -0.8916 -2.0710
14709TIP3   OH265617   4.384   2.578   5.138 -0.0781 -0.8850 -0.3606
14709TIP3    H165618   4.429   2.591   5.221 -2.9987 -0.4238  1.2878
14709TIP3    H265619   4.318   2.647   5.135 -1.0702 -1.8301 -2.3193
14710TIP3   OH265620   0.750   0.285  13.658 -0.5015 -0.2960 -0.2657
14710TIP3    H165621   0.812   0.211  13.661  0.2871  0.3479 -0.3222
14710TIP3    H265622   0.805   0.361  13.640 -1.2986  0.3197 -0.1320
14711TIP3   OH265623   2.873   6.395   1.243  0.1462 -0.5198  0.2982
14711TIP3    H165624   2.893   6.474   1.294 -0.7363 -0.8725  1.2317
14711TIP3    H265625   2.952   6.379   1.192  0.8271  0.2211  1.0831
14712TIP3   OH265626   2.964   0.790  17.315  0.6156 -0.2987  0.2025
14712TIP3    H165627   2.926   0.845  17.384  0.5427  0.6655 -0.5954
14712TIP3    H265628   2.928   0.702  17.332  0.6764 -0.0982  1.4442
14713TIP3   OH265629   4.124   2.701   0.041 -0.8515  0.1584 -0.2626
14713TIP3    H165630   4.073   2.632   0.083 -1.0656  0.7677  0.4979
14713TIP3    H265631   4.192   2.722   0.105 -0.9476  0.8309 -0.3815
14714TIP3   OH265632   1.146   4.292   0.589  0.1415 -0.3558 -0.4786
14714TIP3    H165633   1.163   4.311   0.497 -0.7559  0.5083 -0.4804
14714TIP3    H265634   1.050   4.296   0.597  0.2745  1.6530  0.8908
14715TIP3   OH265635   5.003   5.649  14.360 -0.1029  0.0893  0.4311
14715TIP3    H165636   5.001   5.737  14.322 -1.8307 -0.5936 -1.1847
14715TIP3    H265637   5.096   5.626  14.362  0.3263  1.6514  0.2404
14716TIP3   OH265638   2.333   2.836   0.062 -0.1373 -0.0668 -0.2958
14716TIP3    H165639   2.410   2.818   0.117 -0.1169 -0.3587 -0.4179
14716TIP3    H265640   2.337   2.770  -0.008 -0.6075 -0.2145 -0.1910
14717TIP3   OH265641   0.565   4.904  13.653  0.2173 -0.5653 -0.5852
14717TIP3    H165642   0.478   4.867  13.637  1.0815 -2.5171 -1.1048
14717TIP3    H265643   0.574   4.974  13.589 -1.1725  0.0306 -0.1528
14718TIP3   OH265644   3.758   1.005  12.451  0.2948 -0.7033  0.0484
14718TIP3    H165645   3.792   1.068  12.388 -1.9310  0.5672 -0.0041
14718TIP3    H265646   3.811   1.017  12.530  0.6538  0.4002 -0.3559
14719TIP3   OH265647   0.847   2.506  12.682 -0.4320  0.7958 -0.0548
14719TIP3    H165648   0.812   2.457  12.608 -0.6018  0.9658 -0.0887
14719TIP3    H265649   0.942   2.498  12.673 -0.4570 -1.1903  1.0580
14720TIP3   OH265650   2.587   2.472   3.166  0.3582  0.5436 -0.2006
14720TIP3    H165651   2.628   2.544   3.214 -0.0662  0.1611  0.7686
14720TIP3    H265652   2.509   2.451   3.217 -1.1420  1.3289 -2.0425
14721TIP3   OH265653   0.805   3.152   4.461 -0.3143 -0.4253 -0.6566
14721TIP3    H165654   0.766   3.073   4.423  0.8436 -1.2176 -0.2831
14721TIP3    H265655   0.880   3.171   4.405 -0.6965  0.5323 -0.8534
14722TIP3   OH265656   1.072   0.871  11.593 -0.4829 -0.2152  0.3091
14722TIP3    H165657   1.016   0.941  11.627 -0.5243  0.3768 -0.9203
14722TIP3    H265658   1.145   0.917  11.553  0.3933 -0.9571  1.0221
14723TIP3   OH265659   2.398   1.395   0.587  0.1222  0.1505 -0.5183
14723TIP3    H165660   2.431   1.485   0.585 -0.2393  0.3184  0.3198
14723TIP3    H265661   2.427   1.362   0.672  0.0923 -0.4650 -0.7477
14724TIP3   OH265662   5.796   3.229   0.638 -0.4661  0.1682 -0.1563
14724TIP3    H165663   5.745   3.148   0.647 -0.4793  0.3767  2.3518
14724TIP3    H265664   5.733   3.294   0.606 -1.4918  0.0945  1.6024
14725TIP3   OH265665   3.944   6.746   0.474  0.5661  0.3930 -0.0419
14725TIP3    H165666   3.908   6.674   0.423 -0.0025 -0.0472  0.9376
14725TIP3    H265667   4.032   6.717   0.499  1.3362  1.1159 -1.7295
14726TIP3   OH265668   4.872   0.864  12.036 -0.3853  0.2465 -0.2416
14726TIP3    H165669   4.955   0.816  12.037 -1.1629 -1.1626  0.4208
14726TIP3    H265670   4.826   0.831  11.959 -0.1409  1.4355 -0.9316
14727TIP3   OH265671   3.202   4.850  15.592  0.0680  0.1621 -0.1547
14727TIP3    H165672   3.178   4.758  15.586  2.5445 -0.4593 -3.1005
14727TIP3    H265673   3.293   4.850  15.620  0.2895  1.6641 -0.7462
14728TIP3   OH265674   2.033   2.628   0.016 -0.0908  0.5787 -0.0692
14728TIP3    H165675   1.961   2.583   0.059 -1.0191  0.6638 -1.4695
14728TIP3    H265676   2.059   2.569  -0.055  0.5616  0.9969 -0.1841
14729TIP3   OH265677   4.960   0.487  12.535  0.5423  0.1833 -0.0477
14729TIP3    H165678   4.871   0.450  12.529  0.6342 -0.5405  2.0050
14729TIP3    H265679   5.006   0.451  12.460 -1.0005  0.9307 -1.4254
14730TIP3   OH265680   4.277   1.462   5.320  0.3676  0.6645 -0.4847
14730TIP3    H165681   4.228   1.429   5.395  0.9109 -1.1467 -0.8720
14730TIP3    H265682   4.235   1.423   5.244  0.5573  1.5296 -1.0553
14731TIP3   OH265683   2.953   0.636  16.402  0.3611 -0.0651  0.2287
14731TIP3    H165684   3.047   0.618  16.399  0.3435 -0.3994  1.3125
14731TIP3    H265685   2.937   0.694  16.327  1.4629  0.1481  0.1443
14732TIP3   OH265686   4.105   3.282  12.053  0.0570  0.7321 -0.3658
14732TIP3    H165687   4.099   3.215  11.985  1.7486  1.2476 -1.0936
14732TIP3    H265688   4.199   3.286  12.074 -0.4127  0.5263  2.0978
14733TIP3   OH265689   4.607   6.643  11.299  0.1863  0.1498 -0.4096
14733TIP3    H165690   4.687   6.695  11.290  0.3399 -0.1392 -0.7203
14733TIP3    H265691   4.538   6.709  11.309  0.0063  0.5929 -3.4700
14734TIP3   OH265692   3.336   2.951  12.788  0.2416  0.1353  0.3680
14734TIP3    H165693   3.391   2.987  12.719  0.3655 -2.3144 -0.9150
14734TIP3    H265694   3.384   2.876  12.822 -1.6120 -1.1951  0.2366
14735TIP3   OH265695   5.033   1.190  15.628 -0.0300 -0.0459  0.2256
14735TIP3    H165696   5.112   1.136  15.627  0.6220  0.8577 -1.6218
14735TIP3    H265697   4.992   1.175  15.543 -1.2810  0.3293  0.7312
14736TIP3   OH265698   3.955   1.284   5.810 -0.5292 -0.0247  0.7179
14736TIP3    H165699   4.029   1.311   5.755  0.2519 -1.8996  0.7530
14736TIP3    H265700   3.939   1.359   5.867 -0.2062  1.3096 -0.8580
14737TIP3   OH265701   0.752   5.345   5.514 -0.0655 -0.6585  0.2155
14737TIP3    H165702   0.754   5.250   5.525  0.6420 -0.6721  0.0016
14737TIP3    H265703   0.768   5.358   5.420 -0.7905 -0.3463  0.1257
14738TIP3   OH265704   1.517   1.875  15.235  0.4394 -0.2866  0.1530
14738TIP3    H165705   1.515   1.936  15.162  1.1154 -1.0807 -0.5437
14738TIP3    H265706   1.607   1.875  15.265  0.0263  0.5839  1.4881
14739TIP3   OH265707   1.023   5.869  15.558  0.2140  0.4819  0.0373
14739TIP3    H165708   1.101   5.922  15.545  0.7382  0.1786  1.6923
14739TIP3    H265709   0.958   5.930  15.592  0.5195  0.2582  1.0352
14740TIP3   OH265710   5.404   3.566   3.701 -0.5992  0.2132  0.4176
14740TIP3    H165711   5.352   3.605   3.631  0.0182  0.6309  0.1801
14740TIP3    H265712   5.425   3.478   3.668 -1.8211 -0.2603  0.8678
14741TIP3   OH265713   5.091   5.363  12.656 -0.0805  0.5437 -0.1127
14741TIP3    H165714   5.031   5.413  12.711  0.7172  0.6778  0.6588
14741TIP3    H265715   5.176   5.369  12.701  0.3493 -0.2618 -0.7846
14742TIP3   OH265716   6.213   4.607   0.357 -0.2687  0.0744  0.3457
14742TIP3    H165717   6.203   4.655   0.439  0.4114  0.0397  0.4548
14742TIP3    H265718   6.266   4.531   0.380  1.3770  0.9095 -0.4125
14743TIP3   OH265719   6.229   3.113  17.137 -0.2753  0.2008 -0.3334
14743TIP3    H165720   6.137   3.122  17.115 -0.1289  0.7390 -0.7588
14743TIP3    H265721   6.244   3.179  17.205 -0.4597 -0.6727  0.5806
14744TIP3   OH265722   1.141   4.231  10.720 -0.3771 -1.0164  0.2133
14744TIP3    H165723   1.168   4.150  10.763  0.4562 -0.0864  1.5114
14744TIP3    H265724   1.202   4.297  10.752  0.4782 -0.2786 -2.6626
14745TIP3   OH265725   3.950   4.373   2.023  0.2005 -0.3669 -0.5130
14745TIP3    H165726   3.915   4.303   1.967 -1.6602 -0.4347  0.6481
14745TIP3    H265727   4.030   4.401   1.979 -0.6029 -1.1620 -2.6168
14746TIP3   OH265728   1.001   2.012   1.582  0.6103  0.3829 -0.1852
14746TIP3    H165729   0.998   2.014   1.678  0.8322 -1.7659 -0.0920
14746TIP3    H265730   0.909   2.016   1.555  0.5317  0.7301  0.1299
14747TIP3   OH265731   4.359   2.620   5.723 -0.3711  0.3182  0.1060
14747TIP3    H165732   4.328   2.674   5.796 -1.2135  1.1227 -0.8214
14747TIP3    H265733   4.383   2.537   5.763 -2.6945  0.0485  1.0430
14748TIP3   OH265734   0.910   6.078  16.341  0.2807  0.3455  0.3413
14748TIP3    H165735   0.863   6.111  16.265 -0.8985  1.0843  1.3532
14748TIP3    H265736   0.995   6.122  16.338  0.4615 -0.0452 -0.8240
14749TIP3   OH265737   0.563   5.945  12.153 -0.4262  0.4651  0.4326
14749TIP3    H165738   0.550   5.878  12.220 -0.1920  0.5004  0.5148
14749TIP3    H265739   0.555   6.028  12.199 -0.3902  0.4903  0.3951
14750TIP3   OH265740   4.084   5.957  11.978  0.0683  0.3612  0.6608
14750TIP3    H165741   4.168   5.983  11.940  0.3089 -0.2829  0.7432
14750TIP3    H265742   4.022   5.960  11.905  1.0784 -3.7615 -0.6265
14751TIP3   OH265743   4.961   0.969   3.171  0.3619 -0.1001 -0.5369
14751TIP3    H165744   4.869   0.974   3.142  1.0151  2.2108 -2.5429
14751TIP3    H265745   5.007   1.030   3.113  3.2971 -1.6438  0.0288
14752TIP3   OH265746   5.778   5.651   3.014 -0.0830  0.3469 -0.2578
14752TIP3    H165747   5.857   5.700   3.033 -0.8329  1.2405  0.7234
14752TIP3    H265748   5.789   5.619   2.925  0.9538  1.2687 -0.4693
14753TIP3   OH265749   1.755   0.424  16.390  0.2575  0.0773 -0.7100
14753TIP3    H165750   1.700   0.399  16.464  1.8106 -0.8139  0.2091
14753TIP3    H265751   1.703   0.401  16.313 -0.8098 -0.3639  0.1106
14754TIP3   OH265752   4.501   6.671  15.457 -0.0805 -0.0491  0.2971
14754TIP3    H165753   4.535   6.639  15.540 -0.5573  0.5490  0.7259
14754TIP3    H265754   4.469   6.759  15.476 -0.9662 -0.2235 -0.3160
14755TIP3   OH265755   5.104   0.633   3.132 -0.3824  0.5800 -0.5028
14755TIP3    H165756   5.151   0.715   3.148 -0.8541  0.5865  0.9529
14755TIP3    H265757   5.012   0.658   3.135 -0.5198  0.2485 -1.5601
14756TIP3   OH265758   0.566   3.508   4.878 -0.2797  0.6673  0.3062
14756TIP3    H165759   0.486   3.464   4.849  2.0298 -1.7332 -3.2008
14756TIP3    H265760   0.560   3.596   4.840 -0.6962  0.0465 -1.1312
14757TIP3   OH265761   1.954   4.476   3.037  0.6954  0.6619 -0.2269
14757TIP3    H165762   1.917   4.526   2.964 -2.7822 -2.2800 -0.7181
14757TIP3    H265763   1.896   4.495   3.111 -0.1158 -1.7372 -0.1703
14758TIP3   OH265764   3.633   5.875   0.213  0.1759  0.2107  0.1997
14758TIP3    H165765   3.649   5.892   0.120  0.9448 -0.6877  0.1487
14758TIP3    H265766   3.695   5.933   0.259 -1.2429  1.7805  0.2314
14759TIP3   OH265767   1.903   1.734  17.210  0.4238 -0.2692  0.1602
14759TIP3    H165768   1.993   1.765  17.197  0.0888  0.0530 -1.6709
14759TIP3    H265769   1.868   1.725  17.121 -1.9593  1.4705  0.8141
14760TIP3   OH265770   5.687   2.316  13.160 -0.3210  0.0451  0.1928
14760TIP3    H165771   5.711   2.310  13.252 -0.8312 -1.0669  0.2663
14760TIP3    H265772   5.645   2.233  13.140 -0.5333  0.4039 -0.9601
14761TIP3   OH265773   3.191   4.514  10.807 -0.1291 -0.5913  0.0462
14761TIP3    H165774   3.167   4.474  10.891  0.7412 -0.6938  0.2629
14761TIP3    H265775   3.169   4.606  10.817 -2.2395 -0.9916 -0.4906
14762TIP3   OH265776   0.128   0.014  15.087  0.4030 -0.5694 -0.4346
14762TIP3    H165777   0.164  -0.031  15.011  1.3819 -0.2904 -0.1520
14762TIP3    H265778   0.133  -0.050  15.158  2.7099  0.2252  0.2081
14763TIP3   OH265779   1.861   0.018  12.913 -0.3964  0.3904  0.0887
14763TIP3    H165780   1.914   0.040  12.990  1.3804  3.6164 -1.8452
14763TIP3    H265781   1.915  -0.042  12.862 -0.0657  0.9906 -0.2717
14764TIP3   OH265782   0.418   1.799  15.357  0.1747 -0.2289 -0.0180
14764TIP3    H165783   0.353   1.836  15.416 -0.8456 -0.5261 -0.9154
14764TIP3    H265784   0.465   1.875  15.321  0.9877 -0.0629  1.3466
14765TIP3   OH265785   0.612   1.071   3.375 -0.5327  0.1789  0.1785
14765TIP3    H165786   0.540   1.124   3.409 -1.9111 -1.0887 -0.5869
14765TIP3    H265787   0.619   1.096   3.283 -1.1766 -0.8827 -0.1821
14766TIP3   OH265788   3.920   3.003   2.489 -0.3334  0.5769 -0.4956
14766TIP3    H165789   3.963   2.989   2.573  0.1171 -2.3234 -1.0996
14766TIP3    H265790   3.974   2.954   2.426 -2.7093 -0.5033 -1.8293
14767TIP3   OH265791   1.515   0.496   1.286 -0.2939 -0.2291 -0.9673
14767TIP3    H165792   1.497   0.551   1.362  2.6290  1.1280 -1.1305
14767TIP3    H265793   1.540   0.412   1.323  0.5085  0.2338 -0.4244
14768TIP3   OH265794   3.074   5.552  17.369  0.0666  0.3556 -0.2073
14768TIP3    H165795   3.129   5.593  17.437 -1.4667  0.6796  0.8973
14768TIP3    H265796   3.024   5.485  17.416  0.0656 -0.4691 -1.3434
14769TIP3   OH265797   6.560   3.921  13.675  0.3431  0.4213 -0.1272
14769TIP3    H165798   6.516   3.879  13.748  0.8909 -0.4547 -0.2825
14769TIP3    H265799   6.591   3.848  13.621 -1.9335  0.9823 -2.4157
14770TIP3   OH265800   3.525   2.269  14.885  0.1312 -0.0213 -0.1654
14770TIP3    H165801   3.546   2.333  14.817  1.8525 -1.9769 -1.5988
14770TIP3    H265802   3.578   2.192  14.863 -1.9401 -2.0278  1.3560
14771TIP3   OH265803   6.573   0.642  11.322  0.6441 -0.0091  0.2339
14771TIP3    H165804   6.622   0.702  11.265  0.0322  0.2076 -0.0713
14771TIP3    H265805   6.539   0.698  11.392  1.3310 -0.2623  0.7829
14772TIP3   OH265806   2.071   6.694  14.348 -0.0824  0.1286 -0.4620
14772TIP3    H165807   2.023   6.717  14.269 -0.1935  2.4816  0.2241
14772TIP3    H265808   2.163   6.701  14.324 -0.0544 -1.7320 -1.0418
14773TIP3   OH265809   6.297   6.800   0.202  0.2548 -0.2470  0.1251
14773TIP3    H165810   6.204   6.825   0.208 -0.2829 -1.5498 -1.7279
14773TIP3    H265811   6.314   6.750   0.281 -0.8655 -0.6620  0.1217
14774TIP3   OH265812   4.911   0.871   3.661  0.3449 -0.1380 -0.0052
14774TIP3    H165813   4.909   0.821   3.743 -2.2054 -1.8590 -0.9933
14774TIP3    H265814   4.842   0.832   3.607  1.3127  1.5336 -2.6537
14775TIP3   OH265815   1.498   3.982   5.358  0.4078 -0.4177 -0.2965
14775TIP3    H165816   1.420   4.022   5.320 -0.4829 -0.9232  0.9493
14775TIP3    H265817   1.467   3.904   5.402  1.7056 -0.9189 -0.2085
14776TIP3   OH265818   2.426   4.968   0.805  0.2176 -0.5333 -0.7714
14776TIP3    H165819   2.465   4.929   0.726 -0.6998  0.3259 -1.6766
14776TIP3    H265820   2.339   4.929   0.811  0.6015 -1.2593  0.3432
14777TIP3   OH265821   6.503   0.275   2.810 -0.0640  0.7634  0.1378
14777TIP3    H165822   6.421   0.270   2.762  0.4624 -0.6383 -0.6834
14777TIP3    H265823   6.509   0.367   2.838 -2.3657  0.6865  1.0970
14778TIP3   OH265824   5.910   0.046   1.567  0.4431  0.1553  0.1521
14778TIP3    H165825   5.826   0.068   1.528 -0.0358 -0.4214  0.8114
14778TIP3    H265826   5.933  -0.039   1.529 -0.3469 -0.7293  1.5444
14779TIP3   OH265827   4.037   0.841   4.810  0.4358 -0.2326  0.1451
14779TIP3    H165828   4.112   0.790   4.841  0.1463 -0.6733  0.1304
14779TIP3    H265829   3.965   0.778   4.806  0.1569  0.1009 -0.2031
14780TIP3   OH265830   5.427   4.839   5.219  0.0830  0.4486  0.2484
14780TIP3    H165831   5.379   4.839   5.302 -0.3642  0.5732 -0.0060
14780TIP3    H265832   5.364   4.871   5.155 -0.0635 -1.1372 -0.4380
14781TIP3   OH265833   4.321   2.464  11.716 -0.6793  0.1414  0.2204
14781TIP3    H165834   4.272   2.447  11.635  1.5588 -0.2465 -1.1511
14781TIP3    H265835   4.282   2.544  11.751 -1.9789  0.1021 -1.0217
14782TIP3   OH265836   0.034   5.726  14.326 -0.1157  0.7947 -0.4675
14782TIP3    H165837  -0.029   5.668  14.283  0.5099  0.2767 -0.7035
14782TIP3    H265838   0.099   5.667  14.365 -0.4348  1.2674  0.8310
14783TIP3   OH265839   1.397   1.489  16.737 -0.1462 -0.9706 -0.2707
14783TIP3    H165840   1.394   1.562  16.798 -3.3932 -0.5747 -0.7130
14783TIP3    H265841   1.376   1.527  16.651  3.0152 -1.7211 -1.5128
14784TIP3   OH265842   4.992   4.496  15.849 -0.0849  0.1813  0.5124
14784TIP3    H165843   4.983   4.584  15.886 -1.7470  0.3054 -0.0647
14784TIP3    H265844   4.917   4.488  15.790 -0.1715 -1.7647  0.8263
14785TIP3   OH265845   6.224   6.317   3.361 -0.3719 -0.0199  0.3807
14785TIP3    H165846   6.312   6.279   3.363 -0.5727 -0.5748 -0.6889
14785TIP3    H265847   6.173   6.258   3.305 -1.5427  0.0616  1.2982
14786TIP3   OH265848   5.579   0.371   5.144 -0.5976  1.0752  0.2218
14786TIP3    H165849   5.515   0.358   5.214  0.0079 -0.1729  0.5569
14786TIP3    H265850   5.662   0.340   5.180 -0.4185 -0.3572 -1.3086
14787TIP3   OH265851   3.931   5.075   3.005 -0.1659  1.1455  0.3618
14787TIP3    H165852   3.838   5.096   2.994  0.0145  2.5387  1.2505
14787TIP3    H265853   3.977   5.147   2.961  0.5204  0.1498 -0.6083
14788TIP3   OH265854   1.453   1.607  15.176  0.4879  0.0767  0.3525
14788TIP3    H165855   1.475   1.586  15.267  0.2033  0.5557  0.5347
14788TIP3    H265856   1.458   1.703  15.171 -0.7283  0.1484  0.1899
14789TIP3   OH265857   0.669   0.180   1.168  0.2999 -0.1267 -0.2278
14789TIP3    H165858   0.691   0.116   1.100 -1.0097 -0.0180 -0.7982
14789TIP3    H265859   0.636   0.256   1.119 -1.1521 -0.2382  0.5283
14790TIP3   OH265860   6.045   3.367   3.697 -0.1162  0.3213  0.1821
14790TIP3    H165861   6.001   3.442   3.657 -0.5284  0.8612  1.5810
14790TIP3    H265862   5.981   3.333   3.760  0.6298 -0.2948  0.6205
14791TIP3   OH265863   4.458   2.635  14.435  0.0978  0.4179  0.0229
14791TIP3    H165864   4.507   2.600  14.360 -0.8430  0.6912 -0.7499
14791TIP3    H265865   4.496   2.592  14.511  1.3260  0.4126 -0.5784
14792TIP3   OH265866   4.726   5.191  11.472  0.4464  0.3736 -0.0434
14792TIP3    H165867   4.764   5.107  11.445 -0.3486  0.6344 -2.1539
14792TIP3    H265868   4.636   5.170  11.497 -0.0583  0.7159 -1.5180
14793TIP3   OH265869   1.359   2.606  13.085  0.1602 -0.0049  0.7340
14793TIP3    H165870   1.424   2.668  13.118  1.0808 -0.5809  0.0382
14793TIP3    H265871   1.282   2.620  13.141  0.0961  2.2305  0.2058
14794TIP3   OH265872   1.551   4.716  15.981  0.0827  0.3198  0.1181
14794TIP3    H165873   1.529   4.644  15.922  2.7615 -0.1820 -0.3862
14794TIP3    H265874   1.482   4.781  15.966 -1.3456 -1.3154 -0.7989
14795TIP3   OH265875   5.330   1.702   1.245  0.8430 -0.4037  0.2033
14795TIP3    H165876   5.336   1.647   1.167 -0.5797 -0.2191 -0.0486
14795TIP3    H265877   5.309   1.642   1.316  0.8124 -0.3846  0.2103
14796TIP3   OH265878   6.020   3.030   4.135  0.0164  0.0382  0.2606
14796TIP3    H165879   6.030   3.028   4.040  1.6056  2.4544  0.2782
14796TIP3    H265880   5.927   3.015   4.150 -0.2029 -0.7363 -1.6420
14797TIP3   OH265881   1.639   1.753   5.628  0.2362  0.6563  0.3759
14797TIP3    H165882   1.625   1.659   5.617 -1.9961  1.1195 -1.4628
14797TIP3    H265883   1.670   1.783   5.542  1.5520  1.5374  1.1204
14798TIP3   OH265884   1.845   4.436   2.401 -0.4978  0.1884  0.5738
14798TIP3    H165885   1.786   4.500   2.361  0.4001  0.7048  0.0521
14798TIP3    H265886   1.868   4.475   2.486 -0.4061  0.3008  0.4993
14799TIP3   OH265887   4.507   3.410  13.553  0.0351  0.1652  0.2309
14799TIP3    H165888   4.433   3.367  13.596  0.1060  1.9911  2.3491
14799TIP3    H265889   4.501   3.382  13.461 -2.1282 -1.2417  0.7241
14800TIP3   OH265890   6.289   6.206  13.210 -0.3395 -0.0099 -0.6471
14800TIP3    H165891   6.284   6.207  13.306  1.9592  1.0725 -0.4683
14800TIP3    H265892   6.259   6.118  13.186 -0.4025 -0.5166  1.1179
14801TIP3   OH265893   1.050   4.814   3.089 -0.1221 -0.5343  0.1252
14801TIP3    H165894   1.049   4.719   3.095 -0.6593 -0.4916  0.7186
14801TIP3    H265895   0.978   4.843   3.144 -0.8745  0.1582 -1.1658
14802TIP3   OH265896   1.300   0.257   0.770  0.0901  0.1156  0.2603
14802TIP3    H165897   1.386   0.283   0.802  0.4899 -0.5703 -0.2136
14802TIP3    H265898   1.249   0.239   0.849  0.2134  1.0051  0.5552
14803TIP3   OH265899   3.444   2.659   4.677 -0.3220 -0.6887 -0.2589
14803TIP3    H165900   3.361   2.638   4.718  0.1291  0.1466  1.1335
14803TIP3    H265901   3.447   2.755   4.674  1.3124 -0.6362  1.3245
14804TIP3   OH265902   3.762   5.310  13.429 -0.1426  0.4453  0.2041
14804TIP3    H165903   3.691   5.342  13.375  0.0761  1.7319  0.6527
14804TIP3    H265904   3.841   5.342  13.388  0.4452 -2.8670 -1.6110
14805TIP3   OH265905   3.139   6.034  11.459 -0.1971 -0.0017 -0.4280
14805TIP3    H165906   3.164   6.127  11.456  1.0160 -0.3344 -1.9348
14805TIP3    H265907   3.222   5.987  11.461 -0.7784 -1.0879  2.2427
14806TIP3   OH265908   2.989   2.888  12.020 -0.2065 -0.2780 -0.2391
14806TIP3    H165909   2.912   2.895  11.964 -0.2985  2.8160  0.1431
14806TIP3    H265910   2.970   2.814  12.078 -2.2322 -0.4828 -1.0932
14807TIP3   OH265911   0.229   5.032   5.656 -0.2537 -0.5532  0.2304
14807TIP3    H165912   0.168   5.073   5.718 -2.1341 -0.7553 -1.3791
14807TIP3    H265913   0.302   5.094   5.650 -1.6212  1.1505  0.1267
14808TIP3   OH265914   1.227   5.888   0.147 -0.0117 -0.3075 -0.3986
14808TIP3    H165915   1.226   5.888   0.051 -1.0234  0.0633 -0.4098
14808TIP3    H265916   1.143   5.928   0.171 -0.0123 -0.9017  0.6469
14809TIP3   OH265917   5.134   4.639   3.104 -0.6190 -0.2287 -0.1735
14809TIP3    H165918   5.194   4.580   3.058 -1.9836 -1.3658 -0.5946
14809TIP3    H265919   5.056   4.641   3.048 -2.0824 -1.1217  1.7079
14810TIP3   OH265920   5.962   5.317  11.144  0.4253  0.4621 -0.4130
14810TIP3    H165921   5.990   5.278  11.227 -1.8002 -1.1249 -0.3182
14810TIP3    H265922   6.013   5.270  11.078  0.8522  0.4022 -0.0449
14811TIP3   OH265923   0.785   6.332  12.289  0.0183  0.0026 -0.1756
14811TIP3    H165924   0.859   6.272  12.275 -1.6355 -2.9455  2.4486
14811TIP3    H265925   0.815   6.391  12.358  0.2605 -0.6172  0.2638
14812TIP3   OH265926   0.230   0.408  11.849 -0.2809  0.1660  0.1844
14812TIP3    H165927   0.201   0.469  11.781 -0.1043  1.6699  1.4059
14812TIP3    H265928   0.163   0.413  11.916  0.7483  0.5821  1.2101
14813TIP3   OH265929   5.771   4.951   5.772 -0.1829  0.4977 -0.6255
14813TIP3    H165930   5.858   4.930   5.808 -0.6018  0.1639  0.2202
14813TIP3    H265931   5.710   4.913   5.834 -0.9440  0.8077 -1.1741
14814TIP3   OH265932   5.490   1.507   0.747  0.1311  0.4500 -0.2779
14814TIP3    H165933   5.441   1.578   0.706 -1.0285  0.9457  1.8521
14814TIP3    H265934   5.424   1.443   0.771  0.9160 -0.3143 -0.1272
14815TIP3   OH265935   6.553   4.846   4.221 -0.5703 -0.1207  0.3371
14815TIP3    H165936   6.507   4.779   4.272  1.5114 -1.8609  0.0425
14815TIP3    H265937   6.606   4.893   4.285 -1.1238  0.5057  0.3545
14816TIP3   OH265938   3.202   6.240   0.686  0.0227 -0.0033 -0.1436
14816TIP3    H165939   3.266   6.171   0.702  0.1632  0.1812  0.0937
14816TIP3    H265940   3.168   6.221   0.598  0.4441 -0.0718 -0.2948
14817TIP3   OH265941   0.308   2.594  15.743 -0.2376 -0.1760  0.3004
14817TIP3    H165942   0.361   2.518  15.720 -0.1014 -0.1683  0.5780
14817TIP3    H265943   0.220   2.574  15.711 -0.7907 -1.4874  2.4240
14818TIP3   OH265944   1.240   4.392   1.513 -0.5988  0.4332  0.6041
14818TIP3    H165945   1.151   4.421   1.496 -1.0938  1.0519  3.6205
14818TIP3    H265946   1.235   4.297   1.516 -0.5000  0.2729 -1.9471
14819TIP3   OH265947   6.249   2.236   0.251  0.3437  0.0206  0.2528
14819TIP3    H165948   6.173   2.202   0.299  0.4935 -2.4292 -1.0439
14819TIP3    H265949   6.323   2.224   0.310  0.1712 -0.7064  0.3355
14820TIP3   OH265950   3.831   3.950   2.317 -0.5498 -0.2696 -0.0497
14820TIP3    H165951   3.814   3.945   2.222 -1.8538  0.0716  0.1350
14820TIP3    H265952   3.861   4.039   2.331 -0.6389 -0.2313 -0.1006
14821TIP3   OH265953   4.757   5.444  14.473 -0.1284  0.6038  0.0342
14821TIP3    H165954   4.714   5.369  14.432 -0.9495  0.5438  0.9591
14821TIP3    H265955   4.695   5.473  14.540  0.3041  1.9360 -0.1138
14822TIP3   OH265956   2.395   2.778   4.155  0.0884  0.1831  0.1524
14822TIP3    H165957   2.350   2.724   4.091  0.1667  0.9531 -0.5632
14822TIP3    H265958   2.487   2.774   4.130  0.1641  0.2327  0.4140
14823TIP3   OH265959   2.641   4.867  14.523  0.3315  0.1854 -0.0057
14823TIP3    H165960   2.553   4.833  14.507 -0.1971 -0.4670  3.6460
14823TIP3    H265961   2.700   4.802  14.484 -0.7189  0.0954 -1.5425
14824TIP3   OH265962   0.021   5.619   4.555  0.1460 -0.2940  0.2704
14824TIP3    H165963  -0.036   5.548   4.525 -0.3766  0.6909 -1.1807
14824TIP3    H265964   0.072   5.644   4.478 -0.3388  1.5060  0.4826
14825TIP3   OH265965   4.214   4.003   4.773  0.5644  0.0693 -0.0326
14825TIP3    H165966   4.303   3.994   4.739  0.5362  1.2768 -0.4533
14825TIP3    H265967   4.161   3.945   4.718  0.9776 -0.1208 -0.2306
14826TIP3   OH265968   6.729   5.329   1.029  0.7739  0.0299  0.0980
14826TIP3    H165969   6.646   5.315   1.074  0.3777  1.1522 -0.2365
14826TIP3    H265970   6.724   5.273   0.952  1.0549 -1.1821  0.9491
14827TIP3   OH265971   0.463   0.244  13.151 -0.3933 -0.5503  0.2473
14827TIP3    H165972   0.554   0.214  13.147  0.0115  0.5792  0.5950
14827TIP3    H265973   0.412   0.172  13.113  0.4909 -1.8085  1.3789
14828TIP3   OH265974   3.908   0.657   3.691 -0.5660 -0.2174 -0.2322
14828TIP3    H165975   3.840   0.670   3.625 -0.6784  0.1459 -0.0481
14828TIP3    H265976   3.953   0.741   3.697 -1.5554  0.2335  1.2543
14829TIP3   OH265977   0.096   2.786   2.000 -0.0593 -0.1134  0.1145
14829TIP3    H165978   0.070   2.871   2.036  0.7023  0.5996 -0.9548
14829TIP3    H265979   0.038   2.772   1.925  2.0642  1.2144 -1.9270
14830TIP3   OH265980   1.715   3.994   2.752 -0.0606 -0.1776  0.5953
14830TIP3    H165981   1.702   3.963   2.663  0.8591 -0.9113  0.6961
14830TIP3    H265982   1.808   3.978   2.770 -0.4535 -1.0530  2.0475
14831TIP3   OH265983   4.645   3.772  15.328 -0.2695  0.3455  0.3538
14831TIP3    H165984   4.622   3.865  15.325  0.1219  0.4964  1.5439
14831TIP3    H265985   4.573   3.729  15.282 -1.3732  1.0892  1.3165
14832TIP3   OH265986   4.745   3.987  13.619 -0.3725 -0.3252 -0.3365
14832TIP3    H165987   4.702   4.020  13.698  0.4812 -0.6014  0.2552
14832TIP3    H265988   4.688   4.015  13.547 -1.5590 -0.7179  0.4230
14833TIP3   OH265989   4.275   6.531   3.789 -0.5686 -0.1794 -0.0017
14833TIP3    H165990   4.362   6.566   3.808  0.1445 -0.0138 -3.1069
14833TIP3    H265991   4.269   6.451   3.842  1.3471 -0.0216  0.5084
14834TIP3   OH265992   4.942   3.864   1.814  0.6996 -0.0288 -0.1838
14834TIP3    H165993   4.969   3.944   1.768  1.6534 -0.0384  0.3377
14834TIP3    H265994   4.847   3.873   1.822  0.7367  0.8465 -0.5278
14835TIP3   OH265995   4.118   4.447  16.309 -0.2600 -0.1672 -0.5402
14835TIP3    H165996   4.173   4.392  16.252  1.3691  0.7203  0.1277
14835TIP3    H265997   4.178   4.482  16.374 -1.2633  2.3517 -0.8840
14836TIP3   OH265998   6.182   3.256   4.167  0.1328  0.8134  0.2436
14836TIP3    H165999   6.144   3.169   4.181  2.0061  0.0449  0.8908
14836TIP3    H266000   6.225   3.249   4.081  0.1695  1.1440  0.2354
14837TIP3   OH266001   3.771   1.052  15.361 -0.1665 -0.1344  0.2714
14837TIP3    H166002   3.781   1.015  15.449 -1.2391  0.7838  0.8134
14837TIP3    H266003   3.849   1.105  15.348  0.0045 -0.2836  0.6646
14838TIP3   OH266004   3.412   5.798  12.000  0.7868 -0.3065 -0.1219
14838TIP3    H166005   3.368   5.831  12.078  0.0092 -0.1203 -0.6242
14838TIP3    H266006   3.468   5.871  11.971  2.4375 -0.9798  1.2338
14839TIP3   OH266007   5.136   6.342  15.814 -0.4581 -0.4371 -0.0748
14839TIP3    H166008   5.164   6.300  15.733 -0.0225  1.4541 -0.9500
14839TIP3    H266009   5.101   6.427  15.787  1.8127  1.2457  1.8615
14840TIP3   OH266010   2.647   6.327  16.449 -0.0537 -0.0594  0.4296
14840TIP3    H166011   2.733   6.316  16.407 -0.4507 -0.2708 -0.3619
14840TIP3    H266012   2.654   6.278  16.531  0.4996 -0.2914  0.2501
14841TIP3   OH266013   5.870   1.281  11.897  0.2832  0.6101  0.4330
14841TIP3    H166014   5.852   1.355  11.840  2.6181 -0.2948 -1.6679
14841TIP3    H266015   5.798   1.220  11.882  0.4856  0.6999 -1.0793
14842TIP3   OH266016   0.748   6.110   4.652 -0.2223  0.0858 -0.0427
14842TIP3    H166017   0.661   6.104   4.690 -0.3189  3.0096  0.4550
14842TIP3    H266018   0.804   6.139   4.724  0.7505  0.2044 -0.8170
14843TIP3   OH266019   4.900   5.906  12.367 -0.2844  0.4269  0.6973
14843TIP3    H166020   4.971   5.859  12.323 -0.5030  0.0964  0.6942
14843TIP3    H266021   4.942   5.949  12.441  0.0131  0.6551  0.3998
14844TIP3   OH266022   0.159   6.253   5.050 -0.5835  0.0779 -0.2374
14844TIP3    H166023   0.149   6.334   5.099 -0.8722 -0.3036  0.3469
14844TIP3    H266024   0.070   6.219   5.041 -0.3602 -0.8125  0.6377
14845TIP3   OH266025   0.765   1.640  16.284  0.5540  0.7288  0.0916
14845TIP3    H166026   0.701   1.627  16.214  2.1126  0.2042 -1.2862
14845TIP3    H266027   0.814   1.557  16.288 -0.4205  0.1696  2.8356
14846TIP3   OH266028   4.661   5.641  12.331 -0.6579 -0.1095 -0.2879
14846TIP3    H166029   4.738   5.685  12.367 -1.4483  0.7688  0.3682
14846TIP3    H266030   4.675   5.642  12.236  0.6154 -0.8772 -0.1270
14847TIP3   OH266031   3.603   0.445   4.160 -0.5568  0.1089 -0.0323
14847TIP3    H166032   3.528   0.483   4.206  1.7298  4.1789  0.7926
14847TIP3    H266033   3.576   0.445   4.068 -1.9275  0.5841  0.3352
14848TIP3   OH266034   1.159   1.323  12.916 -0.4489 -0.0692  0.2724
14848TIP3    H166035   1.217   1.307  12.990 -1.0027 -0.7812  0.5732
14848TIP3    H266036   1.166   1.243  12.863 -1.8693 -0.5986  0.8262
14849TIP3   OH266037   0.653   5.726   3.144 -0.1730 -0.4703  0.1912
14849TIP3    H166038   0.564   5.744   3.172 -0.2379  0.1386 -0.3785
14849TIP3    H266039   0.644   5.687   3.057  0.0524 -1.8009  0.7365
14850TIP3   OH266040   0.090   1.281   4.433 -0.4572 -0.2055  0.5954
14850TIP3    H166041   0.016   1.277   4.373  0.4771 -1.2822 -0.5357
14850TIP3    H266042   0.098   1.192   4.468  1.4083 -0.6046 -0.7265
14851TIP3   OH266043   4.677   5.957   1.301 -0.0869  0.0390  0.4397
14851TIP3    H166044   4.682   6.053   1.298 -0.1989  0.0830  1.3418
14851TIP3    H266045   4.587   5.939   1.325  0.1493 -0.2697  1.1022
14852TIP3   OH266046   3.978   1.506  13.222 -0.2902 -0.0107 -0.3456
14852TIP3    H166047   3.966   1.588  13.174 -1.1062  0.1979  0.1840
14852TIP3    H266048   3.941   1.523  13.308  0.9548 -0.4500  0.2985
14853TIP3   OH266049   5.533   1.964  17.060 -0.0258  0.2707  0.5517
14853TIP3    H166050   5.614   1.917  17.041 -0.4343 -0.9256  1.6605
14853TIP3    H266051   5.530   1.969  17.155 -0.4010  1.8813  0.4884
14854TIP3   OH266052   4.994   4.285  12.341  0.0846  0.2152 -0.5105
14854TIP3    H166053   4.967   4.193  12.339  0.6680 -0.0157 -3.4819
14854TIP3    H266054   4.926   4.331  12.291  0.8695  1.0064 -0.8856
14855TIP3   OH266055   2.853   1.106  16.287 -0.2144  0.1974 -0.5301
14855TIP3    H166056   2.855   1.105  16.192 -0.9464 -3.0287 -0.6309
14855TIP3    H266057   2.760   1.104  16.309 -0.0666 -1.2344  0.1313
14856TIP3   OH266058   0.283   3.352  13.313  0.0642  0.2400  0.4267
14856TIP3    H166059   0.288   3.269  13.360  1.0824  0.7504  1.2582
14856TIP3    H266060   0.374   3.376  13.296 -0.2513  0.4127 -1.2293
14857TIP3   OH266061   3.555   6.722   0.605 -0.0325  0.0492 -0.4866
14857TIP3    H166062   3.545   6.805   0.558  1.2955  1.1918  1.1097
14857TIP3    H266063   3.467   6.699   0.634 -0.2606  1.6258  0.1654
14858TIP3   OH266064   5.403   5.238  11.297  0.6108  0.1741 -0.4653
14858TIP3    H166065   5.376   5.258  11.207  1.1304  1.2398 -0.4011
14858TIP3    H266066   5.491   5.275  11.304  0.7127 -0.2107  0.3794
14859TIP3   OH266067   1.211   0.687   4.048 -0.0688 -0.1644  0.3944
14859TIP3    H166068   1.297   0.690   4.005  0.2697 -0.8533  1.0131
14859TIP3    H266069   1.149   0.702   3.977  0.5423 -0.0956 -0.1366
14860TIP3   OH266070   6.651   3.432  16.192 -0.1751 -0.6300 -0.5811
14860TIP3    H166071   6.720   3.402  16.133  1.6511 -1.3991  1.7527
14860TIP3    H266072   6.569   3.411  16.147  1.0758 -0.6306 -3.0290
14861TIP3   OH266073   1.559   0.132  12.500  0.0620  0.2929 -0.8544
14861TIP3    H166074   1.500   0.098  12.568 -0.2455  1.0655 -0.7181
14861TIP3    H266075   1.577   0.057  12.444  0.9957 -0.5658  0.5548
14862TIP3   OH266076   1.118   2.416   1.299 -0.3260 -0.7376 -0.2361
14862TIP3    H166077   1.066   2.497   1.302 -0.4755 -0.8356 -0.1299
14862TIP3    H266078   1.056   2.347   1.325 -0.3296 -0.9524 -0.7946
14863TIP3   OH266079   3.705   4.446  13.921  0.0036  0.4013 -0.1419
14863TIP3    H166080   3.698   4.540  13.905 -0.1540  0.1233 -1.8370
14863TIP3    H266081   3.799   4.429  13.924  0.0477  0.3942 -1.2958
14864TIP3   OH266082   4.472   4.768   4.295  0.1862 -0.3378 -0.2221
14864TIP3    H166083   4.426   4.851   4.305  1.5800  0.2789  1.5589
14864TIP3    H266084   4.442   4.715   4.369  0.8698 -0.6517 -0.1647
14865TIP3   OH266085   3.380   3.041   2.704  0.4303  0.1801  0.0672
14865TIP3    H166086   3.449   3.065   2.643 -0.3262  0.3852 -0.7318
14865TIP3    H266087   3.362   3.121   2.753  1.3268 -0.0937  0.8742
14866TIP3   OH266088   0.003   1.008   5.254 -0.2758 -0.6209  0.1959
14866TIP3    H166089  -0.080   1.042   5.223 -1.4684  0.1438  3.7150
14866TIP3    H266090   0.060   1.085   5.259 -0.9452 -0.2055  2.2059
14867TIP3   OH266091   2.884   4.500   6.734 -0.8322 -0.4769 -0.0002
14867TIP3    H166092   2.924   4.585   6.754  0.5431 -1.2053  0.5135
14867TIP3    H266093   2.809   4.521   6.678  1.8678  0.8224 -3.5292
14868TIP3   OH266094   3.280   2.576   5.485 -0.0530  0.0473 -0.3517
14868TIP3    H166095   3.296   2.493   5.529  1.8217  1.1516  1.1709
14868TIP3    H266096   3.311   2.562   5.396 -1.8977 -1.5493 -0.8108
14869TIP3   OH266097   4.647   3.503   0.304  0.0729 -0.7737 -0.0875
14869TIP3    H166098   4.610   3.586   0.337  0.6130  0.4738 -2.4093
14869TIP3    H266099   4.625   3.503   0.211  3.2801 -1.4166 -0.9487
14870TIP3   OH266100   0.310   1.863   2.754  0.1532 -0.7493 -0.3849
14870TIP3    H166101   0.334   1.956   2.751  0.4201 -0.7124  1.6564
14870TIP3    H266102   0.367   1.826   2.822 -0.1548 -2.3623 -0.9641
14871TIP3   OH266103   1.526   1.597  15.460 -0.4436  0.4283  0.5227
14871TIP3    H166104   1.462   1.618  15.528  0.4064 -1.2263  1.8882
14871TIP3    H266105   1.551   1.506  15.477 -0.3386 -0.1139 -2.1368
14872TIP3   OH266106   5.985   1.765  13.599  0.2159  0.5621 -0.4251
14872TIP3    H166107   5.898   1.801  13.614  0.1735  0.1840  0.2582
14872TIP3    H266108   5.999   1.776  13.505 -1.0137 -0.3486 -0.7406
14873TIP3   OH266109   1.260   0.441   2.884  0.4044 -0.2077 -0.2832
14873TIP3    H166110   1.209   0.520   2.901  0.3539 -0.2550 -0.2161
14873TIP3    H266111   1.206   0.370   2.918  1.6301 -0.0635  2.2131
14874TIP3   OH266112   6.023   0.894  11.838  0.1820 -0.5445  0.6392
14874TIP3    H166113   5.938   0.850  11.843  0.5733 -1.4135 -0.0299
14874TIP3    H266114   6.029   0.924  11.747  0.7536 -0.8258  0.5824
14875TIP3   OH266115   0.572   6.766   2.480 -0.4962 -0.8672 -0.0312
14875TIP3    H166116   0.532   6.802   2.402  0.7943 -1.0481 -0.8003
14875TIP3    H266117   0.663   6.750   2.456 -0.0203 -0.7549  1.5596
14876TIP3   OH266118   1.691   1.729   0.960  0.2773  0.3985  0.3778
14876TIP3    H166119   1.649   1.648   0.930  0.8948  0.2382 -0.0766
14876TIP3    H266120   1.703   1.781   0.881  0.3631  0.7104  0.5934
14877TIP3   OH266121   0.884   3.727  13.246  0.5919 -0.0363  0.4616
14877TIP3    H166122   0.819   3.696  13.310 -0.2118  0.2733 -0.1898
14877TIP3    H266123   0.912   3.812  13.278  0.6094 -0.1309  0.6966
14878TIP3   OH266124   5.933   5.138   2.301 -0.2704 -0.2822 -0.1157
14878TIP3    H166125   5.927   5.054   2.257 -0.0344 -1.5351  2.1010
14878TIP3    H266126   5.997   5.125   2.371 -0.2160  1.7490  0.2996
14879TIP3   OH266127   2.241   4.461   2.643 -0.0820 -0.3499  0.3681
14879TIP3    H166128   2.167   4.401   2.639  0.0083 -0.3859 -1.1247
14879TIP3    H266129   2.203   4.545   2.667 -0.5298 -0.4812  0.1231
14880TIP3   OH266130   4.973   6.165  12.073  0.5368 -0.0176  0.5308
14880TIP3    H166131   4.915   6.193  12.144 -1.2939 -1.7479 -0.2020
14880TIP3    H266132   4.958   6.071  12.066  1.2614 -0.0207 -1.6410
14881TIP3   OH266133   1.366   6.164   4.478  0.0697 -0.0978  0.6110
14881TIP3    H166134   1.339   6.168   4.570  0.7105 -2.5093  0.9909
14881TIP3    H266135   1.302   6.107   4.436 -1.5510  2.7409 -1.0822
14882TIP3   OH266136   0.138   4.120   1.729 -0.1236  0.1820 -0.4617
14882TIP3    H166137   0.090   4.183   1.783  0.5032 -0.7633  1.2825
14882TIP3    H266138   0.131   4.038   1.776  2.7272 -0.1080 -0.3830
14883TIP3   OH266139   2.541   2.658  12.172  0.3942  0.2817  0.2289
14883TIP3    H166140   2.532   2.605  12.252  1.3557  0.5400  0.5305
14883TIP3    H266141   2.574   2.742  12.203  0.2557  0.5679 -0.3917
14884TIP3   OH266142   6.372   4.404  15.157  0.1556  0.2821 -0.0912
14884TIP3    H166143   6.383   4.317  15.118  0.2583  0.8008 -1.2500
14884TIP3    H266144   6.362   4.387  15.250 -2.1994 -1.1641 -0.5270
14885TIP3   OH266145   1.451   4.393  17.144 -0.0504  0.0378 -0.3089
14885TIP3    H166146   1.398   4.381  17.223  0.0905 -1.0845 -0.3777
14885TIP3    H266147   1.389   4.425  17.078 -0.5135 -0.6381 -0.2080
14886TIP3   OH266148   0.406   3.494  14.544 -0.0339 -0.2016  0.1666
14886TIP3    H166149   0.332   3.451  14.500 -0.1032  0.4613 -0.3860
14886TIP3    H266150   0.469   3.423  14.560  0.1531 -0.4253 -1.3388
14887TIP3   OH266151   6.120   0.375  14.585 -0.5423 -0.1855 -0.0296
14887TIP3    H166152   6.131   0.333  14.499 -2.7389  1.0475 -0.9942
14887TIP3    H266153   6.205   0.365  14.627  1.2159  0.7065 -3.0509
14888TIP3   OH266154   5.859   6.330  15.713 -1.1034 -0.3381 -0.1838
14888TIP3    H166155   5.833   6.293  15.629 -0.0178  0.4884 -0.9263
14888TIP3    H266156   5.954   6.343  15.705 -1.2875  1.7302  0.3377
14889TIP3   OH266157   1.907   1.660   0.539  0.0111  0.3912 -0.4411
14889TIP3    H166158   1.893   1.571   0.508 -1.8856 -0.1087  1.6218
14889TIP3    H266159   1.911   1.713   0.459  1.7183 -1.5428 -1.7391
14890TIP3   OH266160   1.044   1.439  15.009  0.4131 -0.0192 -0.6039
14890TIP3    H166161   1.135   1.426  14.986 -0.1242 -2.9841 -1.4200
14890TIP3    H266162   1.044   1.443  15.105  1.1457 -3.6683 -0.3218
14891TIP3   OH266163   2.472   5.272   3.983  0.0500  0.8387  0.0832
14891TIP3    H166164   2.439   5.332   4.050 -1.0267 -0.1738  0.4863
14891TIP3    H266165   2.394   5.231   3.947  0.5182  1.9878 -2.4463
14892TIP3   OH266166   5.089   3.898  14.174 -0.2921 -0.1082  0.8873
14892TIP3    H166167   5.097   3.993  14.170 -1.5111 -0.0440 -0.7029
14892TIP3    H266168   4.995   3.881  14.173 -0.1086 -1.3892 -1.3659
14893TIP3   OH266169   2.553   5.716  13.233  0.5016  0.0219  0.1831
14893TIP3    H166170   2.537   5.785  13.298  1.4395  1.3308 -0.8966
14893TIP3    H266171   2.618   5.660  13.274  2.3148  1.7468 -0.1466
14894TIP3   OH266172   1.896   5.866   6.001  0.4141 -0.5088 -0.1262
14894TIP3    H166173   1.975   5.909   6.034  0.5739 -1.0292  0.1811
14894TIP3    H266174   1.840   5.857   6.078 -1.4935  3.0305 -0.8956
14895TIP3   OH266175   0.379   4.013   1.659 -0.4046 -0.7104  0.4904
14895TIP3    H166176   0.397   3.926   1.696  0.3384 -0.0784  1.6599
14895TIP3    H266177   0.299   4.042   1.702 -0.0037 -0.3263  0.9825
14896TIP3   OH266178   4.624   2.367  11.927  0.7585 -0.0422 -0.4870
14896TIP3    H166179   4.610   2.382  12.021  1.7176 -0.8195 -0.2036
14896TIP3    H266180   4.538   2.340  11.894  0.1308  1.3773 -0.0857
14897TIP3   OH266181   6.275   5.885  13.259  0.7990  0.1604 -0.0568
14897TIP3    H166182   6.278   5.791  13.274 -1.6711  0.1204  0.7226
14897TIP3    H266183   6.268   5.923  13.346  1.2135  1.0357 -0.3925
14898TIP3   OH266184   0.617   0.513  14.076 -0.3646  0.1214  0.4426
14898TIP3    H166185   0.688   0.475  14.129  1.7001  0.7219 -1.7196
14898TIP3    H266186   0.641   0.605  14.067 -0.6745  0.0477 -1.4523
14899TIP3   OH266187   5.969   4.404  16.276  0.3595  0.0426  0.3022
14899TIP3    H166188   5.878   4.424  16.252 -0.1316 -2.5665 -0.3921
14899TIP3    H266189   6.022   4.465  16.224 -0.9408 -0.4409 -1.7200
14900TIP3   OH266190   5.747   0.629   1.064  0.1359  0.5080  0.3035
14900TIP3    H166191   5.796   0.659   0.987 -0.3221  0.8436  0.1353
14900TIP3    H266192   5.721   0.709   1.109 -2.8583  0.5881 -1.2482
14901TIP3   OH266193   5.279   2.530  13.670  0.2653 -1.2487 -0.7491
14901TIP3    H166194   5.290   2.436  13.687 -0.1673 -0.9042  1.8593
14901TIP3    H266195   5.346   2.572  13.725 -0.9186  0.0280 -0.2244
14902TIP3   OH266196   3.005   0.694  16.093 -0.1623  0.0781  0.0011
14902TIP3    H166197   3.022   0.617  16.039 -0.8643 -0.9094  1.1336
14902TIP3    H266198   3.088   0.709  16.140 -0.5337 -1.1214  1.1115
14903TIP3   OH266199   0.915   5.790  13.208 -0.6229 -0.0414  0.4888
14903TIP3    H166200   0.882   5.775  13.296 -1.0466  0.2334  0.3794
14903TIP3    H266201   0.840   5.823  13.159 -0.5619 -0.8281 -0.1501
14904TIP3   OH266202   3.194   5.056  14.285  0.4161  0.2345 -0.1301
14904TIP3    H166203   3.154   5.121  14.227  0.3179 -1.2752 -1.8721
14904TIP3    H266204   3.265   5.018  14.233  0.9425 -0.5302  1.1108
14905TIP3   OH266205   2.177   1.271   6.585 -0.1083 -0.2704 -0.0413
14905TIP3    H166206   2.203   1.181   6.607 -2.0932 -1.0588 -0.6482
14905TIP3    H266207   2.105   1.290   6.646  0.0329  0.7701 -0.1880
14906TIP3   OH266208   1.927   2.682  17.012  0.0714  0.1248  0.2651
14906TIP3    H166209   1.995   2.746  16.991  0.1536 -0.3210 -0.9268
14906TIP3    H266210   1.976   2.603  17.035 -0.0358 -0.1571 -0.4600
14907TIP3   OH266211   5.091   0.871   6.075 -0.4818 -0.1414  0.6070
14907TIP3    H166212   5.075   0.957   6.112 -0.9058 -0.2364  0.6418
14907TIP3    H266213   5.073   0.810   6.146 -2.4771 -0.3997 -0.0775
14908TIP3   OH266214   0.489   0.975   1.999  0.6538  0.4044  0.4029
14908TIP3    H166215   0.506   0.886   2.030 -1.2207 -0.1033  0.0822
14908TIP3    H266216   0.486   0.967   1.904  1.9839  1.1313  0.2706
14909TIP3   OH266217   3.188   1.913  15.738  0.0413 -0.2322 -0.6705
14909TIP3    H166218   3.173   2.006  15.724  1.8217 -0.0401 -1.5430
14909TIP3    H266219   3.283   1.903  15.739 -0.0578 -2.2679 -2.3436
14910TIP3   OH266220   2.505   4.761   2.355  0.1417  0.5698  0.1709
14910TIP3    H166221   2.412   4.780   2.346  0.2365  1.0804  0.2028
14910TIP3    H266222   2.512   4.666   2.347 -0.3394  0.5622 -0.1700
14911TIP3   OH266223   6.111   6.266   1.462 -0.0227 -0.1030  0.0579
14911TIP3    H166224   6.117   6.229   1.550  0.1359 -0.1662  0.0200
14911TIP3    H266225   6.155   6.202   1.406 -1.6572 -0.9620 -0.3288
14912TIP3   OH266226   0.346   0.329   6.160  0.5318  0.1203 -0.2187
14912TIP3    H166227   0.298   0.349   6.241 -2.6606  0.1315 -1.9356
14912TIP3    H266228   0.394   0.249   6.180 -0.3533  0.0026  1.6522
14913TIP3   OH266229   2.007   3.210  11.880  0.3032 -0.8393 -0.2432
14913TIP3    H166230   1.945   3.224  11.808  1.7379  0.7123 -1.2496
14913TIP3    H266231   1.985   3.278  11.943  1.0787 -0.1593 -0.6926
14914TIP3   OH266232   0.044   6.318  16.423  0.5927 -0.5195  0.0932
14914TIP3    H166233   0.102   6.373  16.371  0.4678 -0.0457  0.4527
14914TIP3    H266234   0.052   6.231  16.384  1.7189 -0.5135  0.2905
14915TIP3   OH266235   2.910   4.210  14.904 -0.2121 -0.3356 -0.6693
14915TIP3    H166236   2.941   4.141  14.846 -0.3896 -0.6938 -0.3495
14915TIP3    H266237   2.955   4.193  14.987  1.6830  1.4143 -1.2528
14916TIP3   OH266238   1.762   3.590  16.807 -0.0975 -0.7120 -0.1059
14916TIP3    H166239   1.683   3.637  16.833  1.6861  1.0692  2.6099
14916TIP3    H266240   1.816   3.657  16.764  0.3235 -1.6788 -1.1221
14917TIP3   OH266241   4.640   2.560  12.829  0.1095  0.4884  0.2342
14917TIP3    H166242   4.674   2.582  12.743 -0.6369 -0.3204 -0.2775
14917TIP3    H266243   4.546   2.545  12.816  0.3901 -2.1458  0.6649
14918TIP3   OH266244   0.525   6.710   4.848  0.1427 -0.3623 -0.2441
14918TIP3    H166245   0.516   6.640   4.783 -0.8323  0.1126 -0.6469
14918TIP3    H266246   0.617   6.737   4.842  0.3179 -1.0368 -0.6813
14919TIP3   OH266247   5.800   5.802   2.102  0.4974 -1.1174 -0.2422
14919TIP3    H166248   5.713   5.833   2.078  1.0428  1.7570  1.0213
14919TIP3    H266249   5.800   5.798   2.197  2.5257  2.1087  0.0687
14920TIP3   OH266250   4.185   2.724  16.067  0.0141  0.0377 -0.6085
14920TIP3    H166251   4.163   2.657  16.131  0.2639 -1.1967 -1.7589
14920TIP3    H266252   4.172   2.682  15.982 -0.0115  1.5125 -1.3846
14921TIP3   OH266253   6.350   3.134   2.882 -0.1900 -0.0964  0.1436
14921TIP3    H166254   6.285   3.080   2.837 -1.9766  0.6227  1.7512
14921TIP3    H266255   6.365   3.089   2.965  0.7159  0.2232  0.1636
14922TIP3   OH266256   2.525   3.121  16.484  0.5443  0.1673  0.2495
14922TIP3    H166257   2.608   3.162  16.460  0.5151 -1.1431 -2.6129
14922TIP3    H266258   2.458   3.181  16.452  0.4890 -0.6942 -1.3715
14923TIP3   OH266259   6.073   0.594   3.860  0.2846  0.1689 -0.1731
14923TIP3    H166260   6.165   0.568   3.867  0.3240  0.2437 -0.4034
14923TIP3    H266261   6.075   0.690   3.861  0.3517  0.2063 -1.8056
14924TIP3   OH266262   3.349   6.484  13.711  0.7602  0.6073  0.2361
14924TIP3    H166263   3.281   6.418  13.700 -0.1322  1.8630 -3.0951
14924TIP3    H266264   3.427   6.444  13.672  0.6073  0.9257 -0.4143
14925TIP3   OH266265   3.204   2.114  17.321 -0.0060  0.3117 -0.2779
14925TIP3    H166266   3.153   2.105  17.402 -0.3955  0.3721 -0.5121
14925TIP3    H266267   3.165   2.050  17.261  0.6315 -0.1197 -0.2465
14926TIP3   OH266268   6.048   1.071  14.578 -0.4304 -0.8768  0.0795
14926TIP3    H166269   6.000   1.045  14.656  0.6323 -3.6045 -0.0683
14926TIP3    H266270   5.984   1.068  14.507 -1.3384  1.3684  0.7111
14927TIP3   OH266271   6.626   0.871   1.768 -0.1733 -0.5933  0.1850
14927TIP3    H166272   6.684   0.875   1.692  1.1030 -3.6351  0.8564
14927TIP3    H266273   6.684   0.851   1.841 -1.5125  1.2141  1.8451
14928TIP3   OH266274   1.418   1.222  11.988  0.1440  0.0409  0.1062
14928TIP3    H166275   1.376   1.139  11.964  1.1855 -0.6574  0.6527
14928TIP3    H266276   1.469   1.246  11.910 -1.0928  0.8248 -0.5096
14929TIP3   OH266277   2.761   0.771  14.197  0.3753  0.3167  0.2160
14929TIP3    H166278   2.752   0.719  14.277 -3.1284  2.4137  1.4257
14929TIP3    H266279   2.733   0.712  14.127  2.2862 -1.1638  0.6172
14930TIP3   OH266280   1.779   0.118  16.149  0.7593  0.5722  0.7094
14930TIP3    H166281   1.795   0.112  16.055 -0.0500 -1.7423  0.6684
14930TIP3    H266282   1.683   0.126  16.157  0.4081 -2.9276  1.3583
14931TIP3   OH266283   0.391   0.247  14.844 -0.7424 -0.1637  0.1740
14931TIP3    H166284   0.386   0.277  14.935 -0.8044  1.7952 -0.4164
14931TIP3    H266285   0.485   0.239  14.826 -0.7051  0.1863  0.2037
14932TIP3   OH266286   0.418   6.402  15.769  0.0321 -0.0219  0.1910
14932TIP3    H166287   0.472   6.323  15.777  2.0034  1.2835  0.4273
14932TIP3    H266288   0.329   6.372  15.786  0.8264 -2.0498  1.0907
14933TIP3   OH266289   5.483   6.743   4.983 -0.1794 -0.1405  0.5317
14933TIP3    H166290   5.418   6.795   5.030 -0.8089 -0.4659  0.0446
14933TIP3    H266291   5.567   6.778   5.011 -0.5902  1.6578 -0.3449
14934TIP3   OH266292   5.769   4.870   1.050 -0.6893  0.2953  0.0054
14934TIP3    H166293   5.849   4.889   1.000 -1.5024 -1.3217 -2.0797
14934TIP3    H266294   5.702   4.857   0.983 -2.0127 -1.3968  1.5771
14935TIP3   OH266295   0.852   4.263   0.609  0.3607 -0.2712  0.4262
14935TIP3    H166296   0.821   4.176   0.634  0.3720 -0.2912  0.3710
14935TIP3    H266297   0.782   4.322   0.637 -0.4162 -0.4458 -1.0163
14936TIP3   OH266298   4.932   3.958   4.078 -0.5156  0.8075 -0.0436
14936TIP3    H166299   5.021   3.925   4.061 -0.1414  0.1690  2.7157
14936TIP3    H266300   4.876   3.883   4.057  0.0228 -0.3774  2.3862
14937TIP3   OH266301   3.032   4.299   1.073 -0.5659  0.7985  0.3117
14937TIP3    H166302   2.999   4.293   0.984  1.6906  1.2099 -0.6173
14937TIP3    H266303   3.039   4.208   1.103  2.3792  0.2986 -1.4772
14938TIP3   OH266304   2.621   4.026  16.590  0.1898  0.1772 -0.4035
14938TIP3    H166305   2.700   3.988  16.627  0.2086  0.6564  0.0583
14938TIP3    H266306   2.624   4.118  16.616  0.8503  0.8621 -2.6364
14939TIP3   OH266307   4.035   1.557   1.803 -0.2583  0.0475 -0.0367
14939TIP3    H166308   3.994   1.545   1.717 -1.7579 -0.7796  0.7473
14939TIP3    H266309   4.001   1.484   1.856  1.0910  0.2044  1.0995
14940TIP3   OH266310   4.796   2.803  16.284 -0.5801 -0.1547  0.2725
14940TIP3    H166311   4.709   2.763  16.295 -1.5239  0.4514 -3.4056
14940TIP3    H266312   4.786   2.892  16.317 -1.7526  0.2146 -0.9639
14941TIP3   OH266313   2.614   5.419   3.055  0.1118  0.0216 -0.0835
14941TIP3    H166314   2.653   5.459   3.133 -1.1373 -0.0381  0.6099
14941TIP3    H266315   2.603   5.327   3.079 -1.0633  0.1703  0.0197
14942TIP3   OH266316   1.658   0.914   5.085 -0.5123  0.2090  0.4408
14942TIP3    H166317   1.603   0.992   5.093 -0.6378  0.2489 -0.7387
14942TIP3    H266318   1.702   0.908   5.171  0.3587  2.2308  0.2068
14943TIP3   OH266319   2.049   2.772   3.539 -0.1648  0.2110 -1.2295
14943TIP3    H166320   2.140   2.800   3.533 -0.4700  1.6332  0.0577
14943TIP3    H266321   2.000   2.853   3.553 -1.5891 -0.5647 -1.5459
14944TIP3   OH266322   3.239   6.275   2.699  0.5282  0.3372 -0.0115
14944TIP3    H166323   3.317   6.328   2.683 -0.2288  1.0776 -1.3920
14944TIP3    H266324   3.224   6.229   2.616  0.7756 -1.5540  0.9422
14945TIP3   OH266325   3.037   3.578  14.572  0.1265  0.2231 -0.3900
14945TIP3    H166326   3.010   3.670  14.572 -0.8851 -0.0492  0.6214
14945TIP3    H266327   3.001   3.543  14.653  1.7384 -0.7260 -0.0482
14946TIP3   OH266328   6.234   0.197   4.001 -0.1506  0.1308  0.0506
14946TIP3    H166329   6.161   0.139   4.022  0.7397 -1.2380 -0.4530
14946TIP3    H266330   6.279   0.209   4.085  0.4226 -1.0411 -0.0685
14947TIP3   OH266331   5.981   4.709  16.410  0.9453  0.1505 -0.3420
14947TIP3    H166332   6.007   4.652  16.339 -1.0939 -3.0160  1.2126
14947TIP3    H266333   5.916   4.768  16.371 -0.4698 -1.8125 -1.1407
14948TIP3   OH266334   4.574   3.635  15.789  0.8126 -1.1115  0.1194
14948TIP3    H166335   4.542   3.644  15.699  0.7410  1.1624  0.3105
14948TIP3    H266336   4.494   3.628  15.841  0.6714  1.0386  0.2736
14949TIP3   OH266337   3.634   6.687  15.795  0.1455  0.1946 -0.2881
14949TIP3    H166338   3.725   6.703  15.771  0.2535  0.0827  0.0502
14949TIP3    H266339   3.636   6.665  15.888 -0.2722  0.6248 -0.1666
14950TIP3   OH266340   4.719   1.623  16.944 -0.3917  0.0124  0.6026
14950TIP3    H166341   4.725   1.629  16.848  1.1074 -0.5432  0.6381
14950TIP3    H266342   4.749   1.535  16.965 -0.4756  0.2111  1.6107
14951TIP3   OH266343   5.759   1.791   4.265  0.0231 -0.3562  0.2840
14951TIP3    H166344   5.782   1.829   4.350  1.5801  0.0549 -0.3006
14951TIP3    H266345   5.704   1.716   4.287  1.9063 -1.3819  1.7801
14952TIP3   OH266346   5.457   1.022   3.290  0.2824  0.6241 -0.2130
14952TIP3    H166347   5.450   1.117   3.293  0.0123  0.6020 -0.1103
14952TIP3    H266348   5.368   0.992   3.273  0.3891  0.3937 -0.3762
14953TIP3   OH266349   0.494   3.253   5.701  0.2357  0.0509  0.0417
14953TIP3    H166350   0.403   3.272   5.677  0.2447 -1.8120 -1.6504
14953TIP3    H266351   0.487   3.180   5.762  0.5737  0.6224  0.7808
14954TIP3   OH266352   6.782   1.208   3.735 -0.2264 -0.3784 -0.1704
14954TIP3    H166353   6.709   1.250   3.690 -0.1067 -1.1420 -1.1275
14954TIP3    H266354   6.858   1.260   3.710 -0.6452  1.8234  2.6549
14955TIP3   OH266355   5.963   0.507  16.042 -0.0613 -0.1885  0.1371
14955TIP3    H166356   6.026   0.578  16.046 -0.0098 -0.2522  0.4482
14955TIP3    H266357   5.927   0.501  16.130 -0.5015 -0.1531 -0.0361
14956TIP3   OH266358   5.981   4.171   4.045 -0.1434 -0.5183 -0.0047
14956TIP3    H166359   5.980   4.223   4.125 -2.2051 -0.2850 -0.1272
14956TIP3    H266360   5.901   4.197   3.999  2.6496  2.1481 -3.9985
14957TIP3   OH266361   3.213   3.435  14.307 -0.5164 -0.1026 -0.0501
14957TIP3    H166362   3.223   3.466  14.397 -1.1529  1.1469 -0.3852
14957TIP3    H266363   3.301   3.412  14.279  0.0773  1.8560  0.0865
14958TIP3   OH266364   5.686   1.791  12.562  0.2462 -0.3978  0.1343
14958TIP3    H166365   5.772   1.789  12.605  0.4281 -0.8556 -0.2457
14958TIP3    H266366   5.681   1.877  12.520  0.1002  0.0268  0.9955
14959TIP3   OH266367   6.758   5.617  15.998  0.2137  0.2498  0.2772
14959TIP3    H166368   6.696   5.607  15.926 -1.1232 -0.9409  1.5183
14959TIP3    H266369   6.825   5.550  15.982 -0.7919 -0.9279  0.7812
14960TIP3   OH266370   4.346   5.172   0.149  0.2254 -0.2772 -0.7218
14960TIP3    H166371   4.421   5.133   0.105  0.5092 -0.4657 -0.0847
14960TIP3    H266372   4.354   5.266   0.133  0.4550 -0.3229 -0.8703
14961TIP3   OH266373   1.333   2.938   4.467 -0.0335 -0.2818  0.2226
14961TIP3    H166374   1.269   2.974   4.529 -2.0726 -0.2305 -1.7751
14961TIP3    H266375   1.411   2.993   4.478 -1.5235  1.9086  0.3989
14962TIP3   OH266376   1.104   6.476  13.449  0.1538  0.1897  0.6692
14962TIP3    H166377   1.121   6.527  13.370 -1.6480 -0.1927 -0.0012
14962TIP3    H266378   1.155   6.395  13.437 -1.6758 -0.7680 -1.0928
14963TIP3   OH266379   6.464   5.676  15.572  0.2441  0.4362  0.0718
14963TIP3    H166380   6.471   5.733  15.495  0.4375  1.1172  0.5811
14963TIP3    H266381   6.384   5.626  15.558  0.3683  0.4304 -0.6496
14964TIP3   OH266382   3.196   5.178   4.809 -0.0136  0.6287 -0.4899
14964TIP3    H166383   3.238   5.263   4.799  0.0789  0.3748 -2.8502
14964TIP3    H266384   3.230   5.144   4.891  2.8749  1.2954 -1.3007
14965TIP3   OH266385   1.654   1.291  16.290  0.0461 -0.0864 -0.3011
14965TIP3    H166386   1.698   1.333  16.216  3.4005 -0.5096  1.3020
14965TIP3    H266387   1.616   1.363  16.340 -0.1481  0.3946 -1.1295
14966TIP3   OH266388   0.529   5.619  11.554 -0.2722  0.0869 -0.2194
14966TIP3    H166389   0.459   5.611  11.620 -0.8282 -0.8516 -0.9060
14966TIP3    H266390   0.494   5.576  11.476  0.5511  0.8076 -1.0057
14967TIP3   OH266391   5.409   0.636   3.885  0.1174  0.0079 -0.0704
14967TIP3    H166392   5.394   0.615   3.977 -1.7573  0.4330 -0.2603
14967TIP3    H266393   5.362   0.717   3.870 -0.4841 -0.6007 -1.6636
14968TIP3   OH266394   0.063   0.788  10.767  0.2996  0.0223  0.3343
14968TIP3    H166395   0.111   0.772  10.685  1.3165  0.2300  0.8750
14968TIP3    H266396   0.036   0.701  10.796 -1.8799  0.0788 -1.2424
14969TIP3   OH266397   0.904   5.114  10.592  0.0909 -0.1493 -0.1297
14969TIP3    H166398   0.837   5.085  10.654 -0.4916  0.6030 -0.3963
14969TIP3    H266399   0.858   5.173  10.533  1.2060  1.2384  0.3231
14970TIP3   OH266400   0.319   2.045  13.207  0.2179  0.3660  0.1238
14970TIP3    H166401   0.261   1.972  13.227 -0.2690  0.3509 -1.2415
14970TIP3    H266402   0.366   2.018  13.128 -0.0465  1.5677 -0.4737
14971TIP3   OH266403   2.178   4.134   2.089 -0.4796 -0.0990  0.4128
14971TIP3    H166404   2.165   4.217   2.136  0.7405  0.0780  0.4748
14971TIP3    H266405   2.180   4.068   2.158 -3.8274 -0.5761  0.2354
14972TIP3   OH266406   3.768   4.820  16.625 -0.2860 -0.1903 -0.3460
14972TIP3    H166407   3.680   4.816  16.663  0.0977 -1.4126  0.4486
14972TIP3    H266408   3.759   4.779  16.539 -1.3260  3.2539 -2.0732
14973TIP3   OH266409   2.911   5.511  14.888 -0.0316 -0.0006  0.0195
14973TIP3    H166410   2.971   5.557  14.830  0.1405  1.4504  1.2988
14973TIP3    H266411   2.964   5.484  14.963 -0.8763  1.0374  1.0240
14974TIP3   OH266412   5.718   2.964   4.109  0.9812  0.3095  0.6679
14974TIP3    H166413   5.676   2.962   4.023  1.6133 -0.5582  0.3626
14974TIP3    H266414   5.716   2.873   4.139  0.6175  0.6312  1.6515
14975TIP3   OH266415   6.208   3.254   0.444 -0.1849 -0.7167  0.7342
14975TIP3    H166416   6.292   3.235   0.401 -0.6651 -0.7022 -0.2270
14975TIP3    H266417   6.211   3.203   0.525  0.4896 -1.2278  0.3971
14976TIP3   OH266418   3.446   3.566   6.025 -0.1938 -0.3726  0.7998
14976TIP3    H166419   3.450   3.471   6.011  2.6553 -0.6679  2.9641
14976TIP3    H266420   3.524   3.600   5.981 -1.4400  1.1199 -0.3817
14977TIP3   OH266421   0.532   3.998  16.908 -0.2112  0.1902  0.5340
14977TIP3    H166422   0.492   3.912  16.915  1.1800 -0.4950  0.4733
14977TIP3    H266423   0.617   3.988  16.951  0.1016  1.4472  0.2506
14978TIP3   OH266424   6.136   6.587   3.938 -0.3335  0.2391  0.0296
14978TIP3    H166425   6.158   6.613   3.848  0.2880  0.1327  0.1447
14978TIP3    H266426   6.102   6.667   3.978 -2.1635 -0.0908 -0.7614
14979TIP3   OH266427   1.560   0.983  12.670  0.7356  0.2185  0.1704
14979TIP3    H166428   1.655   0.980  12.665  0.7304 -2.0638  0.6885
14979TIP3    H266429   1.540   0.984  12.763  0.2701 -2.2113  0.1593
14980TIP3   OH266430   6.248   2.845  17.062 -0.2490 -0.7095  0.0884
14980TIP3    H166431   6.164   2.828  17.020 -0.9961  0.8431  0.8555
14980TIP3    H266432   6.255   2.940  17.063  0.9222 -0.7869  1.1835
14981TIP3   OH266433   4.887   5.579   5.533  0.4102  0.5506  0.0196
14981TIP3    H166434   4.940   5.499   5.526  1.1275  1.0540 -0.3717
14981TIP3    H266435   4.859   5.580   5.625  1.1754  0.3379  0.2650
14982TIP3   OH266436   0.541   3.670   2.194 -0.5100 -1.0105  0.2145
14982TIP3    H166437   0.535   3.610   2.119 -2.5608 -1.0257  0.3541
14982TIP3    H266438   0.580   3.617   2.263  1.6920 -0.9210 -0.8508
14983TIP3   OH266439   1.578   3.354  15.226  0.1235 -0.5693 -0.2090
14983TIP3    H166440   1.555   3.266  15.257 -0.1862 -0.5058 -0.2565
14983TIP3    H266441   1.494   3.398  15.213  0.2790 -0.2584 -0.1688
14984TIP3   OH266442   3.848   4.407  11.408  0.1214  0.6825  0.0610
14984TIP3    H166443   3.879   4.451  11.487 -1.9452 -0.0449  1.3599
14984TIP3    H266444   3.863   4.470  11.338  1.0372  1.7748  1.1850
14985TIP3   OH266445   0.435   6.607  11.502 -0.1525  0.4111 -0.7452
14985TIP3    H166446   0.344   6.623  11.524 -0.0368 -0.1859  0.2423
14985TIP3    H266447   0.441   6.512  11.493  0.7903  0.2432  1.2625
14986TIP3   OH266448   3.446   5.663  13.206  0.1441  0.1801  0.0878
14986TIP3    H166449   3.445   5.677  13.301  0.6522  1.2197 -0.0375
14986TIP3    H266450   3.428   5.570  13.195  1.2980 -0.2086  1.2607
14987TIP3   OH266451   4.811   3.840  14.217  0.0824  0.2980  0.5988
14987TIP3    H166452   4.734   3.877  14.260 -0.5133  1.3092 -1.2387
14987TIP3    H266453   4.820   3.753  14.256 -1.7048  0.3359  1.2041
14988TIP3   OH266454   4.708   3.724   2.297 -0.1753 -0.5276 -0.3972
14988TIP3    H166455   4.789   3.757   2.258  0.3149 -2.6479 -1.3135
14988TIP3    H266456   4.701   3.771   2.380  2.1894 -0.5508 -0.1136
14989TIP3   OH266457   4.932   3.077   5.928  0.6226 -0.1021 -0.0795
14989TIP3    H166458   4.886   3.139   5.873  2.6868  1.2725 -0.3670
14989TIP3    H266459   4.917   3.108   6.017  4.6272  3.3202 -0.2848
14990TIP3   OH266460   2.831   2.498  13.470 -0.0170  0.1894  0.2678
14990TIP3    H166461   2.885   2.510  13.391 -2.0972 -3.6905 -2.0547
14990TIP3    H266462   2.870   2.423  13.514 -0.4228  0.7148  1.5461
14991TIP3   OH266463   4.912   6.647  14.386  0.2642  0.5137  0.2658
14991TIP3    H166464   4.845   6.685  14.443 -0.4543 -0.0320 -0.1960
14991TIP3    H266465   4.976   6.608  14.446  0.4288  1.4650  0.7189
14992TIP3   OH266466   5.404   0.260   1.271 -0.1576 -0.3847  0.5075
14992TIP3    H166467   5.321   0.302   1.249 -0.6089 -1.5209 -0.0471
14992TIP3    H266468   5.471   0.325   1.250 -0.9111  0.6831  1.2979
14993TIP3   OH266469   4.315   5.138  15.848 -0.2824 -0.2158  0.1180
14993TIP3    H166470   4.362   5.180  15.776 -0.8113 -1.0387 -0.7472
14993TIP3    H266471   4.369   5.063  15.872 -1.5891 -1.8191 -1.6334
14994TIP3   OH266472   5.564   0.096  15.428  0.7233 -0.1379 -0.5137
14994TIP3    H166473   5.539   0.051  15.508  1.0888 -0.0343 -0.3408
14994TIP3    H266474   5.571   0.027  15.362  3.8019 -0.7580  0.3134
14995TIP3   OH266475   2.395   0.360  16.885  0.4850 -0.3879 -0.0652
14995TIP3    H166476   2.452   0.284  16.897 -0.4031 -1.4635 -2.1463
14995TIP3    H266477   2.455   0.432  16.865  1.3369 -0.4892  1.8695
14996TIP3   OH266478   1.643   1.806   1.814  1.0650 -0.7101  0.1812
14996TIP3    H166479   1.583   1.768   1.750  3.4659 -2.5517 -1.1358
14996TIP3    H266480   1.663   1.893   1.778  1.6883 -1.3719 -1.1787
14997TIP3   OH266481   1.927   3.470  10.854 -0.3900 -0.0677 -0.3271
14997TIP3    H166482   1.922   3.489  10.761  1.9517  0.4058 -0.4167
14997TIP3    H266483   1.892   3.548  10.897  0.8563  0.7898 -0.8105
14998TIP3   OH266484   3.631   1.496  13.818 -0.5991  0.1387  0.6367
14998TIP3    H166485   3.725   1.508  13.809  0.4967 -3.8579  3.7540
14998TIP3    H266486   3.605   1.447  13.739  0.4341 -0.5804  0.7233
14999TIP3   OH266487   6.785   2.967  16.095  0.5191  0.3742 -0.0633
14999TIP3    H166488   6.705   3.017  16.079 -0.4667 -0.2111  2.4869
14999TIP3    H266489   6.763   2.878  16.068 -0.0979  0.0157  1.4781
15000TIP3   OH266490   4.404   4.501  11.948  0.1909  0.1964  0.4012
15000TIP3    H166491   4.348   4.452  12.009  0.2604 -1.4006 -0.7641
15000TIP3    H266492   4.348   4.571  11.915 -0.7258 -0.5860  0.2492
15001TIP3   OH266493   6.354   1.244   0.874 -0.1261 -0.0404 -0.3851
15001TIP3    H166494   6.443   1.279   0.864  0.2273 -0.8333 -0.1251
15001TIP3    H266495   6.358   1.157   0.834 -0.8172 -0.0490 -0.4510
15002TIP3   OH266496   3.042   0.562   3.302 -0.0227  0.5551 -0.2038
15002TIP3    H166497   3.058   0.546   3.395  0.3215  2.3983  0.0998
15002TIP3    H266498   3.077   0.651   3.287  0.7804 -0.0558 -2.3030
15003TIP3   OH266499   2.194   3.475   0.412 -0.1236 -0.9340  0.1192
15003TIP3    H166500   2.147   3.466   0.329 -0.3627  1.8766 -0.1588
15003TIP3    H266501   2.137   3.437   0.477 -2.0069  0.7043 -0.4784
15004TIP3   OH266502   6.795   4.583   1.502  0.1970 -0.3269  0.1454
15004TIP3    H166503   6.862   4.522   1.532 -0.1277 -1.8004 -1.9057
15004TIP3    H266504   6.712   4.535   1.512 -0.2514  0.4090  0.0666
15005TIP3   OH266505   4.750   3.566  13.474  0.3144 -0.2106 -0.0739
15005TIP3    H166506   4.675   3.514  13.503 -0.6870 -0.9776 -3.5618
15005TIP3    H266507   4.783   3.518  13.398  1.9868  2.1208 -0.9002
15006TIP3   OH266508   1.688   6.171   4.135 -0.2888  0.2595 -0.3906
15006TIP3    H166509   1.721   6.092   4.177 -1.3669  0.4838  0.9368
15006TIP3    H266510   1.751   6.239   4.158  0.4459 -0.1051 -1.2371
15007TIP3   OH266511   3.561   1.978   2.330 -0.5960  0.0934  0.7832
15007TIP3    H166512   3.650   1.942   2.337 -0.7113 -0.3082  0.2439
15007TIP3    H266513   3.555   2.041   2.401  0.4939  0.8892  0.1932
15008TIP3   OH266514   1.647   3.115  17.362 -0.0431 -0.0785  0.4151
15008TIP3    H166515   1.718   3.075  17.312  0.3502  1.3649 -0.2540
15008TIP3    H266516   1.669   3.100  17.453  2.4018  2.2883  0.3312
15009TIP3   OH266517   0.374   4.793   5.611 -0.1991 -0.6896 -0.1827
15009TIP3    H166518   0.324   4.865   5.650 -1.1815 -1.0133 -0.8019
15009TIP3    H266519   0.356   4.718   5.668  1.7633 -0.2197  1.1427
15010TIP3   OH266520   1.359   5.115  14.545 -0.4954  0.0114  0.1338
15010TIP3    H166521   1.431   5.065  14.581 -0.4621  0.0208  0.0799
15010TIP3    H266522   1.280   5.071  14.578 -0.6304 -2.5765 -3.0715
15011TIP3   OH266523   3.284   2.089   0.950 -0.4945 -1.0712  0.1473
15011TIP3    H166524   3.264   2.117   0.860 -1.2775  0.0881  0.6494
15011TIP3    H266525   3.371   2.123   0.967 -0.8881 -0.0836  0.2723
15012TIP3   OH266526   3.716   4.024   0.402  0.1494 -0.1108  0.3465
15012TIP3    H166527   3.740   4.091   0.466  0.6638 -0.0290  0.0713
15012TIP3    H266528   3.629   3.995   0.430 -1.1839  2.3722 -0.9063
15013TIP3   OH266529   3.758   4.045  17.339 -0.0899 -0.5206  0.7732
15013TIP3    H166530   3.666   4.065  17.318 -0.3289  0.6584  2.6337
15013TIP3    H266531   3.802   4.044  17.255 -1.5745  0.3043 -0.0628
15014TIP3   OH266532   0.308   3.999   0.044  0.0983  0.4096 -0.1225
15014TIP3    H166533   0.281   3.947   0.120  1.3682  0.1886  0.2015
15014TIP3    H266534   0.332   3.934  -0.022  0.4772  0.5911 -0.1668
15015TIP3   OH266535   4.923   4.129   2.177 -0.5181  0.6657  0.8120
15015TIP3    H166536   4.838   4.166   2.200 -1.0872 -1.0611  1.6915
15015TIP3    H266537   4.983   4.161   2.244 -0.6889  1.1122  0.7507
15016TIP3   OH266538   1.861   5.704   3.499  0.1734  0.2153 -0.0679
15016TIP3    H166539   1.950   5.671   3.511  0.3367 -0.2235 -2.0494
15016TIP3    H266540   1.872   5.798   3.482  0.6922 -0.3437 -3.5913
15017TIP3   OH266541   1.805   1.089   3.973 -0.6192 -0.1844 -0.3570
15017TIP3    H166542   1.818   1.176   3.936 -1.6168  1.1132  2.0871
15017TIP3    H266543   1.712   1.071   3.960 -0.7075 -0.2604  0.3277
15018TIP3   OH266544   3.405   0.647   3.523 -0.1635  0.3511  0.7300
15018TIP3    H166545   3.370   0.560   3.506  1.1459 -0.1791  0.6169
15018TIP3    H266546   3.365   0.673   3.607 -2.0495  0.4939 -0.1514
15019TIP3   OH266547   2.384   0.580   2.355  0.1658 -0.3197 -0.4032
15019TIP3    H166548   2.421   0.561   2.442  1.2469 -1.1236 -1.0168
15019TIP3    H266549   2.364   0.673   2.358 -0.9485 -0.5549  1.1182
15020TIP3   OH266550   2.359   3.846  15.674 -0.3671 -0.2440  0.0831
15020TIP3    H166551   2.410   3.770  15.646 -0.8908 -1.0990  1.3607
15020TIP3    H266552   2.425   3.913  15.692  0.0566 -0.0994 -1.8029
15021TIP3   OH266553   5.019   5.122   4.032  0.6305  0.3894 -0.9386
15021TIP3    H166554   5.039   5.216   4.030  0.0068  0.5827  0.5784
15021TIP3    H266555   4.995   5.104   4.123 -0.2626 -1.0346 -1.4135
15022TIP3   OH266556   4.094   2.482   4.340  0.0205  0.3421 -0.2859
15022TIP3    H166557   4.012   2.499   4.386  0.6285  1.7958  0.3115
15022TIP3    H266558   4.162   2.502   4.404  0.8714  0.8992 -1.3346
15023TIP3   OH266559   6.385   2.457   0.475 -0.0312 -0.3673  0.0207
15023TIP3    H166560   6.355   2.405   0.550 -0.3719 -0.9871 -0.5392
15023TIP3    H266561   6.308   2.463   0.418  0.1146  0.4273 -0.1096
15024TIP3   OH266562   2.309   2.754  16.984 -0.5157  0.7661 -0.4653
15024TIP3    H166563   2.330   2.660  16.978 -0.8832  0.7073 -0.8760
15024TIP3    H266564   2.261   2.773  16.903  0.2548  1.4924 -0.7647
15025TIP3   OH266565   2.466   3.332  11.730  0.8534 -0.1543 -0.3128
15025TIP3    H166566   2.421   3.269  11.787  3.3063  1.5831  3.9744
15025TIP3    H266567   2.559   3.313  11.743  1.6534  3.5537  0.3591
15026TIP3   OH266568   2.081   0.204   1.497  0.1073  0.1361 -0.0481
15026TIP3    H166569   2.051   0.166   1.414  0.5112  2.5366 -1.3951
15026TIP3    H266570   2.165   0.245   1.475 -0.7674  2.6519  0.9660
15027TIP3   OH266571   0.504   4.893   2.160  0.3844  0.2172  0.4115
15027TIP3    H166572   0.570   4.902   2.229 -1.3474 -0.1124  2.2268
15027TIP3    H266573   0.529   4.813   2.113  0.9854 -0.1977  1.4002
15028TIP3   OH266574   1.370   1.246   4.350 -0.1772  0.2978 -0.5149
15028TIP3    H166575   1.352   1.155   4.324  0.9866 -0.1590  0.1977
15028TIP3    H266576   1.294   1.272   4.401  0.1872 -0.8696  0.6841
15029TIP3   OH266577   5.612   2.781  14.352  0.2072  0.2945 -0.0748
15029TIP3    H166578   5.680   2.719  14.326  0.7028  0.1026  1.5320
15029TIP3    H266579   5.658   2.843  14.409 -0.8285  0.5259  0.5231
15030TIP3   OH266580   2.524   6.765   4.448 -0.0393  0.5033 -0.1297
15030TIP3    H166581   2.559   6.848   4.481 -1.9339  2.5405 -2.8003
15030TIP3    H266582   2.571   6.749   4.367  0.1757 -0.9891  0.2581
15031TIP3   OH266583   5.193   5.436   4.668 -0.4160  0.8378 -0.5028
15031TIP3    H166584   5.131   5.378   4.713  0.2906  1.0356  0.7742
15031TIP3    H266585   5.169   5.430   4.576  0.0761 -2.0656 -0.5281
15032TIP3   OH266586   4.500   4.324  14.813  0.3542 -0.5218 -0.1381
15032TIP3    H166587   4.566   4.373  14.763  1.5704  0.1507  2.0004
15032TIP3    H266588   4.432   4.304  14.749  0.3170  2.9611 -1.4085
15033TIP3   OH266589   0.752   1.190   0.899  0.0358  0.2499  0.0047
15033TIP3    H166590   0.813   1.127   0.861  0.6183  0.4384  0.6182
15033TIP3    H266591   0.767   1.184   0.993 -0.6155  0.5872  0.1381
15034TIP3   OH266592   5.736   3.381   0.195 -0.2651 -0.2587 -0.5855
15034TIP3    H166593   5.826   3.408   0.182 -0.1060  0.3371  1.3848
15034TIP3    H266594   5.742   3.304   0.252 -0.9435 -1.6405 -2.2742
15035TIP3   OH266595   3.776   5.477  12.103  0.2534  0.4736  0.2551
15035TIP3    H166596   3.838   5.546  12.127  0.5374  0.8989 -1.5073
15035TIP3    H266597   3.694   5.501  12.145  1.1032  0.2125  2.1628
15036TIP3   OH266598   4.564   6.505   1.573 -0.4598  0.1410  0.0924
15036TIP3    H166599   4.612   6.511   1.656 -1.0016 -1.0627  0.5240
15036TIP3    H266600   4.553   6.411   1.559  1.9865  0.0954 -2.7620
15037TIP3   OH266601   2.058   2.001   4.334 -0.0743  0.1821 -0.1938
15037TIP3    H166602   2.102   1.934   4.386 -0.6865 -0.6582 -0.7377
15037TIP3    H266603   2.107   2.082   4.353 -0.1912 -0.1257  1.5383
15038TIP3   OH266604   4.608   0.811  14.189 -0.2290  0.2464  0.5355
15038TIP3    H166605   4.603   0.766  14.273 -0.3154 -0.1658  0.3112
15038TIP3    H266606   4.697   0.847  14.186  0.3727 -1.2178  0.0583
15039TIP3   OH266607   3.407   2.197  16.921  0.2526 -0.1585  0.0274
15039TIP3    H166608   3.329   2.229  16.875 -0.5219 -1.3796  0.4613
15039TIP3    H266609   3.400   2.237  17.008  0.2759 -0.0234 -0.0311
15040TIP3   OH266610   6.207   2.214  11.102  0.1922  0.7481  0.1344
15040TIP3    H166611   6.213   2.303  11.069 -1.8883  0.6046 -0.7998
15040TIP3    H266612   6.113   2.193  11.097  0.3578 -0.7927  2.2100
15041TIP3   OH266613   2.201   3.300   1.548 -0.0839 -0.4031 -0.0685
15041TIP3    H166614   2.184   3.392   1.531  0.1793 -0.3971 -0.3035
15041TIP3    H266615   2.149   3.253   1.483 -1.1743 -0.4623  0.8200
15042TIP3   OH266616   4.539   0.013   1.269 -0.3251  0.9434 -0.1004
15042TIP3    H166617   4.613   0.072   1.257 -0.0839  0.7531  0.4528
15042TIP3    H266618   4.529   0.004   1.363 -1.0046  0.9036 -0.1682
15043TIP3   OH266619   1.835   2.292  16.776  0.1131 -0.1591 -0.2244
15043TIP3    H166620   1.901   2.223  16.786 -0.3101 -0.4146  0.9257
15043TIP3    H266621   1.827   2.304  16.681  1.4747 -0.4385 -0.3849
15044TIP3   OH266622   5.155   5.972  16.391 -0.1898  0.4549 -0.4475
15044TIP3    H166623   5.060   5.970  16.383 -0.1102 -1.2232 -1.1948
15044TIP3    H266624   5.174   5.916  16.466  0.2337  0.6344 -0.4149
15045TIP3   OH266625   1.332   3.744  11.258 -1.3765 -0.2072  0.2977
15045TIP3    H166626   1.335   3.838  11.279  0.1311 -0.0306 -0.5393
15045TIP3    H266627   1.295   3.742  11.169  1.4477 -0.0854 -0.9845
15046TIP3   OH266628   5.132   6.037  11.331  0.2794 -0.4063 -0.0129
15046TIP3    H166629   5.118   5.989  11.413 -1.1702 -0.6776 -0.3885
15046TIP3    H266630   5.073   6.112  11.337 -1.0969 -1.2902 -1.4543
15047TIP3   OH266631   1.093   5.164  16.914 -0.3866 -0.1435 -0.0654
15047TIP3    H166632   1.101   5.183  16.821  0.7683  2.1326  0.4205
15047TIP3    H266633   1.179   5.130  16.939 -0.2327  0.6021  0.4350
15048TIP3   OH266634   0.095   3.737  13.220 -0.2972  0.5556 -0.2156
15048TIP3    H166635   0.154   3.720  13.146 -1.1946 -1.1004 -0.6026
15048TIP3    H266636   0.016   3.774  13.179  0.6269  3.4859  0.3675
15049TIP3   OH266637   0.432   0.167   5.623 -0.3147 -0.0732  0.6552
15049TIP3    H166638   0.414   0.146   5.714 -0.9525 -2.2852  0.0725
15049TIP3    H266639   0.365   0.232   5.600 -1.7757 -1.3551  1.1105
15050TIP3   OH266640   3.020   1.235  13.943  0.6915 -0.0395  0.0466
15050TIP3    H166641   2.982   1.167  13.998 -1.1869  1.3620  0.5964
15050TIP3    H266642   2.972   1.229  13.860  1.2474 -0.0638 -0.2767
15051TIP3   OH266643   0.614   3.411   2.691 -0.5476 -0.2586  0.2747
15051TIP3    H166644   0.549   3.362   2.742  0.1006 -2.5393 -0.9545
15051TIP3    H266645   0.645   3.479   2.751 -1.4713 -1.3545  2.1025
15052TIP3   OH266646   0.527   3.842   2.955 -0.0758  0.6223 -0.1696
15052TIP3    H166647   0.467   3.912   2.981  0.6286  1.1823 -0.0363
15052TIP3    H266648   0.587   3.833   3.029 -0.1289 -0.0932 -0.2085
15053TIP3   OH266649   5.192   1.374   2.864 -0.4070 -1.0763 -0.1796
15053TIP3    H166650   5.191   1.449   2.805 -0.4324 -2.3367 -1.8338
15053TIP3    H266651   5.226   1.302   2.811 -1.6170 -2.5558  0.9718
15054TIP3   OH266652   5.778   3.977   1.363 -0.6963  0.1897  0.0843
15054TIP3    H166653   5.708   4.025   1.406 -0.7031 -0.7887  1.2256
15054TIP3    H266654   5.833   3.946   1.435  0.6366  0.5228 -0.7642
15055TIP3   OH266655   5.700   1.141  15.002 -0.2343 -0.8197 -0.1579
15055TIP3    H166656   5.744   1.082  15.063 -1.6547  0.3445  2.1455
15055TIP3    H266657   5.751   1.222  15.006 -0.0147 -0.9047 -0.9960
15056TIP3   OH266658   4.081   5.348   1.834  0.4734  0.7279 -0.5339
15056TIP3    H166659   3.991   5.373   1.857  0.3208  0.4061 -0.7788
15056TIP3    H266660   4.134   5.425   1.856  0.6445 -0.1804  2.8562
15057TIP3   OH266661   2.750   3.418   4.394 -0.3541 -0.0491  0.4069
15057TIP3    H166662   2.801   3.338   4.378 -0.0602  0.3907 -1.0389
15057TIP3    H266663   2.664   3.398   4.358 -0.4771  0.0499  0.6498
15058TIP3   OH266664   0.238   4.823  12.868  0.9055  0.1486  0.2491
15058TIP3    H166665   0.172   4.821  12.799  0.4573 -0.2796  0.6835
15058TIP3    H266666   0.304   4.759  12.839 -0.4258 -1.8281  1.3030
15059TIP3   OH266667   5.243   0.364  11.174  0.0738  0.4088  0.1622
15059TIP3    H166668   5.313   0.298  11.181 -0.8016 -0.5225  0.4229
15059TIP3    H266669   5.214   0.358  11.083 -0.5551 -0.1737  0.3868
15060TIP3   OH266670   3.524   6.019  15.860  0.2716  0.0289 -0.0916
15060TIP3    H166671   3.616   6.011  15.834  0.1414 -0.4618 -0.4175
15060TIP3    H266672   3.526   6.018  15.956  0.8776  3.1800  0.0353
15061TIP3   OH266673   2.744   4.061   1.700  0.5884 -0.5534 -0.0842
15061TIP3    H166674   2.722   4.146   1.738 -0.4030 -1.5154  1.6323
15061TIP3    H266675   2.676   4.045   1.635  0.3841 -0.3228  0.0714
15062TIP3   OH266676   3.470   4.701   6.695  0.1505  0.0714 -0.4644
15062TIP3    H166677   3.432   4.736   6.615 -0.2697  0.5019 -0.0824
15062TIP3    H266678   3.398   4.652   6.736  0.7305 -1.2858 -1.0027
15063TIP3   OH266679   4.992   5.103  13.875  0.0532 -0.3983 -0.4504
15063TIP3    H166680   5.017   5.040  13.807  1.1600  0.3847 -0.7972
15063TIP3    H266681   4.979   5.050  13.953  2.3752 -0.9572 -0.3656
15064TIP3   OH266682   3.492   5.724   1.000 -0.6707 -0.0002 -0.6664
15064TIP3    H166683   3.513   5.765   1.084 -1.1291 -0.3725 -0.3630
15064TIP3    H266684   3.401   5.748   0.983 -1.4174 -1.9977  0.2074
15065TIP3   OH266685   3.469   3.984   1.405 -0.4955 -0.3496  0.4907
15065TIP3    H166686   3.516   3.996   1.488 -0.1363  1.1027  0.1055
15065TIP3    H266687   3.504   3.903   1.369 -1.1908 -1.4237  2.0872
15066TIP3   OH266688   2.277   4.540   6.612 -0.2185 -0.4930  0.6142
15066TIP3    H166689   2.357   4.493   6.636  0.8195  0.3498 -0.9997
15066TIP3    H266690   2.223   4.475   6.567  1.1624 -0.2741 -1.5144
15067TIP3   OH266691   5.100   2.209   2.339  0.2434 -0.1824 -0.0780
15067TIP3    H166692   5.036   2.227   2.408  2.1086  0.7429  1.5067
15067TIP3    H266693   5.164   2.151   2.380  1.3210  0.2735 -1.0534
15068TIP3   OH266694   2.205   4.252   4.698  0.5371 -0.3271 -0.7098
15068TIP3    H166695   2.142   4.180   4.701 -0.2203  0.3431  0.2784
15068TIP3    H266696   2.194   4.289   4.610 -2.8330  1.7468  0.3757
15069TIP3   OH266697   1.472   4.472  15.513 -0.5244 -0.3464 -0.8852
15069TIP3    H166698   1.451   4.541  15.450  1.7682  2.2521  0.9409
15069TIP3    H266699   1.405   4.480  15.580 -0.7876 -0.5304 -1.1243
15070TIP3   OH266700   4.307   5.850  14.324  0.1746  0.1556 -0.8196
15070TIP3    H166701   4.225   5.864  14.371 -1.4896  2.7788 -4.0792
15070TIP3    H266702   4.362   5.924  14.349  1.2497 -1.0746  0.6070
15071TIP3   OH266703   4.199   2.792   3.710  0.3881 -0.6781 -0.2593
15071TIP3    H166704   4.159   2.800   3.797  0.1777  1.2970 -0.4858
15071TIP3    H266705   4.127   2.772   3.651  0.0065  0.9357 -0.3815
15072TIP3   OH266706   0.197   0.538  11.608  0.8108  0.2928 -0.0627
15072TIP3    H166707   0.112   0.504  11.580  0.4956 -0.8371  2.0573
15072TIP3    H266708   0.233   0.580  11.530 -0.2143 -2.1285 -1.9600
15073TIP3   OH266709   2.794   5.101  17.380  0.0024 -0.1165 -0.9095
15073TIP3    H166710   2.887   5.094  17.399 -0.3368  1.7188  2.0495
15073TIP3    H266711   2.790   5.139  17.293  2.0638  0.4847 -0.7983
15074TIP3   OH266712   4.347   5.421   1.033 -0.0078 -0.1365 -0.5668
15074TIP3    H166713   4.298   5.374   0.965 -1.5053  0.5252  0.0018
15074TIP3    H266714   4.334   5.370   1.112 -0.0724  0.2194 -0.3441
15075TIP3   OH266715   1.957   1.845   5.638  0.2429  0.8521  0.6285
15075TIP3    H166716   1.908   1.827   5.558  2.2228 -0.8010 -0.3067
15075TIP3    H266717   1.893   1.887   5.697 -1.8173  0.2037 -1.0320
15076TIP3   OH266718   6.583   3.093   0.644 -0.1199  0.2550 -0.2449
15076TIP3    H166719   6.567   3.006   0.680  0.5078  0.0974 -0.3249
15076TIP3    H266720   6.566   3.083   0.550  2.1419 -0.4025 -0.6538
15077TIP3   OH266721   4.093   4.823   1.335 -0.2053  0.5653  0.2724
15077TIP3    H166722   3.999   4.824   1.315  0.2427  3.0521 -2.3605
15077TIP3    H266723   4.123   4.739   1.303 -1.2307  0.5431 -0.6919
15078TIP3   OH266724   3.627   3.996   6.595 -0.2012 -0.1893 -0.5421
15078TIP3    H166725   3.563   4.005   6.665  1.2181 -1.1976  0.9814
15078TIP3    H266726   3.635   4.084   6.558  0.8758  1.0800  2.3399
15079TIP3   OH266727   4.362   4.782   0.815  0.1873 -0.2459  0.5105
15079TIP3    H166728   4.442   4.740   0.846  1.1726  0.7695 -0.5897
15079TIP3    H266729   4.352   4.750   0.725  0.9024  1.7200 -0.3206
15080TIP3   OH266730   5.187   3.216   3.368  0.5338 -0.1135  0.2780
15080TIP3    H166731   5.164   3.123   3.377  2.0118 -0.3659  2.0467
15080TIP3    H266732   5.119   3.262   3.416  0.3648 -0.3705  0.2867
15081TIP3   OH266733   4.125   0.186  12.629  0.2775  0.1613  0.0231
15081TIP3    H166734   4.196   0.200  12.566  1.1350 -0.6648  0.7569
15081TIP3    H266735   4.163   0.208  12.713 -1.5637  3.5718  0.1154
15082TIP3   OH266736   2.689   3.464  13.940 -0.1910 -0.2877  0.4829
15082TIP3    H166737   2.709   3.532  14.004  1.6547  0.5687 -0.9046
15082TIP3    H266738   2.732   3.386  13.974  2.1294  0.5261 -0.3525
15083TIP3   OH266739   1.806   6.495  12.677  0.2210 -0.2659 -0.2017
15083TIP3    H166740   1.783   6.497  12.770  1.7722  1.7750  0.1993
15083TIP3    H266741   1.866   6.421  12.669 -0.4299 -0.8553  0.2814
15084TIP3   OH266742   0.047   1.903   1.771 -0.4418 -0.3952 -0.2558
15084TIP3    H166743   0.020   1.829   1.716  1.9258  0.6775 -3.1699
15084TIP3    H266744   0.010   1.980   1.728  1.9427  0.5285 -0.8310
15085TIP3   OH266745   2.780   2.627   6.159  0.2214 -0.4342  0.1245
15085TIP3    H166746   2.738   2.556   6.110  0.3190  0.3749 -1.1696
15085TIP3    H266747   2.727   2.704   6.139  0.6267  0.0300  0.8251
15086TIP3   OH266748   6.422   5.349  15.557  0.6441 -0.6001 -0.2903
15086TIP3    H166749   6.416   5.419  15.492  1.2326 -0.9870 -0.7767
15086TIP3    H266750   6.418   5.394  15.641  1.3836  0.0623 -0.5955
15087TIP3   OH266751   2.521   2.158   6.742 -0.0703 -0.4287 -0.2373
15087TIP3    H166752   2.472   2.078   6.761  0.3791 -0.4411  0.9256
15087TIP3    H266753   2.497   2.218   6.812  1.1388 -0.2321  0.0241
15088TIP3   OH266754   2.351   6.774  15.157 -0.1037 -0.3556  0.2146
15088TIP3    H166755   2.445   6.786  15.144 -0.1635 -0.3402 -0.1994
15088TIP3    H266756   2.345   6.703  15.222  0.1957 -0.1182  0.5070
15089TIP3   OH266757   4.004   3.492   1.495  0.1204  0.5992 -0.1439
15089TIP3    H166758   4.003   3.478   1.400 -1.3185 -2.4922  0.2065
15089TIP3    H266759   4.091   3.462   1.522 -1.0467 -3.3396 -0.0932
15090TIP3   OH266760   2.515   3.920   3.506 -0.0924  0.2668 -0.8097
15090TIP3    H166761   2.423   3.937   3.527  0.1405 -0.9862  1.5411
15090TIP3    H266762   2.563   3.953   3.582  1.4228  0.7869 -1.9461
15091TIP3   OH266763   0.266   4.579   2.939 -0.3487 -0.4201  0.2706
15091TIP3    H166764   0.215   4.659   2.931  0.7942  0.3324  0.1528
15091TIP3    H266765   0.262   4.557   3.032 -0.8968 -0.3941  0.2563
15092TIP3   OH266766   5.388   6.061   0.563  0.0448 -0.4667 -0.9670
15092TIP3    H166767   5.453   6.073   0.632  0.5983  1.7460 -1.7821
15092TIP3    H266768   5.333   6.139   0.569 -1.1993 -1.2592 -1.7031
15093TIP3   OH266769   4.568   0.623  14.370 -0.0710  0.4056 -0.3543
15093TIP3    H166770   4.612   0.539  14.359  1.2593  1.0597 -0.1311
15093TIP3    H266771   4.571   0.640  14.464 -0.3372  0.7057 -0.3957
15094TIP3   OH266772   6.358   2.872   2.236 -0.4092  0.1838  0.4877
15094TIP3    H166773   6.380   2.822   2.315  1.7053 -0.6913 -0.5816
15094TIP3    H266774   6.418   2.947   2.238 -2.0108  1.5164  0.9084
15095TIP3   OH266775   6.694   5.268   0.425 -0.0911 -0.5163 -0.7658
15095TIP3    H166776   6.645   5.341   0.463 -0.2903 -1.8165  1.6478
15095TIP3    H266777   6.785   5.299   0.423 -0.1790 -0.1668  0.1779
15096TIP3   OH266778   4.731   4.966  16.571 -0.2199 -0.7155  0.5185
15096TIP3    H166779   4.789   4.907  16.619 -1.2460 -0.8299  1.6482
15096TIP3    H266780   4.664   4.990  16.634 -0.5968  0.5696 -0.3465
15097TIP3   OH266781   3.858   1.660  14.311  0.1555 -0.0490 -0.4360
15097TIP3    H166782   3.804   1.734  14.336  1.4233  0.8864 -0.3413
15097TIP3    H266783   3.806   1.583  14.332 -0.3998  0.7700  1.3623
15098TIP3   OH266784   6.472   0.428  13.938 -0.0795 -0.1837 -0.1504
15098TIP3    H166785   6.518   0.378  14.005  1.5026 -1.8116 -2.3295
15098TIP3    H266786   6.383   0.392  13.937 -0.5077  0.6846  1.7996
15099TIP3   OH266787   4.739   2.559  13.730 -0.4109 -0.1812  0.0924
15099TIP3    H166788   4.809   2.503  13.698 -1.1333 -1.3991  0.5877
15099TIP3    H266789   4.662   2.503  13.734 -1.2798  0.9690  0.1507
15100TIP3   OH266790   6.688   4.905  12.939  0.3832 -0.6546  0.1020
15100TIP3    H166791   6.635   4.980  12.965 -2.0063 -2.0535 -0.3984
15100TIP3    H266792   6.704   4.857  13.020 -0.7905 -1.2016  0.0298
15101TIP3   OH266793   5.339   5.148  16.024  0.3044 -0.2682 -0.2207
15101TIP3    H166794   5.289   5.147  15.942 -0.5045 -2.5735  0.2333
15101TIP3    H266795   5.347   5.056  16.048 -0.3162  0.3630  2.8184
15102TIP3   OH266796   5.938   0.631   2.229 -0.4464  0.2569  0.5945
15102TIP3    H166797   6.005   0.679   2.279 -0.4683  1.6597 -0.6473
15102TIP3    H266798   5.958   0.650   2.138 -1.1623 -1.2312  0.1076
15103TIP3   OH266799   4.151   4.650  15.202 -0.0881  0.7727 -0.1531
15103TIP3    H166800   4.230   4.596  15.205 -1.3139 -1.1162  2.1444
15103TIP3    H266801   4.160   4.710  15.277 -1.7046 -0.9577  1.5270
15104TIP3   OH266802   5.672   0.979   3.703 -0.2121 -0.1594  0.2421
15104TIP3    H166803   5.674   0.899   3.755 -0.3093  0.9325  2.0154
15104TIP3    H266804   5.619   0.957   3.626  1.6220 -2.4127 -0.4788
15105TIP3   OH266805   2.161   3.602  12.622  0.0364  0.6436 -0.1495
15105TIP3    H166806   2.175   3.594  12.717  0.8878  0.8734 -0.2509
15105TIP3    H266807   2.220   3.537  12.584 -0.3994  0.4654 -0.5182
15106TIP3   OH266808   0.717   2.838   6.069 -0.5165  0.2826 -0.2132
15106TIP3    H166809   0.680   2.917   6.108  2.3080  1.4005  0.4635
15106TIP3    H266810   0.696   2.769   6.132 -0.4487  1.0926  0.7263
15107TIP3   OH266811   3.580   4.890  16.940 -0.2496 -0.2480  0.1618
15107TIP3    H166812   3.659   4.882  16.887 -0.7117 -0.3221 -0.5354
15107TIP3    H266813   3.611   4.918  17.026  0.5290 -0.2700 -0.1052
15108TIP3   OH266814   5.497   5.628  15.229  0.0332  0.2472 -0.2859
15108TIP3    H166815   5.444   5.689  15.177  1.4877  0.6067 -1.3904
15108TIP3    H266816   5.439   5.552  15.242 -1.3409  1.2924 -0.0025
15109TIP3   OH266817   3.328   1.954   4.595 -0.3298  0.4820 -0.0948
15109TIP3    H166818   3.341   1.860   4.606 -1.6185  0.4375  1.2725
15109TIP3    H266819   3.241   1.962   4.555 -0.2909  1.0993 -0.0721
15110TIP3   OH266820   1.841   1.460   0.772  0.0113 -0.3827  0.1472
15110TIP3    H166821   1.856   1.447   0.678  1.1857  1.5810  0.0153
15110TIP3    H266822   1.761   1.409   0.791 -0.5625 -0.3758 -2.0224
15111TIP3   OH266823   6.733   1.830   3.626 -0.5849 -0.1375  0.0334
15111TIP3    H166824   6.789   1.905   3.612  0.0709 -0.4518  0.9078
15111TIP3    H266825   6.689   1.817   3.542  0.9638 -0.1504 -0.8133
15112TIP3   OH266826   4.810   2.544  11.792  0.1012 -0.3160 -0.1719
15112TIP3    H166827   4.862   2.492  11.731 -0.2925  0.2322 -0.9852
15112TIP3    H266828   4.760   2.478  11.842  0.6979 -0.7822 -0.1795
15113TIP3   OH266829   2.783   3.870   1.124 -0.1607 -0.5257 -0.5472
15113TIP3    H166830   2.723   3.873   1.198 -1.9376  0.3152 -1.9425
15113TIP3    H266831   2.843   3.799   1.145  0.1139  0.4131  2.1848
15114TIP3   OH266832   0.754   1.443  12.905  0.3030 -0.2133 -0.1738
15114TIP3    H166833   0.809   1.497  12.961 -0.9074  0.6982  0.1801
15114TIP3    H266834   0.699   1.506  12.858 -0.2886 -1.0808 -0.6653
15115TIP3   OH266835   5.991   2.112   1.242  0.2959  0.4207 -0.2346
15115TIP3    H166836   6.008   2.078   1.154 -0.5599 -0.6126 -0.0247
15115TIP3    H266837   6.077   2.121   1.282  0.6715  0.5784 -1.0561
15116TIP3   OH266838   5.306   6.251  13.334  0.2174 -0.0798  0.1888
15116TIP3    H166839   5.254   6.181  13.295  2.2792 -2.6313  1.6702
15116TIP3    H266840   5.255   6.281  13.409 -1.2833  1.0368 -1.2054
15117TIP3   OH266841   1.940   4.292   5.759  0.2791  0.4938  0.0031
15117TIP3    H166842   1.903   4.213   5.719 -0.1690  0.9195 -0.4412
15117TIP3    H266843   1.900   4.295   5.846  0.2630  0.2607  0.0061
15118TIP3   OH266844   0.285   3.672  12.256 -0.0836  0.3299  0.3297
15118TIP3    H166845   0.345   3.730  12.303 -0.1797  0.4356  0.3233
15118TIP3    H266846   0.202   3.720  12.254  0.2514  0.8988 -1.0965
15119TIP3   OH266847   3.918   0.716  16.888 -0.4831  0.4871  0.5171
15119TIP3    H166848   3.995   0.757  16.850 -0.0226 -0.3684  0.5272
15119TIP3    H266849   3.853   0.717  16.817 -0.4569  1.1577  0.4959
15120TIP3   OH266850   0.479   4.091  12.524 -0.3677 -0.5037 -0.2007
15120TIP3    H166851   0.479   4.165  12.463 -2.0955  0.4077  0.8283
15120TIP3    H266852   0.555   4.107  12.580 -0.4097  0.2085 -0.3259
15121TIP3   OH266853   6.298   4.127   2.459 -0.2859  0.0714  0.0408
15121TIP3    H166854   6.360   4.142   2.530  0.0589 -0.6788 -0.0896
15121TIP3    H266855   6.317   4.196   2.396  0.0325  0.1927  0.2643
15122TIP3   OH266856   3.105   6.498  16.049  0.0102 -0.0288  0.2517
15122TIP3    H166857   3.074   6.564  15.988  0.2619 -0.5786 -0.4778
15122TIP3    H266858   3.178   6.456  16.005  1.0782  0.4642  1.4780
15123TIP3   OH266859   6.665   3.593   5.631 -0.7176  0.5333  0.0109
15123TIP3    H166860   6.745   3.572   5.679  0.1472  0.6026 -1.3497
15123TIP3    H266861   6.625   3.664   5.680 -0.0503  0.3603  0.8234
15124TIP3   OH266862   5.192   0.679  16.913  0.3307 -0.4602  0.8467
15124TIP3    H166863   5.218   0.606  16.969  0.9875  0.6081  1.9706
15124TIP3    H266864   5.099   0.690  16.928  0.3189 -0.7811  1.0063
15125TIP3   OH266865   1.990   1.713   4.860 -0.4172  0.0965 -0.1710
15125TIP3    H166866   1.910   1.686   4.816 -0.0422  1.0137 -1.5114
15125TIP3    H266867   1.979   1.807   4.875 -0.6243 -0.2209  1.9817
15126TIP3   OH266868   2.209   0.805   4.043 -0.4704  0.3299 -0.3270
15126TIP3    H166869   2.171   0.838   3.962  1.9169 -1.2189 -2.1985
15126TIP3    H266870   2.159   0.726   4.062  0.1012 -0.2777 -1.3079
15127TIP3   OH266871   5.551   2.634   3.370  0.0568  0.9507 -0.0707
15127TIP3    H166872   5.564   2.574   3.444  0.5213  0.8839 -0.2059
15127TIP3    H266873   5.639   2.659   3.343 -0.0417 -0.2583 -1.6125
15128TIP3   OH266874   3.040   0.002   6.375 -0.8582  0.5621 -0.3988
15128TIP3    H166875   3.111   0.007   6.312  0.7110 -0.2170  1.2054
15128TIP3    H266876   2.996  -0.081   6.356 -1.0996  0.8408 -1.1112
15129TIP3   OH266877   3.203   4.758   5.481  0.3474  0.1208 -0.0078
15129TIP3    H166878   3.281   4.808   5.455 -0.3739  1.4268  0.2105
15129TIP3    H266879   3.237   4.676   5.517  1.5892  0.4606 -0.3642
15130TIP3   OH266880   4.407   0.226   4.655 -0.0697  0.1408 -0.3257
15130TIP3    H166881   4.343   0.257   4.719  0.0847  0.9035 -0.5212
15130TIP3    H266882   4.482   0.285   4.666 -0.1726  0.4944 -1.4234
15131TIP3   OH266883   2.986   0.807   3.712  0.1314  0.7452 -0.1071
15131TIP3    H166884   2.906   0.858   3.698 -0.1837  0.2701 -0.0474
15131TIP3    H266885   3.032   0.854   3.782 -0.0574  1.0582 -0.1886
15132TIP3   OH266886   5.192   1.495   1.402 -0.2502  0.0280 -0.6398
15132TIP3    H166887   5.152   1.420   1.359  0.0286 -0.6948  0.3138
15132TIP3    H266888   5.275   1.462   1.438  0.1544  0.9329 -0.6840
15133TIP3   OH266889   0.760   2.001   5.176 -0.2304 -0.0913 -0.7295
15133TIP3    H166890   0.674   2.008   5.135  0.1794 -1.6595 -1.9048
15133TIP3    H266891   0.742   2.008   5.270 -1.5035  0.5760 -0.9963
15134TIP3   OH266892   4.946   5.973   0.489  0.5679  0.2619 -0.1513
15134TIP3    H166893   5.022   5.985   0.433  0.4270  0.9319 -0.2077
15134TIP3    H266894   4.873   5.960   0.428  0.8234 -1.6262 -0.0843
15135TIP3   OH266895   6.040   3.433   5.620  0.4887 -0.1065  0.1343
15135TIP3    H166896   6.123   3.388   5.602 -0.6583 -1.2566 -3.0062
15135TIP3    H266897   6.057   3.525   5.599  1.1416 -0.2358  0.0796
15136TIP3   OH266898   0.819   6.142  12.932  0.0140  0.0763  0.2155
15136TIP3    H166899   0.745   6.203  12.942 -0.5205 -0.4586 -0.4379
15136TIP3    H266900   0.885   6.176  12.992 -1.3058 -0.2843  1.9676
15137TIP3   OH266901   0.445   6.230   4.486 -0.2368  0.6381 -0.4774
15137TIP3    H166902   0.383   6.268   4.423 -0.2206  2.1917  0.4082
15137TIP3    H266903   0.391   6.172   4.540 -0.4238  0.0120 -1.3095
15138TIP3   OH266904   6.702   6.326  15.916  0.2643  0.2317 -0.7352
15138TIP3    H166905   6.654   6.244  15.902 -2.7988  1.9333 -0.8173
15138TIP3    H266906   6.684   6.349  16.007  2.5533  0.0388 -0.1609
15139TIP3   OH266907   0.967   4.069   5.258  0.1901 -0.4364 -0.4499
15139TIP3    H166908   1.007   4.047   5.174  0.7279  0.4166 -0.4351
15139TIP3    H266909   0.920   3.990   5.284 -0.5347 -0.5033 -1.8646
15140TIP3   OH266910   4.875   5.676   3.548  0.2691  0.2394  0.9630
15140TIP3    H166911   4.937   5.727   3.600  0.9307 -0.5783  1.0039
15140TIP3    H266912   4.888   5.586   3.577 -0.4138 -0.0408  0.4318
15141TIP3   OH266913   0.248   4.471  12.166 -0.1941  0.4138 -0.0586
15141TIP3    H166914   0.257   4.475  12.261 -1.8827  0.7087  0.1160
15141TIP3    H266915   0.328   4.427  12.137  1.1984  1.9046  1.3229
15142TIP3   OH266916   6.270   2.064   3.000  0.3618 -0.0261  0.3735
15142TIP3    H166917   6.231   2.138   3.047 -1.1942  0.1967 -1.1695
15142TIP3    H266918   6.254   1.988   3.056  4.0840  0.9742  3.1719
15143TIP3   OH266919   3.387   3.486  13.815  0.4159  0.2789  0.2824
15143TIP3    H166920   3.322   3.556  13.812 -0.4219 -0.4716  0.4871
15143TIP3    H266921   3.460   3.523  13.864  0.0774  1.0816  0.1934
15144TIP3   OH266922   2.538   4.752  12.753  0.3772 -0.2345 -0.1480
15144TIP3    H166923   2.633   4.763  12.763  0.7655 -1.7224 -1.7085
15144TIP3    H266924   2.522   4.661  12.776 -0.7847  0.1651  0.6821
15145TIP3   OH266925   1.788   5.280  17.210  0.7210 -0.4551 -0.3878
15145TIP3    H166926   1.720   5.217  17.186  1.5081 -1.5086  0.0429
15145TIP3    H266927   1.774   5.355  17.152 -0.6779 -0.7277 -0.4260
15146TIP3   OH266928   4.094   6.366  16.620  0.3346  0.1650 -0.1780
15146TIP3    H166929   4.182   6.395  16.594 -0.2537  1.8111 -0.4414
15146TIP3    H266930   4.055   6.443  16.661 -1.2200 -0.3509 -0.6375
15147TIP3   OH266931   2.868   2.615   1.669  0.1158  0.3041  0.4180
15147TIP3    H166932   2.829   2.527   1.665 -0.6431  0.6399  0.3328
15147TIP3    H266933   2.937   2.614   1.603 -0.3969  0.0155 -0.1198
15148TIP3   OH266934   1.609   0.615  14.590  0.2894 -0.3466  0.0583
15148TIP3    H166935   1.704   0.611  14.600  0.2948 -2.7069 -0.2332
15148TIP3    H266936   1.576   0.551  14.653 -1.1485  0.6980  0.4048
15149TIP3   OH266937   1.235   5.688   2.304  0.3688  0.0216 -0.3053
15149TIP3    H166938   1.211   5.726   2.219  1.0284 -0.6330 -0.7949
15149TIP3    H266939   1.274   5.604   2.283 -2.4303 -1.6890  0.8629
15150TIP3   OH266940   1.880   3.564   6.227  0.3972  0.2547 -0.1510
15150TIP3    H166941   1.814   3.624   6.262 -0.2269 -0.4825 -0.0415
15150TIP3    H266942   1.907   3.511   6.302 -0.3161 -0.7474 -0.5800
15151TIP3   OH266943   6.687   0.963  12.476 -0.1400 -0.0329  0.2823
15151TIP3    H166944   6.651   0.974  12.564  0.7097  1.1301  0.5130
15151TIP3    H266945   6.781   0.949  12.491 -0.1054 -0.5972 -0.4121
15152TIP3   OH266946   1.465   3.640   1.363  0.0482  0.1679 -0.2668
15152TIP3    H166947   1.536   3.673   1.418  0.3109 -0.0641 -0.4612
15152TIP3    H266948   1.508   3.614   1.282 -0.3566  0.6630 -0.6522
15153TIP3   OH266949   1.407   1.004  14.929 -0.4745 -0.3863 -0.4274
15153TIP3    H166950   1.426   1.036  14.840  0.7354  2.9012  0.8571
15153TIP3    H266951   1.491   0.971  14.960 -0.8219 -1.2199 -0.3461
15154TIP3   OH266952   2.140   0.938  14.377 -0.5474  1.1262 -0.8017
15154TIP3    H166953   2.100   1.006  14.432 -5.4159 -1.9306  0.0706
15154TIP3    H266954   2.078   0.926  14.305  0.9123 -1.2901 -1.7620
15155TIP3   OH266955   3.772   1.565   1.096  0.1131 -0.1777  0.0028
15155TIP3    H166956   3.719   1.492   1.064 -0.4311 -0.6573  1.8632
15155TIP3    H266957   3.806   1.534   1.181  0.2077  1.5686  0.6381
15156TIP3   OH266958   5.352   1.159  11.208  0.1572  0.2366  0.0239
15156TIP3    H166959   5.338   1.118  11.293  0.5885 -0.1361 -0.0802
15156TIP3    H266960   5.393   1.243  11.227  0.2256  0.1658  0.1898
15157TIP3   OH266961   5.934   4.468   2.993 -0.0501 -0.7003 -0.1709
15157TIP3    H166962   5.971   4.403   3.053 -2.9350 -1.9739  0.4158
15157TIP3    H266963   5.991   4.465   2.917  0.9385 -2.6484  0.5664
15158TIP3   OH266964   0.119   0.072  16.899 -0.1674  0.7834 -0.1597
15158TIP3    H166965   0.030   0.080  16.865 -0.2423 -0.9723 -0.5097
15158TIP3    H266966   0.176   0.084  16.823 -0.2514 -0.9289 -0.5373
15159TIP3   OH266967   2.750   2.986   6.795  0.0563 -0.0798 -0.2035
15159TIP3    H166968   2.707   3.013   6.714 -0.4751  1.5912  0.5806
15159TIP3    H266969   2.815   3.054   6.811  0.7847 -0.8821  0.2978
15160TIP3   OH266970   0.233   3.208   2.536  0.3414 -0.2094  0.1775
15160TIP3    H166971   0.279   3.241   2.613 -0.8457 -2.2252  1.8816
15160TIP3    H266972   0.265   3.118   2.526  0.3338 -0.0517 -1.6166
15161TIP3   OH266973   0.975   5.591   1.550 -0.2840 -0.3497 -0.5121
15161TIP3    H166974   1.054   5.618   1.501 -0.3981  0.5556 -0.2164
15161TIP3    H266975   0.990   5.498   1.569 -0.2092 -0.7203 -2.2079
15162TIP3   OH266976   3.777   5.194   4.563  0.1663 -0.1077  0.6885
15162TIP3    H166977   3.683   5.208   4.549  0.4082  0.7064 -0.2625
15162TIP3    H266978   3.786   5.185   4.658 -1.0943 -2.0702  0.6889
15163TIP3   OH266979   4.360   0.701  14.188 -0.0694 -0.0232  0.2423
15163TIP3    H166980   4.378   0.787  14.149 -1.5007  0.1251 -0.1700
15163TIP3    H266981   4.436   0.682  14.242  1.0369  0.7337 -0.9928
15164TIP3   OH266982   0.623   0.367   6.355  0.4200  0.3465  0.0169
15164TIP3    H166983   0.708   0.409   6.363 -0.3046  2.1017 -0.8903
15164TIP3    H266984   0.560   0.439   6.352 -1.0932 -0.8766  0.3464
15165TIP3   OH266985   5.082   3.161  14.480  0.1629  0.4491  0.4768
15165TIP3    H166986   5.085   3.153  14.385 -0.5219  0.2518  0.4622
15165TIP3    H266987   5.125   3.082  14.513  1.1998  0.9478  0.3378
15166TIP3   OH266988   4.829   5.775   1.440 -0.3720  0.1976  0.5102
15166TIP3    H166989   4.772   5.838   1.396  1.8203  0.6982 -1.8030
15166TIP3    H266990   4.889   5.829   1.492 -1.2899 -0.2834  2.1565
15167TIP3   OH266991   4.944   1.070   1.478  0.0830 -0.3505  0.6298
15167TIP3    H166992   4.919   0.979   1.497 -0.3215 -0.2955  0.3752
15167TIP3    H266993   4.938   1.114   1.563 -0.2479 -0.4434  0.6567
15168TIP3   OH266994   1.258   4.515   4.075 -0.6359  0.4182  0.0395
15168TIP3    H166995   1.176   4.558   4.053 -0.5426 -0.1345 -1.5356
15168TIP3    H266996   1.324   4.584   4.072 -0.9840  0.7925  0.9374
15169TIP3   OH266997   0.715   3.927  11.934  0.4108 -0.4871  0.1287
15169TIP3    H166998   0.655   3.984  11.886  0.0395  0.6592  1.8836
15169TIP3    H266999   0.781   3.902  11.869  0.3293  1.5766 -0.8156
15170TIP3   OH267000   0.694   0.504  16.026  0.4106 -0.2200 -0.0601
15170TIP3    H167001   0.762   0.569  16.005  0.0801 -0.3671 -1.7846
15170TIP3    H267002   0.638   0.504  15.949 -2.1648  0.6140  1.6893
15171TIP3   OH267003   5.561   3.467   1.631  0.6067 -0.0012 -0.3520
15171TIP3    H167004   5.586   3.385   1.672 -0.2612 -0.2037 -0.2047
15171TIP3    H267005   5.530   3.522   1.703 -0.0865 -0.0374 -0.6194
15172TIP3   OH267006   3.625   5.991  10.781 -0.4736 -0.3090 -0.0162
15172TIP3    H167007   3.720   5.984  10.796 -0.5120 -0.1424  0.3211
15172TIP3    H267008   3.587   5.972  10.866 -0.7256  0.1396 -0.0253
15173TIP3   OH267009   5.990   1.896  15.859 -0.0319  0.5907  0.2300
15173TIP3    H167010   5.960   1.874  15.947  2.5623 -0.4259  0.9660
15173TIP3    H267011   6.025   1.814  15.824  0.9633  1.4461 -0.8741
15174TIP3   OH267012   1.043   0.915   1.647 -0.4132  0.0032 -0.2880
15174TIP3    H167013   1.085   0.829   1.655  1.9203  1.1521  1.0774
15174TIP3    H267014   1.035   0.946   1.737 -0.7999  1.3873 -0.7804
15175TIP3   OH267015   6.201   0.784  13.100  0.0377 -0.1450  1.1724
15175TIP3    H167016   6.229   0.738  13.020 -1.0844 -0.9997  1.2359
15175TIP3    H267017   6.244   0.737  13.171  1.5411  1.0051  1.0718
15176TIP3   OH267018   0.122   3.740  11.519  0.1625 -0.3923  0.0618
15176TIP3    H167019   0.109   3.647  11.537  1.1273 -0.8526 -1.4331
15176TIP3    H267020   0.211   3.758  11.551 -0.0985  0.0886  0.5365
15177TIP3   OH267021   2.309   4.777   6.060  0.1001 -0.2136 -0.0903
15177TIP3    H167022   2.292   4.718   5.987  1.9270 -1.2901  0.3022
15177TIP3    H267023   2.312   4.720   6.137  1.8563  0.3499  0.3009
15178TIP3   OH267024   4.902   2.859   5.785  0.6422  0.3857  0.1240
15178TIP3    H167025   4.927   2.945   5.818  1.2069 -0.4109  1.8501
15178TIP3    H267026   4.973   2.801   5.812 -0.1061 -0.7737 -0.3232
15179TIP3   OH267027   4.676   6.632  15.666  0.6040  0.0052 -0.4981
15179TIP3    H167028   4.754   6.681  15.642  0.9412 -0.0887  0.3796
15179TIP3    H267029   4.689   6.610  15.758 -1.0794  1.1612  0.0490
15180TIP3   OH267030   3.911   6.286   5.872 -0.0183  0.5183 -0.0221
15180TIP3    H167031   3.852   6.333   5.813 -0.4966  1.4467  1.1410
15180TIP3    H267032   3.902   6.332   5.955  1.3563 -0.1639  0.5249
15181TIP3   OH267033   1.262   6.286   5.178 -0.0782 -0.7145  0.3366
15181TIP3    H167034   1.188   6.256   5.229  0.9899 -1.8420  1.2859
15181TIP3    H267035   1.256   6.382   5.180 -0.6717 -0.7693  1.6461
15182TIP3   OH267036   3.274   0.707   5.108 -0.0133 -0.3733 -0.4797
15182TIP3    H167037   3.267   0.628   5.161 -0.6569 -1.4350 -2.0444
15182TIP3    H267038   3.341   0.760   5.151 -0.1348 -1.4039  1.0486
15183TIP3   OH267039   2.812   5.715   4.459 -0.5429 -0.2535 -0.5576
15183TIP3    H167040   2.774   5.802   4.468 -1.7850 -0.9285  1.3431
15183TIP3    H267041   2.748   5.657   4.499  2.4905 -1.4362  3.2154
15184TIP3   OH267042   0.977   4.728   5.357 -0.2311  0.1993  0.1666
15184TIP3    H167043   0.999   4.779   5.435 -0.6404  0.0685  0.3729
15184TIP3    H267044   0.882   4.719   5.361 -0.1409 -0.8282  0.2902
15185TIP3   OH267045   5.937   0.187   6.368 -0.3757  0.1058  0.2974
15185TIP3    H167046   5.934   0.225   6.281  0.4819 -0.2200  0.1073
15185TIP3    H267047   5.880   0.110   6.363 -0.3905  0.1324  0.0422
15186TIP3   OH267048   2.017   3.081  14.458 -0.4662  0.0420 -0.1893
15186TIP3    H167049   2.068   3.002  14.476 -0.9335 -0.3830 -0.7138
15186TIP3    H267050   1.935   3.049  14.421  1.1690  0.8273 -5.2204
15187TIP3   OH267051   5.963   5.081  14.052 -0.1821  0.3062  0.5419
15187TIP3    H167052   5.933   5.094  14.142 -2.4719 -4.8128  0.8745
15187TIP3    H267053   5.887   5.105  13.998 -0.1504 -0.1807  0.2771
15188TIP3   OH267054   1.631   3.863  13.614 -0.0795 -0.1339 -0.2373
15188TIP3    H167055   1.546   3.905  13.629 -0.8348 -2.1906  1.9778
15188TIP3    H267056   1.610   3.770  13.604  1.8275 -0.5328 -0.9375
15189TIP3   OH267057   4.212   2.913  10.818  0.0319 -0.7770  0.2632
15189TIP3    H167058   4.180   2.881  10.734  0.3615 -0.6325  0.0791
15189TIP3    H267059   4.303   2.937  10.801  0.2371 -1.1882  0.7768
15190TIP3   OH267060   5.497   4.355   3.879  0.4610 -0.1103  0.1695
15190TIP3    H167061   5.547   4.433   3.856  0.0068 -0.2252 -1.3678
15190TIP3    H267062   5.417   4.389   3.919  0.6159  0.1838  0.2320
15191TIP3   OH267063   2.521   1.252   3.132  0.3760  0.4232  0.0468
15191TIP3    H167064   2.449   1.189   3.144 -0.2152  1.0441 -0.1502
15191TIP3    H267065   2.484   1.319   3.074  1.9850 -0.6400 -2.3351
15192TIP3   OH267066   3.583   0.282  13.689  0.1223 -0.3416 -0.2518
15192TIP3    H167067   3.572   0.299  13.595  1.4656 -0.8991 -0.5383
15192TIP3    H267068   3.494   0.277  13.723 -0.4451 -1.4981 -1.7620
15193TIP3   OH267069   6.109   4.735   1.830 -0.0166 -0.7277 -0.5406
15193TIP3    H167070   6.141   4.701   1.746 -0.0047 -1.1018 -0.3868
15193TIP3    H267071   6.040   4.796   1.807 -1.1359 -2.0410 -0.7613
15194TIP3   OH267072   6.184   4.560  15.023  0.7237  0.0040  0.0548
15194TIP3    H167073   6.236   4.520  15.093  1.2953  0.6464  0.0090
15194TIP3    H267074   6.153   4.643  15.061  0.2298 -0.0987 -0.1246
15195TIP3   OH267075   3.206   4.465  17.316  0.3752  0.3702  0.3646
15195TIP3    H167076   3.287   4.438  17.275  0.6029  0.5804  0.6732
15195TIP3    H267077   3.179   4.389  17.368 -0.5600 -0.3573 -1.1142
15196TIP3   OH267078   0.672   0.514  15.391  0.1757 -0.0441 -0.1241
15196TIP3    H167079   0.629   0.599  15.389 -0.4206 -0.3571 -0.7459
15196TIP3    H267080   0.731   0.519  15.466 -0.4484  0.6317  0.3319
15197TIP3   OH267081   6.542   0.847   6.980 -0.1221 -0.1384  0.2402
15197TIP3    H167082   6.548   0.929   7.027 -0.3699  0.2591 -0.4100
15197TIP3    H267083   6.545   0.780   7.048  2.2673  0.3024  0.6744
15198TIP3   OH267084   4.325   4.466  17.080 -0.1842  0.4196 -0.2361
15198TIP3    H167085   4.322   4.437  16.989  0.0428  0.1423 -0.1573
15198TIP3    H267086   4.416   4.451  17.107 -0.4284 -0.2331  0.2658
15199TIP3   OH267087   3.854   2.556   2.964  0.1218  0.3437 -0.4944
15199TIP3    H167088   3.796   2.584   2.894 -2.3799 -1.1766  0.8223
15199TIP3    H267089   3.871   2.636   3.015 -0.3531  0.9202 -1.2189
15200TIP3   OH267090   6.590   1.866  14.907 -0.3850 -0.3086  0.4662
15200TIP3    H167091   6.561   1.814  14.832 -0.9672  0.2640  0.2860
15200TIP3    H267092   6.515   1.921  14.928  0.7433  1.6724 -0.3876
15201TIP3   OH267093   2.971   4.490   1.291 -0.4878 -0.2695 -0.3874
15201TIP3    H167094   3.011   4.481   1.205 -0.8455  1.4286 -0.7486
15201TIP3    H267095   2.879   4.507   1.274 -0.6613 -0.4165  0.3481
15202TIP3   OH267096   4.462   5.356  15.736  0.0585 -0.0623 -0.0538
15202TIP3    H167097   4.400   5.349  15.663 -0.3233  1.1779  0.1273
15202TIP3    H267098   4.459   5.449  15.761 -0.6647 -0.6399  2.2637
15203TIP3   OH267099   3.675   6.374  17.357 -0.4471 -0.3158  0.3293
15203TIP3    H167100   3.588   6.375  17.398 -0.3860  0.9876  0.4826
15203TIP3    H267101   3.715   6.293  17.388 -0.9646 -0.1037  1.6415
15204TIP3   OH267102   3.344   1.907   1.821 -0.2466  0.1334  0.1944
15204TIP3    H167103   3.378   1.916   1.732 -2.0561 -2.3203 -0.8949
15204TIP3    H267104   3.421   1.889   1.875  0.6750 -0.7216 -1.3268
15205TIP3   OH267105   5.984   2.506   3.169  0.3646  0.3061 -0.3680
15205TIP3    H167106   6.075   2.489   3.144 -0.0885 -0.8847 -1.3271
15205TIP3    H267107   5.955   2.576   3.110 -0.2063 -1.3804 -2.2053
15206TIP3   OH267108   2.237   2.025  12.142  0.0966 -0.3446 -1.1395
15206TIP3    H167109   2.313   2.083  12.133  0.1117 -0.2303 -0.3094
15206TIP3    H267110   2.218   1.997  12.052  0.7373  0.1136 -1.4259
15207TIP3   OH267111   2.277   4.328   3.079  0.5625 -0.2709  0.4989
15207TIP3    H167112   2.255   4.407   3.128  1.7061 -0.0895  0.7447
15207TIP3    H267113   2.286   4.260   3.145  2.6014  0.0811  0.6549
15208TIP3   OH267114   2.128   4.102  15.362 -0.0842  0.0936 -0.4207
15208TIP3    H167115   2.111   4.177  15.418 -0.4720 -1.1011  1.1373
15208TIP3    H267116   2.221   4.083  15.375  0.2036  0.7480 -1.4184
15209TIP3   OH267117   5.150   6.285  11.560  0.5664 -0.6032  0.1476
15209TIP3    H167118   5.066   6.275  11.514 -1.3172  1.2619  2.8264
15209TIP3    H267119   5.156   6.206  11.614  2.3218 -2.3492 -2.4163
15210TIP3   OH267120   6.703   2.431  14.160  0.6607  0.7034  0.0430
15210TIP3    H167121   6.634   2.379  14.201  0.3670  0.5322 -0.6424
15210TIP3    H267122   6.766   2.446  14.229  1.4109 -1.6878 -0.0056
15211TIP3   OH267123   1.625   5.862  14.636  0.0131  0.1205 -0.2602
15211TIP3    H167124   1.629   5.890  14.545  2.1923 -1.2497 -0.6481
15211TIP3    H267125   1.711   5.885  14.672  0.4492 -2.3444  0.4745
15212TIP3   OH267126   2.325   1.705   5.463 -0.0256  0.4002 -0.0094
15212TIP3    H167127   2.333   1.659   5.546 -0.9081 -0.2949 -0.2956
15212TIP3    H267128   2.317   1.797   5.487  0.2734  0.2598  0.6449
15213TIP3   OH267129   2.825   3.913  15.114  0.1937 -0.3162 -0.6713
15213TIP3    H167130   2.895   3.875  15.167 -0.9646  0.0666  1.2459
15213TIP3    H267131   2.831   3.869  15.030 -0.3174 -3.9206  1.0186
15214TIP3   OH267132   2.212   5.447   0.609 -0.5269  0.0059 -0.3296
15214TIP3    H167133   2.264   5.412   0.681  1.3506  1.4393 -0.9130
15214TIP3    H267134   2.135   5.390   0.605 -0.7762 -0.0895  2.8587
15215TIP3   OH267135   6.529   1.080  13.296  0.2546 -0.2434  0.2732
15215TIP3    H167136   6.506   1.167  13.263  0.3752 -0.5280 -0.5675
15215TIP3    H267137   6.624   1.078  13.294  0.2400 -0.5867 -0.2263
15216TIP3   OH267138   0.401   6.570   2.588  0.5937  0.2636  0.1726
15216TIP3    H167139   0.432   6.658   2.563  0.1234  0.2120 -0.6424
15216TIP3    H267140   0.447   6.511   2.529 -0.0335  0.0747 -0.1363
15217TIP3   OH267141   0.321   3.051  17.335  0.8783 -0.1820  0.2871
15217TIP3    H167142   0.327   3.141  17.368  0.5581 -0.5968  1.5298
15217TIP3    H267143   0.255   3.010  17.391  0.7229 -1.0754 -0.5411
15218TIP3   OH267144   1.399   4.100  17.114  0.1034  0.0844  0.3436
15218TIP3    H167145   1.340   4.097  17.189  0.2610  0.3636  0.4826
15218TIP3    H267146   1.434   4.189  17.115 -1.1165  0.6077 -1.0261
15219TIP3   OH267147   2.333   3.465  15.773 -0.1703 -0.0585  0.3179
15219TIP3    H167148   2.411   3.520  15.759  1.5954 -1.8742  2.2979
15219TIP3    H267149   2.282   3.514  15.838 -0.8858  1.2497 -1.1493
15220TIP3   OH267150   5.230   4.245  11.558  0.0403  0.0681  0.6430
15220TIP3    H167151   5.258   4.198  11.478 -0.9881 -0.6805  0.6975
15220TIP3    H267152   5.250   4.337  11.540 -2.6401  0.3386 -1.6613
15221TIP3   OH267153   3.634   5.120   5.592  0.5197  0.1611 -0.5059
15221TIP3    H167154   3.616   5.173   5.670  0.4208  0.2981 -0.6232
15221TIP3    H267155   3.641   5.183   5.521  1.4374  0.1150 -0.4729
15222TIP3   OH267156   5.792   4.180  12.613  0.1705  0.0569 -0.6068
15222TIP3    H167157   5.859   4.197  12.679 -0.1533 -0.0449 -0.2483
15222TIP3    H267158   5.714   4.227  12.644 -0.3102 -0.8913 -0.3428
15223TIP3   OH267159   3.171   1.002   2.853 -1.0088 -0.4617  0.2279
15223TIP3    H167160   3.163   0.931   2.916 -1.7446  0.5684  1.3385
15223TIP3    H267161   3.207   0.960   2.774  2.3535 -1.3516  2.0772
15224TIP3   OH267162   2.181   5.983  15.855  0.2162 -0.1586 -0.1096
15224TIP3    H167163   2.192   5.915  15.921 -0.7197 -0.1285  0.0980
15224TIP3    H267164   2.266   6.027  15.852  0.8180 -1.2804 -0.1993
15225TIP3   OH267165   0.655   0.611  11.970 -0.2152 -0.0032  0.4845
15225TIP3    H167166   0.593   0.538  11.980  1.4926 -1.6272 -0.0798
15225TIP3    H267167   0.642   0.642  11.881 -0.1215 -0.4360  0.3182
15226TIP3   OH267168   1.578   6.191  15.595 -0.8364 -0.4588 -0.7750
15226TIP3    H167169   1.650   6.197  15.533 -0.4380  0.2629 -0.2557
15226TIP3    H267170   1.621   6.178  15.680 -1.3794 -4.8302 -0.9178
15227TIP3   OH267171   5.240   1.452  13.873 -0.0467  0.8579  0.4515
15227TIP3    H167172   5.182   1.389  13.831  0.0475  0.8731  0.2970
15227TIP3    H267173   5.328   1.420  13.854  0.1070  2.3911 -1.8421
15228TIP3   OH267174   0.046   3.180   4.081  0.4275 -0.4967  0.2572
15228TIP3    H167175  -0.030   3.123   4.069  1.2041 -1.5930  0.3868
15228TIP3    H267176   0.022   3.238   4.153 -0.0520 -1.2512  0.7117
15229TIP3   OH267177   3.115   1.171  12.345 -0.2839  0.7104 -0.3843
15229TIP3    H167178   3.193   1.211  12.384 -0.5572 -0.0463  1.0008
15229TIP3    H267179   3.122   1.078  12.368 -2.1855  0.8230  0.8662
15230TIP3   OH267180   3.268   1.757   0.081  0.4830 -0.3902  0.0476
15230TIP3    H167181   3.202   1.689   0.088  0.1990 -0.3388 -1.6864
15230TIP3    H267182   3.240   1.810   0.007  0.3784  2.0176  1.7082
15231TIP3   OH267183   3.235   4.106  16.493 -0.0647  0.4543  0.3556
15231TIP3    H167184   3.230   4.013  16.511 -1.2473  0.3313 -0.4524
15231TIP3    H267185   3.146   4.130  16.466  0.5422  1.4982 -0.8513
15232TIP3   OH267186   6.314   3.062  15.606 -0.0149  0.1481 -0.0344
15232TIP3    H167187   6.262   3.085  15.683 -0.7026  0.8225 -0.6824
15232TIP3    H267188   6.370   2.990  15.635 -1.3843 -0.6761  0.6620
15233TIP3   OH267189   1.481   2.050  16.328  0.1632 -0.5976  0.7485
15233TIP3    H167190   1.406   2.101  16.358 -1.5726 -2.2663 -0.4364
15233TIP3    H267191   1.544   2.053  16.400 -1.3652  0.2387  2.1042
15234TIP3   OH267192   1.494   0.084  16.316  0.4486 -0.0449  0.0730
15234TIP3    H167193   1.414   0.119  16.355 -0.3326 -0.8824 -0.7260
15234TIP3    H267194   1.550   0.063  16.391  0.1878  1.1466  0.6168
15235TIP3   OH267195   5.956   4.516   1.604 -0.4080  0.3280  0.1243
15235TIP3    H167196   5.965   4.428   1.641 -0.7242  0.9844  1.8530
15235TIP3    H267197   6.047   4.546   1.591 -0.2207  0.7952  2.2289
15236TIP3   OH267198   2.531   4.298  17.330  0.1469  0.1421 -0.0093
15236TIP3    H167199   2.494   4.331  17.248  0.1376 -0.7161 -0.3590
15236TIP3    H267200   2.619   4.337  17.333  0.3428 -0.2155 -0.6937
15237TIP3   OH267201   3.719   3.463   2.696  0.0163 -0.2922 -0.0908
15237TIP3    H167202   3.800   3.506   2.668  0.0723 -0.7784 -0.6928
15237TIP3    H267203   3.695   3.508   2.777  2.2010 -1.7310  1.4516
15238TIP3   OH267204   1.423   4.425   3.339  0.0778 -0.3168 -0.0567
15238TIP3    H167205   1.417   4.372   3.419 -0.8577  1.1306  0.8970
15238TIP3    H267206   1.478   4.374   3.280  0.7787 -1.4510  1.5013
15239TIP3   OH267207   1.664   2.367   3.295  0.0890 -0.2423  0.3526
15239TIP3    H167208   1.577   2.404   3.314 -0.3777 -1.1362  0.0049
15239TIP3    H267209   1.720   2.444   3.285 -1.1733  0.4825 -1.9021
15240TIP3   OH267210   3.530   6.782  12.879  0.1308 -0.1094 -0.2117
15240TIP3    H167211   3.538   6.688  12.898  1.3333 -0.4603 -2.1026
15240TIP3    H267212   3.519   6.785  12.783 -1.0379  1.6497 -0.0713
15241TIP3   OH267213   5.961   3.518  12.981  0.5367  0.0467 -0.5118
15241TIP3    H167214   6.038   3.532  13.035  1.0648 -2.6616 -0.4067
15241TIP3    H267215   5.887   3.537  13.039  1.1107 -1.8604  0.9205
15242TIP3   OH267216   2.536   2.678   2.535  0.1102 -0.5196 -0.0241
15242TIP3    H167217   2.518   2.662   2.442 -0.5714 -0.0896  0.0237
15242TIP3    H267218   2.541   2.591   2.573  0.6438 -0.7057 -0.5084
15243TIP3   OH267219   2.446   4.705   5.148  0.6369  0.0644 -0.2507
15243TIP3    H167220   2.425   4.713   5.241 -0.0332  0.1059 -0.3983
15243TIP3    H267221   2.538   4.731   5.141  1.2134 -1.5910  0.6455
15244TIP3   OH267222   6.537   3.449  11.828 -0.2807 -0.0146  0.0376
15244TIP3    H167223   6.532   3.533  11.783  0.8403  0.0446 -0.0005
15244TIP3    H267224   6.496   3.387  11.768  0.1618  0.2690 -0.5694
15245TIP3   OH267225   2.657   0.467  14.775 -0.0488 -0.5035  0.3101
15245TIP3    H167226   2.573   0.463  14.728  0.6805 -0.9201 -0.9912
15245TIP3    H267227   2.686   0.376  14.778  1.6623 -0.1013 -1.7257
15246TIP3   OH267228   3.214   0.484   1.335 -0.9636  0.7332  0.1174
15246TIP3    H167229   3.246   0.558   1.284  1.1314 -0.2134 -0.0665
15246TIP3    H267230   3.185   0.522   1.418  1.2817  1.6755  0.5390
15247TIP3   OH267231   5.438   6.252   5.616 -0.3075 -0.1367 -0.6370
15247TIP3    H167232   5.353   6.228   5.655 -0.6191 -0.0288 -1.2435
15247TIP3    H267233   5.425   6.240   5.522  0.0682  0.7744 -0.8077
15248TIP3   OH267234   3.046   4.523   1.619  0.2317 -0.1547 -0.0017
15248TIP3    H167235   3.033   4.444   1.566  0.7942 -0.6926  0.6439
15248TIP3    H267236   2.966   4.574   1.606 -2.2853 -2.8554  3.0657
15249TIP3   OH267237   6.044   4.060   0.036  0.4297 -0.4818  0.7871
15249TIP3    H167238   6.110   4.090   0.098  0.9467 -0.2875  0.1563
15249TIP3    H267239   6.052   4.120  -0.039  0.6136 -1.4029  0.0419
15250TIP3   OH267240   5.758   1.444  15.375 -0.1964 -0.1714  0.2973
15250TIP3    H167241   5.779   1.383  15.446 -0.9851 -1.8275 -0.8280
15250TIP3    H267242   5.673   1.481  15.398 -0.1416 -0.1926  0.5324
15251TIP3   OH267243   5.148   1.565   4.735 -0.2197  0.0847  0.3553
15251TIP3    H167244   5.178   1.560   4.826 -0.8188 -0.0716  0.5482
15251TIP3    H267245   5.225   1.595   4.686 -0.1896  1.2441  1.0664
15252TIP3   OH267246   4.670   1.727  13.629  0.3160  0.2613 -0.7425
15252TIP3    H167247   4.610   1.693  13.695  0.7562  0.5465 -0.1875
15252TIP3    H267248   4.732   1.782  13.678  1.0884 -0.1027 -1.2861
15253TIP3   OH267249   0.236   4.731  14.535  0.5274 -0.1267 -0.4238
15253TIP3    H167250   0.200   4.818  14.550 -0.3857 -0.4394 -0.7023
15253TIP3    H267251   0.325   4.747  14.503  0.9620  0.6408  1.0970
15254TIP3   OH267252   1.464   6.576  15.487  0.2293 -0.3526  0.6910
15254TIP3    H167253   1.405   6.501  15.492 -1.1148  0.7083  1.0242
15254TIP3    H267254   1.548   6.542  15.518 -0.7233 -1.3535  2.3091
15255TIP3   OH267255   6.643   5.541  14.230 -0.0561  0.6213  0.3521
15255TIP3    H167256   6.603   5.604  14.171 -0.2571  0.9603  0.8449
15255TIP3    H267257   6.571   5.511  14.286 -0.3798 -1.4015 -1.0165
15256TIP3   OH267258   0.548   6.032  14.938  0.4561  0.9859  0.8483
15256TIP3    H167259   0.530   5.991  14.853  0.1315 -0.3474  1.5334
15256TIP3    H267260   0.488   6.107  14.941 -1.1663 -0.2647  0.8167
15257TIP3   OH267261   3.445   0.446   3.924 -1.2521 -0.4454 -0.2729
15257TIP3    H167262   3.473   0.439   3.832 -0.9637  0.6837 -0.2894
15257TIP3    H267263   3.376   0.512   3.923  0.5463  1.5734  0.6507
15258TIP3   OH267264   4.516   4.036  16.753  0.6981 -0.2785 -0.0235
15258TIP3    H167265   4.460   4.062  16.826  0.1863 -0.1149 -0.4711
15258TIP3    H267266   4.601   4.074  16.773  0.3012  0.6347 -0.0151
15259TIP3   OH267267   0.686   0.049   6.049 -0.5799  0.1093 -0.1897
15259TIP3    H167268   0.752   0.110   6.083 -0.6015 -0.4216  0.8252
15259TIP3    H267269   0.615   0.053   6.112 -0.1828 -1.6517  0.4158
15260TIP3   OH267270   1.721   2.734   6.725  0.5034  0.3809  0.0817
15260TIP3    H167271   1.708   2.790   6.802  0.1058  1.2264 -0.5823
15260TIP3    H267272   1.796   2.679   6.748  0.8679  1.1404  0.7901
15261TIP3   OH267273   4.372   1.282   3.498 -0.5113 -0.4497  0.1537
15261TIP3    H167274   4.369   1.290   3.594 -1.6597  0.4676  0.0610
15261TIP3    H267275   4.465   1.288   3.477 -0.4079  2.2468  1.0181
15262TIP3   OH267276   0.680   6.362  13.034 -0.2871 -0.0598 -0.0799
15262TIP3    H167277   0.693   6.446  12.988 -1.7154  0.6154  0.6661
15262TIP3    H267278   0.687   6.385  13.126 -1.0939 -0.6750  0.1422
15263TIP3   OH267279   3.747   5.408  14.726 -0.6108  0.5023  0.0822
15263TIP3    H167280   3.830   5.449  14.750 -0.0759 -0.8931  0.7957
15263TIP3    H267281   3.693   5.417  14.804 -1.2756  1.7265 -0.5075
15264TIP3   OH267282   2.833   4.637   1.500  0.3025  0.0841 -0.0898
15264TIP3    H167283   2.743   4.618   1.474 -0.2579  0.2509  1.6038
15264TIP3    H267284   2.886   4.578   1.447 -0.5869  1.4847 -2.7557
15265TIP3   OH267285   0.372   3.686  10.811  0.1200  0.2744  0.0028
15265TIP3    H167286   0.449   3.713  10.762 -0.4127  1.9472  0.0316
15265TIP3    H267287   0.325   3.627  10.752 -0.1606  1.7099 -1.2885
15266TIP3   OH267288   1.980   2.154  16.123  0.1509 -0.0263 -0.6889
15266TIP3    H167289   1.991   2.066  16.160  1.3219 -0.3581 -1.7255
15266TIP3    H267290   2.067   2.176  16.089 -0.8571  0.1080 -3.4680
15267TIP3   OH267291   0.853   2.664  13.877  0.8856 -0.3507 -0.0329
15267TIP3    H167292   0.834   2.755  13.854  0.2507  0.0708  1.9925
15267TIP3    H267293   0.941   2.665  13.913  0.2775 -0.2136  1.5165
15268TIP3   OH267294   3.623   5.283   5.822 -0.2262  0.1478 -0.1817
15268TIP3    H167295   3.530   5.281   5.844 -0.3197 -0.6601 -0.6123
15268TIP3    H267296   3.668   5.275   5.907 -0.5377  0.8492  0.0564
15269TIP3   OH267297   3.026   1.463   6.566 -0.1596  0.0907 -0.2639
15269TIP3    H167298   2.994   1.536   6.514 -1.3586  1.0836  1.7309
15269TIP3    H267299   3.110   1.493   6.601  0.5721 -0.5169 -1.4325
15270TIP3   OH267300   3.891   4.659  14.824 -0.3763 -0.5883  0.1649
15270TIP3    H167301   3.823   4.669  14.891  0.3370 -2.6871  1.2786
15270TIP3    H267302   3.969   4.697  14.865  0.1314 -2.1421  0.6932
15271TIP3   OH267303   1.243   6.427   2.719 -0.0103  0.1129  0.1690
15271TIP3    H167304   1.333   6.399   2.735 -0.1348 -0.4386 -0.0670
15271TIP3    H267305   1.205   6.355   2.668  0.1075  1.3748 -1.7978
15272TIP3   OH267306   2.335   1.742  10.659  0.0064  0.2570  0.7465
15272TIP3    H167307   2.372   1.763  10.745 -0.4902  1.5298  0.6675
15272TIP3    H267308   2.343   1.823  10.609 -0.9125 -0.0882  0.0212
15273TIP3   OH267309   1.046   4.180   1.791  0.3530 -0.2032  0.3171
15273TIP3    H167310   1.046   4.234   1.871  0.2637 -2.2590  1.7740
15273TIP3    H267311   1.029   4.091   1.822 -1.6396 -0.8112 -2.2168
15274TIP3   OH267312   4.949   6.133  12.930  0.1929  0.0538  0.0172
15274TIP3    H167313   4.959   6.053  12.878  0.5726 -1.0300  1.6825
15274TIP3    H267314   5.027   6.185  12.909 -0.2595  0.2098 -1.3929
15275TIP3   OH267315   2.096   4.685   5.341 -0.0618  0.6155 -0.3193
15275TIP3    H167316   2.119   4.767   5.385 -0.4513 -0.1484  1.3899
15275TIP3    H267317   2.103   4.618   5.410 -1.5417 -0.5087 -1.2113
15276TIP3   OH267318   4.961   3.471   5.719  0.3530  0.3218  0.0600
15276TIP3    H167319   5.038   3.527   5.723  0.2717  0.4336  0.0479
15276TIP3    H267320   4.928   3.481   5.630  0.2252  0.4059  0.1169
15277TIP3   OH267321   0.662   5.094  13.860  0.5541  0.3108  0.1807
15277TIP3    H167322   0.658   5.163  13.794  1.0212 -0.1686 -0.3629
15277TIP3    H267323   0.626   5.016  13.816  1.6075 -0.2120  0.2044
15278TIP3   OH267324   5.194   3.672   3.513  0.2798  0.5388  0.0112
15278TIP3    H167325   5.128   3.625   3.462 -0.1975  0.2339  0.8963
15278TIP3    H267326   5.166   3.662   3.604  0.0622  2.6639  0.2334
15279TIP3   OH267327   5.675   0.256  15.980  0.4713  0.5084  0.0454
15279TIP3    H167328   5.684   0.245  15.885  0.2715  0.7795 -0.0069
15279TIP3    H267329   5.724   0.183  16.018  1.2044  0.8427 -0.2593
15280TIP3   OH267330   1.005   2.041  16.673  0.2572  0.0370 -0.3670
15280TIP3    H167331   0.944   2.090  16.728  1.2308 -0.5872  1.3522
15280TIP3    H267332   1.066   2.106  16.640  0.2983  0.2864  0.1847
15281TIP3   OH267333   5.117   2.428  15.660 -0.5706  0.1182 -0.3427
15281TIP3    H167334   5.187   2.412  15.723 -1.5793 -1.2000  0.5012
15281TIP3    H267335   5.074   2.508  15.690 -0.0880  0.3485 -0.2623
15282TIP3   OH267336   6.674   1.087   5.695 -0.4889 -0.0514  0.3935
15282TIP3    H167337   6.740   1.076   5.764 -1.1796  0.5372  1.1689
15282TIP3    H267338   6.591   1.081   5.741 -0.9857 -0.5092 -0.5383
15283TIP3   OH267339   5.698   5.194  15.164 -1.1796 -0.1098 -0.1653
15283TIP3    H167340   5.774   5.137  15.151 -1.6996 -1.6227  2.4929
15283TIP3    H267341   5.719   5.274  15.117  1.6628 -0.8140 -0.2819
15284TIP3   OH267342   6.774   6.397  11.501  0.1308  0.1989 -0.4358
15284TIP3    H167343   6.699   6.373  11.556 -1.1803  3.6376 -0.4461
15284TIP3    H267344   6.757   6.355  11.417 -1.5736  0.4809 -0.2635
15285TIP3   OH267345   1.388   3.286   4.794 -0.0187  0.0969 -0.6660
15285TIP3    H167346   1.461   3.338   4.761  0.5839  0.5222  1.2118
15285TIP3    H267347   1.356   3.335   4.870 -0.6896 -1.3087  0.0043
15286TIP3   OH267348   6.499   5.334  17.346  0.2943 -0.3457 -0.1392
15286TIP3    H167349   6.540   5.326  17.432  0.0186 -1.1085 -0.0749
15286TIP3    H267350   6.571   5.350  17.286  0.4351  0.7571  0.3031
15287TIP3   OH267351   4.704   5.749   4.712 -0.2570 -0.0487 -0.0332
15287TIP3    H167352   4.780   5.698   4.737 -0.4376 -1.2110 -1.7185
15287TIP3    H267353   4.646   5.744   4.788 -0.6382 -3.1271 -0.3926
15288TIP3   OH267354   1.287   5.664   3.158 -0.0921 -0.5399  0.4444
15288TIP3    H167355   1.262   5.634   3.246 -1.3226 -1.1956 -0.0955
15288TIP3    H267356   1.214   5.718   3.129  1.4520  1.8791  0.8056
15289TIP3   OH267357   1.970   1.164   0.830  0.1780 -0.0333  0.2240
15289TIP3    H167358   1.896   1.143   0.774 -0.2850  1.7062  0.1144
15289TIP3    H267359   2.037   1.196   0.769  0.7411 -0.8636  0.3969
15290TIP3   OH267360   4.148   2.020  16.295  0.3070 -0.1123 -0.5303
15290TIP3    H167361   4.058   2.049  16.281  0.4994 -0.3107 -2.4818
15290TIP3    H267362   4.140   1.928  16.319 -0.0546  0.2933  1.0807
15291TIP3   OH267363   4.055   6.165  15.440  0.0027 -0.2711 -0.1631
15291TIP3    H167364   4.049   6.138  15.348 -0.0875 -1.3318  0.1382
15291TIP3    H267365   4.129   6.225  15.443  0.7443 -1.1268 -0.7384
15292TIP3   OH267366   4.019   2.898  11.655 -0.1165 -0.3004  0.0658
15292TIP3    H167367   4.028   2.991  11.637  0.7149 -0.4569 -0.3468
15292TIP3    H267368   3.952   2.868  11.594  1.5071 -0.4961 -1.7003
15293TIP3   OH267369   6.762   0.515  11.507 -0.0384  0.2226  0.1887
15293TIP3    H167370   6.753   0.576  11.434  0.9281  1.7602  1.3053
15293TIP3    H267371   6.672   0.487  11.526 -0.4770  1.1131 -0.5033
15294TIP3   OH267372   2.542   5.188  16.107 -0.2112  0.1220  0.2854
15294TIP3    H167373   2.476   5.176  16.176 -0.6590  0.5157 -0.0653
15294TIP3    H267374   2.573   5.278  16.118 -1.1117  0.5850 -0.7155
15295TIP3   OH267375   5.356   1.434  13.256  0.0144  0.1364  0.2586
15295TIP3    H167376   5.382   1.345  13.232 -1.6814 -0.7017  1.3657
15295TIP3    H267377   5.375   1.486  13.178  1.2324 -1.1310 -0.3388
15296TIP3   OH267378   0.730   1.635   3.551  0.0362 -0.4318  0.5873
15296TIP3    H167379   0.638   1.650   3.572 -0.0905 -0.1933 -0.1008
15296TIP3    H267380   0.752   1.552   3.593 -0.7805 -1.0161 -0.1175
15297TIP3   OH267381   5.590   6.685  16.753 -0.4122  0.2721  0.3915
15297TIP3    H167382   5.567   6.616  16.815 -1.9173 -1.1390 -1.6064
15297TIP3    H267383   5.520   6.750  16.762 -1.2385 -0.4561 -0.5144
15298TIP3   OH267384   5.809   5.414  14.984  0.1149 -0.3142  0.1406
15298TIP3    H167385   5.894   5.424  14.941  0.7017 -1.8113  0.8824
15298TIP3    H267386   5.808   5.484  15.050  1.8853 -1.7198  1.7911
15299TIP3   OH267387   6.615   4.298   2.225  0.4202  0.1343  0.2743
15299TIP3    H167388   6.660   4.333   2.148 -0.0879  2.3430  0.9181
15299TIP3    H267389   6.550   4.365   2.248 -2.0143 -2.1103  0.4617
15300TIP3   OH267390   1.172   0.370   5.287  0.0415  0.1970  0.2391
15300TIP3    H167391   1.191   0.432   5.217 -0.0601  0.3590  0.3543
15300TIP3    H267392   1.207   0.286   5.255  0.6119  0.4148  0.2933
15301TIP3   OH267393   3.087   5.203   0.590 -0.1048 -0.5212 -0.0341
15301TIP3    H167394   3.030   5.233   0.520 -1.6667 -1.5289  0.7403
15301TIP3    H267395   3.077   5.269   0.659  0.8987  0.1068 -0.4621
15302TIP3   OH267396   4.268   1.819  14.006  0.1294  0.1027  0.1522
15302TIP3    H167397   4.261   1.848  13.915 -0.1765  1.2855  0.5432
15302TIP3    H267398   4.320   1.738  14.001 -1.0103 -0.5914 -1.1958
15303TIP3   OH267399   4.624   0.754  13.928 -0.3509 -0.4934 -0.9269
15303TIP3    H167400   4.635   0.660  13.943  0.6147 -0.7568 -2.9204
15303TIP3    H267401   4.587   0.787  14.010  1.8646 -2.1161  0.8515
15304TIP3   OH267402   5.949   4.587   5.760  0.2211  0.6165 -0.1942
15304TIP3    H167403   5.989   4.653   5.817  0.4169 -0.0116  0.4151
15304TIP3    H267404   6.007   4.512   5.766 -0.3991  0.1206 -0.2711
15305TIP3   OH267405   5.071   5.106   3.427  0.0826  0.1067 -0.2637
15305TIP3    H167406   5.160   5.080   3.404 -0.7723 -1.3986 -2.2076
15305TIP3    H267407   5.059   5.076   3.517  0.9443 -1.3951 -0.6227
15306TIP3   OH267408   1.173   3.973  14.924 -0.0988  0.3402 -0.0592
15306TIP3    H167409   1.090   3.950  14.966  0.0908  0.0659  0.1659
15306TIP3    H267410   1.240   3.934  14.980  0.1400 -0.6490 -1.0049
15307TIP3   OH267411   6.378   1.122   2.138 -0.2628  0.2093 -0.9280
15307TIP3    H167412   6.394   1.178   2.213 -0.9133 -0.0865 -0.5582
15307TIP3    H267413   6.291   1.147   2.107 -0.1895  0.0127 -1.3013
15308TIP3   OH267414   0.473   0.487   2.482  0.1079 -0.3292  0.0950
15308TIP3    H167415   0.395   0.435   2.504 -0.7119  0.8612  0.1248
15308TIP3    H267416   0.514   0.440   2.410 -1.7299 -0.0158 -1.2284
15309TIP3   OH267417   1.545   0.083  14.104 -0.1094  0.1409  0.0454
15309TIP3    H167418   1.607   0.106  14.173  0.0889  2.2317 -0.7586
15309TIP3    H267419   1.593   0.099  14.022 -1.2133  0.3884 -0.5762
15310TIP3   OH267420   4.457   4.668   0.215 -0.0277  0.1173 -0.3485
15310TIP3    H167421   4.428   4.753   0.183  2.9565  1.5199  0.3522
15310TIP3    H267422   4.433   4.667   0.308 -1.6923 -0.6592 -0.7429
15311TIP3   OH267423   2.443   5.107   0.294  0.2588 -0.3178  0.2069
15311TIP3    H167424   2.431   5.154   0.212 -0.0343 -0.6803  0.0408
15311TIP3    H267425   2.457   5.016   0.269 -1.4372 -0.7307  0.6038
15312TIP3   OH267426   1.718   4.893  10.606  0.0916 -0.1955 -0.1226
15312TIP3    H167427   1.658   4.937  10.667 -0.0752 -1.9809  1.0666
15312TIP3    H267428   1.665   4.826  10.564  0.7169 -0.3114 -0.7508
15313TIP3   OH267429   3.164   6.445   4.670 -0.1769 -0.6439 -0.2563
15313TIP3    H167430   3.105   6.456   4.745  0.1595  0.0798 -0.0871
15313TIP3    H267431   3.209   6.529   4.662  1.0035 -1.2492 -0.2398
15314TIP3   OH267432   5.228   6.214  15.362 -0.2390 -0.0734 -0.1690
15314TIP3    H167433   5.321   6.235  15.349 -0.0051 -0.6771  0.4561
15314TIP3    H267434   5.186   6.243  15.282  0.4466  0.4804 -0.3417
15315TIP3   OH267435   3.864   4.136  15.588  0.2536  0.0577 -0.0412
15315TIP3    H167436   3.942   4.191  15.580  0.4200  0.0681  1.4938
15315TIP3    H267437   3.898   4.047  15.597  0.1512  0.1763  1.7282
15316TIP3   OH267438   4.527   2.180   2.858 -1.0518 -0.4212  0.1137
15316TIP3    H167439   4.501   2.220   2.775 -1.0088  0.3637  0.4610
15316TIP3    H267440   4.479   2.230   2.924 -0.9426 -0.9121  0.5717
15317TIP3   OH267441   4.506   3.667   4.426 -0.1424 -0.0371  0.1119
15317TIP3    H167442   4.468   3.584   4.456 -1.2562 -0.9561 -3.4316
15317TIP3    H267443   4.599   3.647   4.411 -0.3840 -0.6133 -0.6233
15318TIP3   OH267444   5.345   3.667   3.955  0.2458  0.0496 -0.1737
15318TIP3    H167445   5.349   3.635   3.864 -0.8599 -2.7512  0.6481
15318TIP3    H267446   5.306   3.594   4.004  0.4619  1.6181  2.5136
15319TIP3   OH267447   3.557   2.661  11.448 -0.6772 -0.5541  0.3941
15319TIP3    H167448   3.555   2.754  11.429  2.1439 -0.5324 -0.3136
15319TIP3    H267449   3.468   2.630  11.430 -1.4798  1.8444 -0.0555
15320TIP3   OH267450   1.865   3.565  11.265  0.5644 -0.3128  0.2565
15320TIP3    H167451   1.876   3.578  11.171  0.7167  0.0514  0.3255
15320TIP3    H267452   1.776   3.595  11.283  0.5867 -0.2472  0.2557
15321TIP3   OH267453   6.413   2.106   3.621 -0.2101 -0.4610  0.2954
15321TIP3    H167454   6.399   2.047   3.547  1.3227 -0.2838 -0.1660
15321TIP3    H267455   6.335   2.162   3.622  0.6125  0.9549 -2.5604
15322TIP3   OH267456   3.371   3.541  12.577  1.0685 -0.4277  0.1072
15322TIP3    H167457   3.464   3.562  12.584  1.0920  0.1721 -1.5404
15322TIP3    H267458   3.354   3.539  12.483 -0.7589  0.2727  0.3809
15323TIP3   OH267459   4.936   2.114  13.883  0.2847 -0.0022  0.4068
15323TIP3    H167460   4.930   2.040  13.823  1.6566 -0.0041  0.2351
15323TIP3    H267461   4.853   2.113  13.931 -0.6778 -0.2377 -1.1874
15324TIP3   OH267462   4.706   4.918   5.966  0.0884  0.1265  0.3070
15324TIP3    H167463   4.705   4.942   6.059  0.1409 -0.8797  0.5842
15324TIP3    H267464   4.712   4.822   5.967  1.5979  0.1962 -0.7452
15325TIP3   OH267465   6.496   4.366  11.910 -0.4408  0.0675  0.0385
15325TIP3    H167466   6.489   4.356  12.005 -1.1998  1.2829  0.1347
15325TIP3    H267467   6.519   4.458  11.897  1.5001 -0.4980 -0.9021
15326TIP3   OH267468   2.631   2.780   4.015  0.2107  0.1843 -0.0217
15326TIP3    H167469   2.645   2.709   3.953 -1.0810 -0.3276  0.2506
15326TIP3    H267470   2.658   2.859   3.967  0.1550 -0.3086 -0.8852
15327TIP3   OH267471   1.756   4.259  14.659  0.5322  0.4735  0.3099
15327TIP3    H167472   1.797   4.330  14.610  1.3240 -0.5909 -0.6331
15327TIP3    H267473   1.829   4.200  14.679 -0.5184 -1.6676 -1.7244
15328TIP3   OH267474   2.988   4.955  13.554  0.1738 -0.0592  0.2745
15328TIP3    H167475   3.059   4.987  13.499  0.5022  0.0417  0.7530
15328TIP3    H267476   2.938   4.896  13.497  0.8328 -0.3968  0.0343
15329TIP3   OH267477   6.116   4.865  12.178  0.0252  0.4408  0.3922
15329TIP3    H167478   6.208   4.851  12.155  0.1318 -0.0810  1.0867
15329TIP3    H267479   6.077   4.905  12.100  0.4321 -0.9389 -0.5444
15330TIP3   OH267480   3.306   0.377   3.140 -0.2644  0.2702  0.4175
15330TIP3    H167481   3.366   0.419   3.078  1.0335 -0.3000  1.2250
15330TIP3    H267482   3.219   0.403   3.111  0.3976  1.9394 -0.2383
15331TIP3   OH267483   4.872   1.464   0.453 -0.4631 -0.2168 -0.8475
15331TIP3    H167484   4.942   1.405   0.424 -0.6028  0.6492 -3.1366
15331TIP3    H267485   4.835   1.499   0.372 -2.7760  0.2825  0.3373
15332TIP3   OH267486   4.724   5.052  15.101 -0.0252 -0.3919 -0.2863
15332TIP3    H167487   4.665   5.071  15.174 -0.4880  1.1253 -1.0112
15332TIP3    H267488   4.702   5.118  15.035  2.6636  0.4538 -0.4578
15333TIP3   OH267489   0.214   5.631   0.228  0.5208  0.3015  0.0931
15333TIP3    H167490   0.201   5.719   0.265 -2.2142  0.9768 -2.0996
15333TIP3    H267491   0.270   5.645   0.151  0.2242  0.1114 -0.1596
15334TIP3   OH267492   4.615   6.128   0.455 -0.2097  0.4223 -0.0703
15334TIP3    H167493   4.585   6.059   0.515 -1.9248  0.1392 -1.1857
15334TIP3    H267494   4.654   6.081   0.382 -0.6747  0.6417 -0.4690
15335TIP3   OH267495   6.390   3.190  14.233  0.0884 -0.0826  0.5476
15335TIP3    H167496   6.374   3.146  14.149  1.7923 -0.3482  0.3278
15335TIP3    H267497   6.309   3.237  14.250 -0.4715 -0.3887 -1.0291
15336TIP3   OH267498   5.971   1.595  14.973 -0.2741 -0.0816 -0.3149
15336TIP3    H167499   5.939   1.683  14.991 -0.0041 -0.0238 -0.1052
15336TIP3    H267500   5.962   1.585  14.878 -0.7128  0.0073 -0.2865
15337TIP3   OH267501   1.960   6.049  12.322  0.1203  0.1055 -0.0053
15337TIP3    H167502   1.883   6.010  12.280  0.1296  1.7327 -1.6620
15337TIP3    H267503   2.011   6.085  12.249 -0.0984  3.5362  1.3617
15338TIP3   OH267504   5.603   3.881   1.626  0.5240  0.0913 -0.5197
15338TIP3    H167505   5.699   3.888   1.622  0.5332 -0.2483 -0.9174
15338TIP3    H267506   5.581   3.907   1.716  0.7274  3.0682 -1.2234
15339TIP3   OH267507   6.598   0.100   3.936  0.1544 -0.0747 -0.0895
15339TIP3    H167508   6.673   0.143   3.977 -0.2629 -0.2629  0.8985
15339TIP3    H267509   6.561   0.045   4.005 -0.3491 -0.6904 -0.8335
15340TIP3   OH267510   2.469   6.236   6.150  0.3012  0.3458  0.0023
15340TIP3    H167511   2.534   6.200   6.089 -0.6790 -0.6334 -0.4916
15340TIP3    H267512   2.497   6.327   6.164  3.6137 -0.8354  2.2921
15341TIP3   OH267513   2.425   5.814   6.726 -0.5784 -0.1586 -0.1125
15341TIP3    H167514   2.435   5.854   6.813  1.8965 -2.6324  0.8706
15341TIP3    H267515   2.330   5.815   6.710 -1.0243  1.2011  2.1741
15342TIP3   OH267516   6.537   0.489  15.976  0.6267  0.1702 -0.5301
15342TIP3    H167517   6.548   0.579  16.006 -1.4172  0.3431 -0.1603
15342TIP3    H267518   6.504   0.497  15.887 -1.4342 -0.1116  0.1566
15343TIP3   OH267519   1.909   0.151   0.368 -0.1217  0.4957 -0.2870
15343TIP3    H167520   1.816   0.130   0.383 -0.2838  1.2084 -0.2727
15343TIP3    H267521   1.910   0.245   0.354  0.4157  0.2874 -1.7557
15344TIP3   OH267522   6.397   4.808  12.082 -0.8651  0.1185  0.2545
15344TIP3    H167523   6.419   4.898  12.058 -0.9607 -0.1752 -1.0124
15344TIP3    H267524   6.439   4.795  12.167 -0.1720  1.0982  0.0830
15345TIP3   OH267525   6.127   4.256   0.474  0.7461 -0.1578  0.7978
15345TIP3    H167526   6.155   4.304   0.396 -0.7758  1.0783  0.9662
15345TIP3    H267527   6.115   4.166   0.443  0.6398  0.2070 -0.2808
15346TIP3   OH267528   6.209   4.893   2.471 -0.1560 -0.1995 -0.6777
15346TIP3    H167529   6.165   4.811   2.492 -1.1519  0.7894  1.3868
15346TIP3    H267530   6.243   4.880   2.382  1.0179 -3.3417  0.1131
15347TIP3   OH267531   3.106   2.474  15.077 -0.2226 -0.1099  0.9372
15347TIP3    H167532   3.121   2.379  15.076  0.3180 -0.0493 -0.8478
15347TIP3    H267533   3.012   2.483  15.090 -0.3963 -0.9356  0.3672
15348TIP3   OH267534   2.669   0.984  11.786  0.1458  0.0594  0.1447
15348TIP3    H167535   2.590   1.037  11.781  0.7134  1.1021  1.4509
15348TIP3    H267536   2.738   1.041  11.752  0.0174 -1.7634 -3.6065
15349TIP3   OH267537   2.439   0.430  12.581 -0.5293 -0.6491  0.0737
15349TIP3    H167538   2.461   0.347  12.540 -0.1970 -1.7681  2.3249
15349TIP3    H267539   2.523   0.475  12.592 -0.8383  0.6919 -2.3769
15350TIP3   OH267540   4.193   4.746  11.797 -0.1427 -0.2590 -0.3340
15350TIP3    H167541   4.253   4.739  11.723  0.1149  0.2709 -0.1817
15350TIP3    H267542   4.156   4.658  11.806  0.0771 -0.4132 -0.8737
15351TIP3   OH267543   1.508   0.337  15.074  0.8186 -0.5791 -0.4160
15351TIP3    H167544   1.557   0.301  15.148 -1.0003 -1.3504  0.4644
15351TIP3    H267545   1.436   0.275  15.060  0.4835  0.1401 -2.1226
15352TIP3   OH267546   2.575   6.151  14.816 -0.1931  0.4560  0.5391
15352TIP3    H167547   2.653   6.204  14.830  0.2322 -0.3846  1.4645
15352TIP3    H267548   2.502   6.213  14.820  0.3873  1.1965  0.0076
15353TIP3   OH267549   1.365   2.681  11.660 -0.7585 -0.4534 -0.5192
15353TIP3    H167550   1.315   2.757  11.631  2.6526  1.3219 -2.2648
15353TIP3    H267551   1.364   2.686  11.755  1.1426  3.1374 -0.5554
15354TIP3   OH267552   6.226   0.532   0.006 -0.2756  0.2100 -0.1542
15354TIP3    H167553   6.149   0.555   0.057 -0.2324 -0.3798  0.1889
15354TIP3    H267554   6.269   0.463   0.057  0.3958  0.4212 -0.4180
15355TIP3   OH267555   1.205   4.450  15.870  0.4002 -0.3686  0.0574
15355TIP3    H167556   1.159   4.534  15.868 -0.9708 -1.0463  1.4951
15355TIP3    H267557   1.169   4.402  15.796 -0.7786 -0.6478  0.7854
15356TIP3   OH267558   6.454   4.637  14.812  0.9683  0.5824 -0.3408
15356TIP3    H167559   6.530   4.649  14.871  0.1104  1.2474  0.6763
15356TIP3    H267560   6.411   4.558  14.844  0.4410  1.0032  0.0162
15357TIP3   OH267561   0.136   5.700  17.279  0.2961 -0.5556 -0.5868
15357TIP3    H167562   0.054   5.672  17.239  1.0019 -0.1498 -2.4042
15357TIP3    H267563   0.122   5.792  17.302 -0.9204 -1.3680  2.4417
15358TIP3   OH267564   1.703   6.204  15.112 -0.4297  0.3599 -0.1182
15358TIP3    H167565   1.676   6.197  15.021  0.4326 -2.2920 -0.2690
15358TIP3    H267566   1.785   6.253  15.110  0.8096 -1.6214 -1.1392
15359TIP3   OH267567   4.819   4.646  17.266  0.2393  0.4380 -0.1580
15359TIP3    H167568   4.756   4.580  17.238  1.1374 -0.9705  0.9613
15359TIP3    H267569   4.795   4.665  17.357  0.8354  0.6104 -0.0321
15360TIP3   OH267570   3.387   1.097   3.731  0.5337  0.2623 -0.1775
15360TIP3    H167571   3.450   1.145   3.678  0.0943  0.7342 -0.2750
15360TIP3    H267572   3.440   1.055   3.798  1.0676 -0.1272 -0.8224
15361TIP3   OH267573   0.372   4.663   5.029  0.2922 -0.6706  0.8171
15361TIP3    H167574   0.288   4.707   5.020  0.1112 -1.1493  0.1041
15361TIP3    H267575   0.372   4.628   5.118 -0.0344 -0.2241  0.9990
15362TIP3   OH267576   0.064   6.800   2.859 -0.6114  0.3377  0.8390
15362TIP3    H167577   0.130   6.828   2.922  0.4882  0.3421 -0.2723
15362TIP3    H267578   0.101   6.721   2.819 -0.1062  1.6616 -1.5042
15363TIP3   OH267579   1.535   0.825   5.995 -0.5893 -0.3542 -0.3952
15363TIP3    H167580   1.621   0.847   6.031 -0.4957  0.5982 -1.1680
15363TIP3    H267581   1.477   0.893   6.029 -0.9722 -0.7833 -0.1801
15364TIP3   OH267582   3.292   2.569   1.122  0.4450 -0.0622  0.2310
15364TIP3    H167583   3.239   2.539   1.196 -0.0320  0.4880  0.1168
15364TIP3    H267584   3.247   2.536   1.045  2.3492 -2.9322  0.2158
15365TIP3   OH267585   3.707   5.457  12.597  0.4745 -0.4459 -0.5175
15365TIP3    H167586   3.659   5.522  12.546 -0.7211  1.0744  2.3294
15365TIP3    H267587   3.794   5.495  12.609  0.1813  0.0438  0.0749
15366TIP3   OH267588   2.622   6.059  16.963 -0.7762  0.5709 -0.5275
15366TIP3    H167589   2.638   5.983  16.906 -1.2448  0.5966 -0.6968
15366TIP3    H267590   2.694   6.057  17.026 -1.1493 -0.4170 -0.1021
15367TIP3   OH267591   4.472   1.256  16.848  0.0917  0.0290  0.7819
15367TIP3    H167592   4.431   1.172  16.871  0.1607 -0.5355 -1.0289
15367TIP3    H267593   4.423   1.287  16.772  0.5761  1.2599  0.9478
15368TIP3   OH267594   0.733   5.105   2.995  0.0581 -0.6109  0.0064
15368TIP3    H167595   0.790   5.163   3.045  0.6046 -0.5614 -0.6568
15368TIP3    H267596   0.695   5.046   3.060  0.5144 -0.3466  0.5149
15369TIP3   OH267597   4.843   4.266  12.013  0.3929 -0.1069  0.2478
15369TIP3    H167598   4.898   4.190  11.991  0.6111  0.1086  0.0328
15369TIP3    H267599   4.766   4.229  12.055  0.6792 -0.4217  0.5039
15370TIP3   OH267600   4.166   4.283   4.259  0.6501  0.2103  0.0742
15370TIP3    H167601   4.224   4.209   4.238  1.5920  1.1108 -0.5927
15370TIP3    H267602   4.176   4.295   4.353  1.4330  0.2431 -0.0048
15371TIP3   OH267603   6.262   4.092   2.130  0.7054  0.2795 -0.2136
15371TIP3    H167604   6.266   4.148   2.207  1.2896 -1.5358  1.1569
15371TIP3    H267605   6.352   4.062   2.117  0.2510 -1.1507 -0.2336
15372TIP3   OH267606   4.602   4.687   0.910 -0.0611  0.5537 -0.2191
15372TIP3    H167607   4.564   4.622   0.969 -1.8619  0.3724 -1.4865
15372TIP3    H267608   4.668   4.733   0.963  0.1228 -1.2120  1.1636
15373TIP3   OH267609   1.200   4.796   1.323  0.1454  0.0070 -0.3279
15373TIP3    H167610   1.175   4.888   1.334  1.0371 -0.0441  3.3151
15373TIP3    H267611   1.285   4.800   1.278 -0.2952  0.8923 -1.1063
15374TIP3   OH267612   6.456   2.417  15.241  0.4595  0.2214  0.7908
15374TIP3    H167613   6.546   2.390  15.258  0.9470  1.1073 -0.3019
15374TIP3    H267614   6.405   2.335  15.246  1.9053 -1.0663 -2.6373
15375TIP3   OH267615   1.105   5.278   6.607  0.3592 -0.2147  0.4080
15375TIP3    H167616   1.123   5.279   6.513 -2.8475  3.6250 -0.4430
15375TIP3    H267617   1.186   5.313   6.646  1.2988 -0.6721 -1.0327
15376TIP3   OH267618   6.797   5.273  10.909  0.0763  0.6958 -0.1816
15376TIP3    H167619   6.831   5.344  10.964  1.5391 -0.7718  0.9229
15376TIP3    H267620   6.847   5.196  10.937 -1.0897 -0.6665 -1.6972
15377TIP3   OH267621   3.810   3.498   0.439 -0.6124  0.3314 -0.2018
15377TIP3    H167622   3.845   3.586   0.425  0.2658  0.1342  0.6437
15377TIP3    H267623   3.764   3.503   0.522  0.0239 -0.1588  0.1945
15378TIP3   OH267624   0.390   3.528  14.987  0.3426  0.2832  0.7335
15378TIP3    H167625   0.373   3.607  15.037  1.8795  0.9394  0.2587
15378TIP3    H267626   0.324   3.529  14.918 -1.0913 -0.0624  2.0452
15379TIP3   OH267627   3.252   1.600  13.822  0.5337  0.0316 -0.4138
15379TIP3    H167628   3.209   1.556  13.895  0.4902  0.7712  0.0241
15379TIP3    H267629   3.190   1.594  13.749  1.6947 -3.1273 -1.2782
15380TIP3   OH267630   0.925   3.423  11.669  0.0143 -0.0834  0.2402
15380TIP3    H167631   0.887   3.429  11.757 -0.8584 -0.2778 -0.1117
15380TIP3    H267632   0.962   3.334  11.665  1.2987  0.3945  0.8808
15381TIP3   OH267633   1.486   2.432   0.318 -0.7114 -0.2720 -0.1829
15381TIP3    H167634   1.513   2.494   0.250  1.3831 -0.0480  0.7546
15381TIP3    H267635   1.428   2.371   0.273 -0.7332  0.8398 -1.7561
15382TIP3   OH267636   3.821   0.053  14.497  0.0665 -0.8969  0.7082
15382TIP3    H167637   3.833   0.114  14.424  2.0746 -1.8173  0.1935
15382TIP3    H267638   3.770  -0.019  14.460  0.2704 -0.9182  0.4653
15383TIP3   OH267639   2.825   0.666  16.654  0.1588  0.1849  0.1946
15383TIP3    H167640   2.880   0.667  16.732 -0.5946 -1.7483  0.8054
15383TIP3    H267641   2.886   0.655  16.581  0.7677  0.6501  0.6269
15384TIP3   OH267642   4.519   3.315  15.087  0.2121 -0.3661 -0.0784
15384TIP3    H167643   4.523   3.291  15.179 -1.1396 -1.6227 -0.3036
15384TIP3    H267644   4.606   3.296  15.053 -0.1128 -2.8968  0.3028
15385TIP3   OH267645   4.732   4.899   0.196 -0.1938  0.1334 -0.0075
15385TIP3    H167646   4.758   4.937   0.280  1.2103 -0.2418 -0.2335
15385TIP3    H267647   4.743   4.805   0.207 -2.9882 -0.2334  0.3306
15386TIP3   OH267648   4.379   1.949   1.146 -0.0462 -0.0176 -0.2258
15386TIP3    H167649   4.364   2.001   1.225 -0.7225 -1.3047  0.5218
15386TIP3    H267650   4.471   1.966   1.124  0.2991 -0.0158  1.1341
15387TIP3   OH267651   6.743   0.670   0.329 -0.0446  0.2016 -0.5525
15387TIP3    H167652   6.795   0.591   0.345 -0.1181 -0.5492 -3.5373
15387TIP3    H267653   6.772   0.701   0.243 -1.9651  1.8675 -0.6788
15388TIP3   OH267654   3.697   0.169   4.781 -0.0402 -0.2229 -0.1603
15388TIP3    H167655   3.661   0.130   4.701 -0.1038 -1.0589  0.2751
15388TIP3    H267656   3.671   0.110   4.851  1.9846 -0.7523  0.2034
15389TIP3   OH267657   5.684   2.632  13.234  0.2610 -0.2621  0.7505
15389TIP3    H167658   5.621   2.569  13.201  0.2483 -0.7317  1.6291
15389TIP3    H267659   5.631   2.696  13.283  0.0709  1.4177 -1.4928
15390TIP3   OH267660   4.874   1.954   0.727 -0.0096 -0.1513  0.3404
15390TIP3    H167661   4.923   2.035   0.740 -0.8029  0.3870  0.0938
15390TIP3    H267662   4.895   1.928   0.638 -0.9023  0.6056 -0.1083
15391TIP3   OH267663   0.174   1.347   3.282 -0.1310 -0.5905  0.3187
15391TIP3    H167664   0.192   1.412   3.214  0.7084 -0.0502  1.0441
15391TIP3    H267665   0.099   1.381   3.329 -1.1246 -1.2829 -0.7217
15392TIP3   OH267666   3.129   3.832   5.690  0.1163 -0.3644  0.1242
15392TIP3    H167667   3.136   3.741   5.720  0.5763 -0.2508  0.3643
15392TIP3    H267668   3.037   3.842   5.666  0.0020 -0.8098  0.3636
15393TIP3   OH267669   2.240   2.869   6.681 -0.0062 -0.0966 -0.0382
15393TIP3    H167670   2.211   2.781   6.702  1.3904 -0.7181 -0.5665
15393TIP3    H267671   2.288   2.898   6.759 -3.2238  1.5794  1.5192
15394TIP3   OH267672   4.673   2.239   6.000 -0.4080 -0.4531 -0.2924
15394TIP3    H167673   4.671   2.202   6.088 -0.8591 -1.0289 -0.5399
15394TIP3    H267674   4.666   2.164   5.942 -0.4712 -0.0478 -0.8216
15395TIP3   OH267675   0.949   3.937   1.869 -0.1289 -0.1884  0.3499
15395TIP3    H167676   0.995   3.890   1.939  1.1108 -0.6320 -0.7276
15395TIP3    H267677   0.882   3.875   1.840  0.3767 -0.6206  0.0939
15396TIP3   OH267678   4.749   4.439  15.696 -0.2440 -0.0367  0.0758
15396TIP3    H167679   4.746   4.531  15.724  0.5398  0.1537 -0.4420
15396TIP3    H267680   4.660   4.407  15.711 -0.9296  1.2135 -1.1195
15397TIP3   OH267681   1.585   2.032   0.896 -0.2178 -0.1978  0.8181
15397TIP3    H167682   1.489   2.040   0.891 -0.1450  0.4895  0.4562
15397TIP3    H267683   1.599   1.951   0.945 -0.9984 -1.7205 -1.3035
15398TIP3   OH267684   3.957   6.531   6.165  0.1444 -0.4747  0.0627
15398TIP3    H167685   3.924   6.609   6.211 -1.2357  0.4212 -2.2799
15398TIP3    H267686   3.938   6.459   6.225 -0.2502  0.7515  1.5053
15399TIP3   OH267687   2.747   3.319  11.772  0.4805 -0.2192 -0.6143
15399TIP3    H167688   2.739   3.357  11.859 -0.1071  1.0576 -1.2010
15399TIP3    H267689   2.748   3.224  11.787  2.2832 -0.0076  0.9040
15400TIP3   OH267690   5.349   3.686  16.044 -0.8406 -0.0420  0.6600
15400TIP3    H167691   5.332   3.667  15.952 -0.7308 -1.5276  0.9176
15400TIP3    H267692   5.342   3.601  16.088 -0.9428  0.6419  2.0337
15401TIP3   OH267693   5.528   5.357   6.101 -0.5293  0.0714  0.1169
15401TIP3    H167694   5.456   5.420   6.104 -1.6187 -1.1771  1.5281
15401TIP3    H267695   5.604   5.406   6.134 -1.0707  0.9894  0.0313
15402TIP3   OH267696   4.081   1.305   4.681  0.4414  0.0575 -0.4542
15402TIP3    H167697   4.120   1.313   4.768  1.0959  1.5825 -0.8596
15402TIP3    H267698   4.027   1.384   4.671 -1.0399 -0.9563 -0.7666
15403TIP3   OH267699   4.161   5.585  13.634 -0.2903  0.0056 -0.5769
15403TIP3    H167700   4.136   5.520  13.700 -0.7701 -1.1923 -1.8767
15403TIP3    H267701   4.219   5.537  13.575 -1.7689  0.2891 -2.3601
15404TIP3   OH267702   5.243   2.191   2.078 -0.1978 -0.5093  0.0801
15404TIP3    H167703   5.324   2.169   2.124 -0.7616  0.7469  1.7789
15404TIP3    H267704   5.174   2.173   2.141 -1.0963  0.2468 -0.6585
15405TIP3   OH267705   4.239   5.047   0.665 -0.0505 -0.3455  0.0922
15405TIP3    H167706   4.303   4.979   0.686  1.2831  0.9220  0.2809
15405TIP3    H267707   4.258   5.069   0.574  0.7792  1.0468  0.5809
15406TIP3   OH267708   3.257   2.540  15.515  0.4837  0.1686 -0.1395
15406TIP3    H167709   3.350   2.521  15.528  0.4426  0.6669  0.9411
15406TIP3    H267710   3.238   2.612  15.576 -0.5663  0.2125 -0.4933
15407TIP3   OH267711   4.966   1.665  16.064 -0.3463  0.6938  0.3106
15407TIP3    H167712   4.883   1.712  16.070 -0.2750  0.6648  3.6490
15407TIP3    H267713   4.946   1.586  16.015 -2.2995  0.7565  0.9214
15408TIP3   OH267714   5.128   1.498   3.358  0.0105  0.4292  0.6047
15408TIP3    H167715   5.184   1.497   3.281 -0.3213  0.5963  0.3617
15408TIP3    H267716   5.052   1.446   3.333 -0.3843  0.9991  0.6058
15409TIP3   OH267717   6.432   2.444  11.178 -0.3162 -0.0535 -0.2500
15409TIP3    H167718   6.430   2.479  11.088 -0.1135  0.6105 -0.0047
15409TIP3    H267719   6.340   2.427  11.199 -0.4735  0.7497 -0.2268
15410TIP3   OH267720   3.424   2.239   0.111  0.4151  0.0484  0.4318
15410TIP3    H167721   3.373   2.178   0.058  2.0698 -0.6717 -0.3999
15410TIP3    H267722   3.406   2.325   0.072  0.4353 -0.2846 -0.3292
15411TIP3   OH267723   1.977   3.839   5.061  0.7498  0.1897  0.3147
15411TIP3    H167724   1.990   3.910   5.123 -0.9996 -0.1659  1.1369
15411TIP3    H267725   1.910   3.783   5.101 -0.0719 -0.3210 -1.6476
15412TIP3   OH267726   3.039   0.872  12.189  0.9419 -0.4183  0.2562
15412TIP3    H167727   2.988   0.953  12.182  0.1099 -0.8082  1.3965
15412TIP3    H267728   3.044   0.839  12.099 -0.4208 -0.1128  0.0444
15413TIP3   OH267729   2.747   4.101  12.963 -0.0847 -0.1536  0.5180
15413TIP3    H167730   2.707   4.186  12.979 -0.9742 -0.8550  2.3604
15413TIP3    H267731   2.716   4.046  13.035 -0.3238 -2.3293 -1.1216
15414TIP3   OH267732   4.883   2.024   2.315 -0.2143  0.2688 -0.2792
15414TIP3    H167733   4.811   2.071   2.356  0.4213 -0.5255  1.9121
15414TIP3    H267734   4.952   2.089   2.304 -1.3341  1.1355 -2.7937
15415TIP3   OH267735   2.335   3.969   0.277  0.6622 -0.2184  0.2791
15415TIP3    H167736   2.339   4.011   0.363  1.2562  1.5898 -0.5670
15415TIP3    H267737   2.242   3.967   0.255  0.5568 -0.1255  0.7200
15416TIP3   OH267738   2.050   1.497   2.042 -0.0370 -0.2975 -0.3072
15416TIP3    H167739   1.966   1.535   2.069 -0.6899 -0.3817 -2.0861
15416TIP3    H267740   2.026   1.418   1.995  1.0912 -0.5940 -0.4147
15417TIP3   OH267741   2.193   4.116   5.012 -0.2858  0.5367  0.2411
15417TIP3    H167742   2.163   4.058   4.943 -0.2899  0.9199 -0.0819
15417TIP3    H267743   2.206   4.059   5.088 -1.7027  0.3319  0.3611
15418TIP3   OH267744   2.167   4.550   4.286  0.0102 -0.3314 -0.3003
15418TIP3    H167745   2.090   4.557   4.343 -1.4975  2.8954 -2.4613
15418TIP3    H267746   2.135   4.505   4.208  1.2124 -1.7433 -0.0297
15419TIP3   OH267747   0.350   0.603  17.074  0.3679  0.4533  0.3210
15419TIP3    H167748   0.341   0.698  17.064 -2.0863  0.4084  1.2642
15419TIP3    H267749   0.365   0.590  17.167 -0.2813 -0.1028  0.3573
15420TIP3   OH267750   2.047   1.232  15.691  0.4348 -0.7389 -0.6076
15420TIP3    H167751   1.964   1.253  15.647  0.4985  3.0902  0.6991
15420TIP3    H267752   2.029   1.152  15.740 -1.9407 -0.9231 -1.6443
15421TIP3   OH267753   5.469   2.759   6.634 -0.0118  0.1407 -0.4968
15421TIP3    H167754   5.511   2.812   6.701 -1.0258  0.1509  0.1487
15421TIP3    H267755   5.526   2.766   6.558  0.8299  0.6304  0.1728
15422TIP3   OH267756   4.792   3.228  11.064 -0.0886  0.1500 -0.2683
15422TIP3    H167757   4.841   3.280  11.000 -1.7568  1.5971 -0.4469
15422TIP3    H267758   4.736   3.171  11.010 -1.1000  0.9841 -0.1277
15423TIP3   OH267759   4.630   6.397  16.327  0.1983  0.6333 -0.0242
15423TIP3    H167760   4.725   6.411  16.317  0.3957  0.9806  1.9434
15423TIP3    H267761   4.613   6.418  16.418 -1.4376 -1.5077  0.2203
15424TIP3   OH267762   5.450   2.880   0.958 -0.3472  0.1054 -0.2544
15424TIP3    H167763   5.523   2.936   0.933 -0.8088  0.6264 -0.4681
15424TIP3    H267764   5.470   2.852   1.047  0.0029  0.4238 -0.2319
15425TIP3   OH267765   2.331   0.375  10.804  0.3534  0.1183  0.2891
15425TIP3    H167766   2.343   0.364  10.710 -1.1046  0.8396 -0.0119
15425TIP3    H267767   2.396   0.440  10.829  0.9251 -0.2712 -0.1703
15426TIP3   OH267768   2.099   0.500   5.485 -0.0476  0.7704  0.4230
15426TIP3    H167769   2.137   0.582   5.453 -0.4091  0.3562 -1.1995
15426TIP3    H267770   2.011   0.499   5.448 -0.2379 -0.1008  0.8772
15427TIP3   OH267771   6.602   4.822   2.298  0.2613 -0.1186  0.9811
15427TIP3    H167772   6.634   4.884   2.363 -0.0071 -1.1139  2.0877
15427TIP3    H267773   6.680   4.773   2.270  0.5087  0.8231 -0.0449
15428TIP3   OH267774   3.200   0.651  16.334  0.3279 -0.1963 -0.3120
15428TIP3    H167775   3.261   0.587  16.370  0.7536  1.6357  2.5300
15428TIP3    H267776   3.255   0.709  16.281  0.3740 -0.7339 -0.8573
15429TIP3   OH267777   5.755   6.434   5.816 -0.0038 -0.1152  0.5223
15429TIP3    H167778   5.762   6.396   5.728 -1.8185 -0.7734  0.6328
15429TIP3    H267779   5.826   6.499   5.819 -0.1347  0.2029 -1.5619
15430TIP3   OH267780   6.502   4.380  16.935 -0.3441  0.0055 -0.1983
15430TIP3    H167781   6.593   4.376  16.963 -0.3409 -0.6453 -0.2990
15430TIP3    H267782   6.457   4.425  17.006 -0.1750 -0.8147  0.4404
15431TIP3   OH267783   2.469   6.483   3.383 -0.4161  0.0487 -0.0126
15431TIP3    H167784   2.507   6.566   3.354  1.7076 -0.8783 -0.0650
15431TIP3    H267785   2.545   6.427   3.400 -1.7596 -1.4652  1.2857
15432TIP3   OH267786   3.865   3.002   1.754  0.2093  0.0439  0.3760
15432TIP3    H167787   3.771   3.010   1.772 -0.1419 -1.8309 -0.3982
15432TIP3    H267788   3.898   2.944   1.823  0.8855  0.9931  0.8633
15433TIP3   OH267789   3.933   1.145   3.461 -0.4579 -0.2895  0.3077
15433TIP3    H167790   3.999   1.190   3.409  0.8491 -1.1011  1.2088
15433TIP3    H267791   3.874   1.107   3.396  0.2659 -0.0049 -0.5412
15434TIP3   OH267792   0.873   3.328  15.409  0.2807 -0.6352  0.4289
15434TIP3    H167793   0.894   3.421  15.400 -2.9911 -0.0100 -3.1266
15434TIP3    H267794   0.948   3.283  15.370  1.2990  0.5357  0.9528
15435TIP3   OH267795   0.391   1.942   0.650  0.0369 -0.1586  0.4725
15435TIP3    H167796   0.379   2.034   0.671 -2.4931  0.2260 -2.1083
15435TIP3    H267797   0.386   1.898   0.735  0.1176  1.9469  1.6473
15436TIP3   OH267798   5.519   5.326  17.012  0.1482 -0.1051  0.4147
15436TIP3    H167799   5.459   5.304  16.941 -0.5234  1.9978  0.2336
15436TIP3    H267800   5.552   5.413  16.989  2.3757 -0.7105  1.1221
15437TIP3   OH267801   0.748   4.652   6.745 -0.1942 -0.9881  0.5383
15437TIP3    H167802   0.791   4.614   6.668  0.8130 -1.2046  1.2029
15437TIP3    H267803   0.819   4.675   6.804 -0.7916  1.6443  0.3232
15438TIP3   OH267804   5.280   5.622   2.682 -0.0771 -0.0834 -0.4915
15438TIP3    H167805   5.303   5.622   2.776 -0.8271  0.2402 -0.3015
15438TIP3    H267806   5.332   5.551   2.645  3.7878  2.5659 -0.7184
15439TIP3   OH267807   5.555   2.676   3.056 -0.2314  0.1528  0.1971
15439TIP3    H167808   5.542   2.715   3.142 -0.3556  0.5207  0.0175
15439TIP3    H267809   5.501   2.597   3.057 -1.8432  1.1909 -0.2177
15440TIP3   OH267810   6.539   4.710   5.934 -0.1657 -0.6938 -0.2039
15440TIP3    H167811   6.599   4.657   5.987  0.1008 -1.6912 -1.4349
15440TIP3    H267812   6.594   4.741   5.861 -0.8871 -0.7278 -0.7712
15441TIP3   OH267813   5.028   5.896  16.807 -0.1577  0.2973  0.5845
15441TIP3    H167814   5.064   5.863  16.890 -0.5086 -0.8897  0.2807
15441TIP3    H267815   5.093   5.960  16.777 -0.4920  1.4817  2.2407
15442TIP3   OH267816   2.343   6.587  12.432  0.1401 -0.0540 -0.1628
15442TIP3    H167817   2.388   6.509  12.397  2.8745  1.3647 -0.1213
15442TIP3    H267818   2.351   6.652  12.362 -0.0799  0.8661  0.6478
15443TIP3   OH267819   1.818   1.700   2.167  0.0765  0.4828  0.6046
15443TIP3    H167820   1.858   1.787   2.176  0.6302  0.2736  0.2319
15443TIP3    H267821   1.725   1.715   2.178  0.1681  1.1320  0.5190
15444TIP3   OH267822   5.650   3.639  12.921 -0.5924  0.5266  0.1689
15444TIP3    H167823   5.606   3.609  13.000  0.3687  0.9608  0.8772
15444TIP3    H267824   5.721   3.695  12.952 -0.6725  1.3332 -1.0243
15445TIP3   OH267825   1.313   6.409  15.907 -0.2725 -0.1891  0.0423
15445TIP3    H167826   1.369   6.479  15.874  1.1025 -1.7853 -1.1860
15445TIP3    H267827   1.366   6.366  15.975  0.2377 -1.9294 -1.3674
15446TIP3   OH267828   4.418   6.741  13.794  0.1055 -0.0286  0.2474
15446TIP3    H167829   4.344   6.765  13.737 -0.5710 -0.1424  1.0528
15446TIP3    H267830   4.482   6.810  13.779 -1.6505  2.2257  2.2210
15447TIP3   OH267831   5.166   0.544  15.381 -0.5122  0.0770  0.0445
15447TIP3    H167832   5.202   0.587  15.304 -1.4623  1.2319  0.2092
15447TIP3    H267833   5.219   0.465  15.392 -0.0007  0.1848 -1.4468
15448TIP3   OH267834   6.044   5.839  11.453 -0.3190  0.2256 -1.2422
15448TIP3    H167835   6.032   5.924  11.411 -0.5008  0.7256 -0.1909
15448TIP3    H267836   6.139   5.823  11.447 -0.2284  0.6830 -1.1064
15449TIP3   OH267837   5.758   3.663  11.658  0.0865 -0.5491  0.1304
15449TIP3    H167838   5.844   3.692  11.628  0.6591 -1.3362  0.9495
15449TIP3    H267839   5.728   3.732  11.716  0.7786 -0.8803  0.9022
15450TIP3   OH267840   3.719   0.456   4.890 -0.6212  0.6022  0.2034
15450TIP3    H167841   3.771   0.422   4.962  0.6445 -0.9762 -1.3506
15450TIP3    H267842   3.694   0.379   4.839 -1.3865  1.6482 -1.1039
15451TIP3   OH267843   1.997   1.188   4.438 -0.0918  0.3965  0.7435
15451TIP3    H167844   1.927   1.224   4.492 -1.5449 -2.8127  1.2387
15451TIP3    H267845   2.060   1.152   4.500  0.7134  0.9442  0.2732
15452TIP3   OH267846   2.097   2.914  15.635 -0.2499 -0.8045  0.0685
15452TIP3    H167847   2.047   2.995  15.648  0.2503 -0.3232 -0.8960
15452TIP3    H267848   2.154   2.909  15.712 -0.4869 -0.3893  0.2769
15453TIP3   OH267849   5.314   3.255   1.854  0.0454 -0.3839  0.2658
15453TIP3    H167850   5.264   3.277   1.775  0.6843  0.6752  0.1336
15453TIP3    H267851   5.356   3.337   1.879  0.7365 -0.9669  1.0763
15454TIP3   OH267852   3.738   6.700   0.121  0.5488 -0.4211 -0.5785
15454TIP3    H167853   3.742   6.667   0.031 -0.9583  0.0242 -0.8328
15454TIP3    H267854   3.670   6.648   0.163 -0.5309  1.0424 -0.4459
15455TIP3   OH267855   2.719   1.788   3.114 -0.5095  0.1360  0.3906
15455TIP3    H167856   2.784   1.752   3.174  0.1880  1.8651  0.7077
15455TIP3    H267857   2.642   1.803   3.169 -0.6119 -0.2857  0.3723
15456TIP3   OH267858   3.583   4.010  15.459  0.5298  0.4472 -0.4201
15456TIP3    H167859   3.652   4.055  15.410  2.0865 -0.3568  0.9575
15456TIP3    H267860   3.587   3.919  15.430  0.3094  0.3135 -0.0431
15457TIP3   OH267861   2.081   0.836  12.152 -0.2177 -0.3213  0.3355
15457TIP3    H167862   2.097   0.918  12.106 -1.4434 -1.0867 -1.5837
15457TIP3    H267863   2.032   0.861  12.230  0.0847  0.8346  0.1662
15458TIP3   OH267864   5.591   4.848   0.849 -0.2066 -0.6031 -0.0256
15458TIP3    H167865   5.496   4.847   0.842 -0.2517  0.6411  0.2558
15458TIP3    H267866   5.619   4.910   0.781  0.1857  1.3681  1.8378
15459TIP3   OH267867   0.842   1.208  11.069 -0.1268 -0.1977  0.1382
15459TIP3    H167868   0.884   1.144  11.126  0.5860  0.0606 -0.0910
15459TIP3    H267869   0.778   1.157  11.018  0.1037 -0.6422  0.2927
15460TIP3   OH267870   6.518   4.202  16.457 -0.2411  0.0870 -0.3940
15460TIP3    H167871   6.589   4.235  16.402 -0.1613  1.2385  0.3886
15460TIP3    H267872   6.439   4.213  16.404 -0.1848  1.3335 -0.2413
15461TIP3   OH267873   2.277   6.712  14.611  0.2064 -0.3141  0.0619
15461TIP3    H167874   2.250   6.684  14.523  3.5052 -1.9431 -0.5989
15461TIP3    H267875   2.279   6.807  14.607 -0.9570 -0.3116 -1.1727
15462TIP3   OH267876   1.422   5.839   1.135  0.1663  0.6493 -0.1262
15462TIP3    H167877   1.364   5.782   1.186 -0.3513 -0.8068 -2.2075
15462TIP3    H267878   1.435   5.915   1.191 -3.2376  0.7832  0.7262
15463TIP3   OH267879   6.507   4.639   2.869  0.2749 -0.9885 -0.4697
15463TIP3    H167880   6.586   4.690   2.888  0.8296 -1.0027 -2.5013
15463TIP3    H267881   6.450   4.699   2.821 -0.4137 -1.3734 -0.1597
15464TIP3   OH267882   5.337   4.093   2.023  0.1984 -0.0839 -0.0756
15464TIP3    H167883   5.286   4.037   1.965 -1.9332  1.0456  0.5669
15464TIP3    H267884   5.284   4.100   2.103 -0.0452  3.2909 -0.3526
15465TIP3   OH267885   1.661   3.544   4.352 -0.3243 -0.4945  0.1670
15465TIP3    H167886   1.681   3.604   4.280 -0.4869 -0.2406  0.3313
15465TIP3    H267887   1.698   3.586   4.429 -3.7672  1.4165  1.0007
15466TIP3   OH267888   0.693   3.238  12.385  0.0806 -0.0053  0.2789
15466TIP3    H167889   0.695   3.187  12.304 -1.7187 -0.3980  0.4426
15466TIP3    H267890   0.746   3.187  12.446  0.4846 -0.3115 -0.3089
15467TIP3   OH267891   2.191   0.014  11.536  0.1296  0.2017  0.1469
15467TIP3    H167892   2.109   0.017  11.488  0.2259 -0.1586 -0.0500
15467TIP3    H267893   2.223  -0.075  11.522 -0.9574 -0.6805  2.7780
15468TIP3   OH267894   0.762   2.788  13.479  1.1117 -0.0524  0.1732
15468TIP3    H167895   0.837   2.754  13.527  1.8734  1.0500 -0.1968
15468TIP3    H267896   0.789   2.784  13.387  0.6052  0.0895  0.0176
15469TIP3   OH267897   0.647   3.268   1.475 -0.0391  0.5201 -0.6770
15469TIP3    H167898   0.650   3.320   1.395  0.1702  0.1704 -0.8977
15469TIP3    H267899   0.738   3.247   1.493 -0.2496 -1.6393 -1.8256
15470TIP3   OH267900   3.472   0.743  12.575 -0.8368  0.3804 -0.4499
15470TIP3    H167901   3.514   0.675  12.628 -2.6089 -0.1893  0.2822
15470TIP3    H267902   3.506   0.728  12.487  0.7234  0.1600  0.1452
15471TIP3   OH267903   3.382   1.524  11.621  0.1484 -0.4120  0.0569
15471TIP3    H167904   3.410   1.587  11.688 -1.3085 -0.9522  1.2169
15471TIP3    H267905   3.287   1.526  11.624  0.0632 -1.5123 -1.0197
15472TIP3   OH267906   1.665   4.133  16.701  0.3123  0.6619  0.2926
15472TIP3    H167907   1.620   4.077  16.765 -0.1432  1.9690  1.1403
15472TIP3    H267908   1.742   4.082  16.676  1.6914  0.9228  3.5202
15473TIP3   OH267909   5.882   1.134   2.155  0.0859 -0.1141  0.5011
15473TIP3    H167910   5.944   1.085   2.209 -0.6355 -1.2189  0.3761
15473TIP3    H267911   5.838   1.193   2.216 -0.5704 -1.1976  1.1266
15474TIP3   OH267912   3.711   3.826   2.521  0.2840  0.7887 -0.4531
15474TIP3    H167913   3.762   3.877   2.458  0.0019 -0.0629 -1.3951
15474TIP3    H267914   3.752   3.739   2.520  0.6894  0.9322  1.0422
15475TIP3   OH267915   6.513   5.746  14.073 -0.3391  0.0702 -0.2524
15475TIP3    H167916   6.533   5.832  14.036 -1.7636  0.5907  0.1282
15475TIP3    H267917   6.424   5.728  14.044  0.3548 -1.8781 -1.3899
15476TIP3   OH267918   1.684   3.159  11.481 -0.0213 -0.0474 -0.5738
15476TIP3    H167919   1.589   3.146  11.485  0.1302 -0.9675  0.5794
15476TIP3    H267920   1.698   3.211  11.402 -1.5220  0.4656 -0.5313
15477TIP3   OH267921   5.109   0.337  16.691  0.1498  0.1446 -0.0388
15477TIP3    H167922   5.136   0.255  16.651  0.8719  0.4775 -0.2501
15477TIP3    H267923   5.092   0.315  16.782  0.0049 -0.3091 -0.1731
15478TIP3   OH267924   1.482   0.311  12.061  0.0804 -0.5949 -0.5627
15478TIP3    H167925   1.390   0.288  12.076  0.4007 -0.9598  1.0432
15478TIP3    H267926   1.520   0.313  12.149  1.6195 -0.4757 -1.2117
15479TIP3   OH267927   5.816   4.415  16.606 -0.7762 -0.4160  0.1882
15479TIP3    H167928   5.749   4.347  16.598 -1.4151  0.3239 -1.1087
15479TIP3    H267929   5.789   4.483  16.544  0.0286  0.8735  1.1901
15480TIP3   OH267930   4.508   1.493  11.356  0.5140 -0.3098  0.5138
15480TIP3    H167931   4.446   1.552  11.313  0.2265 -0.7325  0.3353
15480TIP3    H267932   4.529   1.536  11.439 -0.5849 -0.4957  0.9079
15481TIP3   OH267933   5.543   1.021   0.828  0.3123 -0.3527  0.1378
15481TIP3    H167934   5.619   1.025   0.769 -0.6482 -0.0058 -1.1165
15481TIP3    H267935   5.519   0.928   0.829  0.1539 -0.3196 -0.2699
15482TIP3   OH267936   2.179   6.578  13.669 -0.6983 -0.2674  0.1898
15482TIP3    H167937   2.151   6.667  13.647 -0.7606  0.1954  2.0421
15482TIP3    H267938   2.223   6.547  13.589  0.2755  1.7924 -0.1416
15483TIP3   OH267939   4.646   2.883   2.735  0.3218  0.0699 -0.0791
15483TIP3    H167940   4.696   2.933   2.671  1.3275  1.7927  1.9150
15483TIP3    H267941   4.559   2.923   2.735 -0.0094 -0.6186 -1.0561
15484TIP3   OH267942   4.490   0.163   3.714 -0.5062 -0.3692 -0.2009
15484TIP3    H167943   4.512   0.160   3.807 -0.1092  1.2812 -0.2040
15484TIP3    H267944   4.406   0.117   3.707 -0.0101 -1.4645  0.7757
15485TIP3   OH267945   2.361   5.480   5.237 -0.4507 -0.0270  0.3338
15485TIP3    H167946   2.306   5.418   5.190 -0.0613  0.4429 -0.7735
15485TIP3    H267947   2.311   5.503   5.315 -2.2110  1.0073 -1.0319
15486TIP3   OH267948   2.998   4.341  12.737 -0.3690  0.1141 -0.4130
15486TIP3    H167949   3.051   4.416  12.763 -0.5894  0.1689 -0.1116
15486TIP3    H267950   3.056   4.266  12.750 -0.5063  0.1288  0.3647
15487TIP3   OH267951   6.716   4.434   3.272  0.6935 -0.4072  0.3595
15487TIP3    H167952   6.653   4.430   3.200  0.2458  1.5667  0.5822
15487TIP3    H267953   6.705   4.351   3.318 -1.0493 -0.5299 -0.2007
15488TIP3   OH267954   1.284   5.504   3.902 -0.0658 -0.1981 -0.4390
15488TIP3    H167955   1.363   5.455   3.923 -0.7292 -1.3409 -0.5359
15488TIP3    H267956   1.227   5.441   3.857 -1.0361  0.5927 -0.3694
15489TIP3   OH267957   2.397   0.804   0.055  0.7484  0.0958 -0.4352
15489TIP3    H167958   2.435   0.862   0.122  0.4991 -0.0626 -0.1500
15489TIP3    H267959   2.400   0.717   0.095 -1.0198  0.2497  0.1028
15490TIP3   OH267960   4.229   5.695  11.846 -0.0825  0.0042 -0.6143
15490TIP3    H167961   4.261   5.785  11.856  2.6127 -0.6514 -2.2887
15490TIP3    H267962   4.181   5.695  11.764 -0.5424  0.0166 -0.3485
15491TIP3   OH267963   3.856   4.420  13.312 -0.0210 -0.0575 -0.3532
15491TIP3    H167964   3.791   4.353  13.292 -0.1131  0.2005 -0.9629
15491TIP3    H267965   3.830   4.494  13.257 -0.9729  1.1268  1.5657
15492TIP3   OH267966   2.319   4.817  12.962  0.5357  0.0221  0.2526
15492TIP3    H167967   2.348   4.734  13.001  0.8771 -0.1767 -0.4156
15492TIP3    H267968   2.238   4.838  13.009  0.7577 -0.3818  0.8359
15493TIP3   OH267969   4.861   5.584  14.913  0.2548 -0.0934 -0.4415
15493TIP3    H167970   4.941   5.638  14.917 -0.7551  1.4062  0.2201
15493TIP3    H267971   4.850   5.566  14.819  1.4714 -0.4937 -0.5288
15494TIP3   OH267972   6.155   1.182   4.113 -0.8599 -0.6773 -0.1969
15494TIP3    H167973   6.107   1.177   4.196 -1.4001 -0.3560 -0.4866
15494TIP3    H267974   6.136   1.099   4.070 -1.4559 -0.4137 -0.4640
15495TIP3   OH267975   4.933   3.703  11.636 -0.0048  0.0107 -0.1967
15495TIP3    H167976   4.954   3.626  11.583  0.3415  1.1167 -1.7393
15495TIP3    H267977   5.018   3.733  11.668 -0.3181 -1.4798  2.3161
15496TIP3   OH267978   2.421   5.402   4.929  0.1135 -0.2078 -0.0154
15496TIP3    H167979   2.391   5.311   4.922 -0.0765 -0.0842 -0.9781
15496TIP3    H267980   2.486   5.401   4.999 -1.4412 -0.6733  1.4804
15497TIP3   OH267981   3.468   0.299  15.044  0.0059 -0.3357 -0.4777
15497TIP3    H167982   3.482   0.330  14.955 -1.7746 -1.1713 -1.0834
15497TIP3    H267983   3.374   0.284  15.050  0.3551 -2.3536  0.8551
15498TIP3   OH267984   2.717   5.998   0.187 -0.2969 -1.1173 -0.0064
15498TIP3    H167985   2.636   6.007   0.137 -1.6115  1.8670  2.3553
15498TIP3    H267986   2.697   5.932   0.253 -0.4322 -1.1191 -0.0492
15499TIP3   OH267987   4.197   3.606   2.323  0.5832 -0.4148  0.4867
15499TIP3    H167988   4.114   3.614   2.369  0.7858 -2.2063  1.2607
15499TIP3    H267989   4.259   3.655   2.376  0.1270  0.5178  0.1697
15500TIP3   OH267990   1.663   0.699  10.719 -0.9735 -0.0367 -0.4332
15500TIP3    H167991   1.618   0.685  10.802 -0.7612  0.1527 -0.2879
15500TIP3    H267992   1.720   0.623  10.710  0.0495  0.6300  0.2742
15501TIP3   OH267993   2.461   1.195  13.287 -0.0767 -0.6094  0.2510
15501TIP3    H167994   2.554   1.190  13.265  0.0607  1.7412  0.1256
15501TIP3    H267995   2.452   1.274  13.340 -2.0583 -0.6839  0.1147
15502TIP3   OH267996   3.396   1.915  13.357  0.3150 -0.0429  0.1671
15502TIP3    H167997   3.343   1.917  13.437 -0.3618  3.2181 -0.2271
15502TIP3    H267998   3.335   1.887  13.289 -0.0316  0.3951  0.2861
15503TIP3   OH267999   4.017   3.284  12.499 -0.6490  0.0232  0.0259
15503TIP3    H168000   4.014   3.323  12.586 -1.7626 -2.2026  1.0814
15503TIP3    H268001   4.062   3.200  12.511 -0.9203 -0.3899 -1.5233
15504TIP3   OH268002   0.759   2.846  14.794 -0.3175 -0.0047  0.2417
15504TIP3    H168003   0.830   2.895  14.753 -0.6313  0.9154  0.7644
15504TIP3    H268004   0.799   2.807  14.871 -0.1006 -0.4510 -0.0952
15505TIP3   OH268005   1.546   5.627  13.558 -0.6168 -0.4057  0.0400
15505TIP3    H168006   1.602   5.597  13.630  0.2089  0.8582 -0.0349
15505TIP3    H268007   1.586   5.589  13.480 -0.4140 -0.2725  0.0786
15506TIP3   OH268008   3.013   1.111   0.718 -0.2197  0.1186  0.5030
15506TIP3    H168009   3.002   1.161   0.799 -1.8421  1.8468 -0.7030
15506TIP3    H268010   3.091   1.149   0.677 -1.3193  1.5838 -0.3025
15507TIP3   OH268011   3.166   2.627  14.399 -1.0714 -0.3192 -0.4009
15507TIP3    H168012   3.259   2.649  14.398 -1.4164  1.2342 -1.5207
15507TIP3    H268013   3.127   2.690  14.460 -1.5831 -0.1151 -0.9344
15508TIP3   OH268014   0.208   4.717   3.466  0.2382 -0.0299 -0.0926
15508TIP3    H168015   0.270   4.657   3.510  1.1348  1.7024  1.1192
15508TIP3    H268016   0.132   4.720   3.524  0.5124  0.5696  0.2449
15509TIP3   OH268017   2.080   2.432   0.638  0.2857  0.2450  0.2669
15509TIP3    H168018   2.079   2.468   0.549 -1.4225  0.9483  0.5344
15509TIP3    H268019   2.054   2.340   0.626 -1.2828  0.6816  0.1423
15510TIP3   OH268020   4.514   5.231   3.588 -0.2377 -0.1579  0.4593
15510TIP3    H168021   4.513   5.318   3.548 -0.5869 -0.6864 -0.7294
15510TIP3    H268022   4.431   5.226   3.637 -2.2073 -1.1961 -2.6667
15511TIP3   OH268023   3.258   1.496  16.464 -0.2338 -0.1886  0.3831
15511TIP3    H168024   3.246   1.402  16.479 -4.2136 -0.1677 -1.1920
15511TIP3    H268025   3.264   1.505  16.369  3.0464  1.0651  0.5842
15512TIP3   OH268026   1.491   6.322  16.119  0.2360 -0.4082  0.2205
15512TIP3    H168027   1.558   6.254  16.109  0.3004 -0.1112 -1.5902
15512TIP3    H268028   1.459   6.309  16.208  1.2266 -1.9083  0.4116
15513TIP3   OH268029   2.483   2.871  14.181  0.6057  0.1242  0.5242
15513TIP3    H168030   2.567   2.917  14.182  0.6160  0.1355 -0.0577
15513TIP3    H268031   2.419   2.938  14.204  0.5753  0.5558 -0.7172
15514TIP3   OH268032   5.745   0.845  15.849  0.0812  0.1906 -0.0475
15514TIP3    H168033   5.653   0.859  15.869 -0.4779  0.7574 -2.6692
15514TIP3    H268034   5.755   0.750  15.847 -0.8304  0.0937 -1.1456
15515TIP3   OH268035   0.017   1.410   0.175  0.3388 -0.7854  0.2752
15515TIP3    H168036  -0.059   1.441   0.126  0.1917 -1.0256  0.3456
15515TIP3    H268037  -0.017   1.390   0.262  0.4274 -1.1381  0.2316
15516TIP3   OH268038   3.136   0.639   0.089  0.0619  0.2658 -0.6894
15516TIP3    H168039   3.068   0.664   0.151  0.3879 -0.2880 -0.0971
15516TIP3    H268040   3.177   0.722   0.064 -1.4409  0.7195 -1.8074
15517TIP3   OH268041   5.768   5.966  16.136 -0.2022 -0.3988  0.5716
15517TIP3    H168042   5.827   6.023  16.185 -0.9470  0.9303 -0.0245
15517TIP3    H268043   5.699   5.944  16.198 -0.7613  0.6945  0.3688
15518TIP3   OH268044   6.211   1.945  11.479  0.2339  0.0471  0.0610
15518TIP3    H168045   6.132   1.996  11.459  0.5792  1.0623  1.1987
15518TIP3    H268046   6.215   1.880  11.409  0.8008  2.7450 -2.6548
15519TIP3   OH268047   3.012   1.402  13.004 -0.0088 -0.2551  0.1753
15519TIP3    H168048   3.095   1.383  12.959 -0.2506 -1.9862  0.3691
15519TIP3    H268049   3.031   1.388  13.096 -1.1825 -3.8092  0.0201
15520TIP3   OH268050   4.527   1.927   4.603 -0.1501 -0.1116  0.5479
15520TIP3    H168051   4.526   1.989   4.530  0.8780 -1.5894 -0.7993
15520TIP3    H268052   4.442   1.939   4.645  0.2859  2.7097  0.8617
15521TIP3   OH268053   3.878   5.402  15.453  0.6820  0.2258 -0.1655
15521TIP3    H168054   3.790   5.395  15.415 -0.0645  2.6660  0.9265
15521TIP3    H268055   3.933   5.348  15.396 -1.4777 -1.2726 -0.9437
15522TIP3   OH268056   3.481   0.339   5.481  0.2817  0.0803  0.4950
15522TIP3    H168057   3.408   0.278   5.490  2.1425 -2.2197  1.1536
15522TIP3    H268058   3.558   0.287   5.507  2.0644  2.5648  0.4735
15523TIP3   OH268059   4.856   5.939  13.502 -0.1693  0.2501 -0.3035
15523TIP3    H168060   4.892   5.899  13.581  2.2645  1.5141 -0.7039
15523TIP3    H268061   4.783   5.993  13.534 -0.9853 -1.3621  0.6842
15524TIP3   OH268062   5.704   4.396  11.751  0.3819 -0.4033  0.1067
15524TIP3    H168063   5.696   4.356  11.837  3.2447 -0.9226  0.2345
15524TIP3    H268064   5.629   4.455  11.744 -2.2884 -3.3973  1.1849
15525TIP3   OH268065   6.117   5.517  14.887 -0.0771  0.7411  0.8386
15525TIP3    H168066   6.161   5.539  14.969  2.1186 -1.0294  0.2368
15525TIP3    H268067   6.075   5.598  14.860 -0.1733  1.5887  3.2652
15526TIP3   OH268068   0.929   2.292   3.036 -0.0912 -0.4735  0.0500
15526TIP3    H168069   0.999   2.340   3.080 -1.5753  1.7070  0.1842
15526TIP3    H268070   0.945   2.308   2.943 -0.2349 -0.2183  0.0681
15527TIP3   OH268071   4.598   3.609  13.941 -0.0194 -0.1497  0.4563
15527TIP3    H168072   4.545   3.599  14.020  0.0600  0.2146  0.5598
15527TIP3    H268073   4.612   3.520  13.909 -1.0210 -0.2259  0.2062
15528TIP3   OH268074   5.742   1.487   2.445  0.1417  0.2147 -0.2455
15528TIP3    H168075   5.721   1.511   2.536 -0.2061 -1.4464  0.1555
15528TIP3    H268076   5.687   1.544   2.392 -0.6212  0.3390  0.6444
15529TIP3   OH268077   2.243   5.975   1.296  0.2810 -0.2521 -0.0122
15529TIP3    H168078   2.314   5.911   1.291  0.8635  0.2792  1.0914
15529TIP3    H268079   2.181   5.937   1.358  0.4581  0.0777  0.3736
15530TIP3   OH268080   5.719   6.201   0.312 -0.2049  0.2702  0.2966
15530TIP3    H168081   5.707   6.109   0.334  1.7120 -0.2726 -0.7928
15530TIP3    H268082   5.630   6.235   0.304 -0.9520 -1.5828  0.2692
15531TIP3   OH268083   6.344   2.345   4.691 -0.2449  0.5590 -0.1312
15531TIP3    H168084   6.359   2.304   4.606 -0.4841  1.2428 -0.5134
15531TIP3    H268085   6.260   2.391   4.681 -1.2040 -0.8346  1.0446
15532TIP3   OH268086   5.169   2.720   4.353 -1.0594  0.4964  0.9054
15532TIP3    H168087   5.146   2.755   4.267  0.6612  3.7099  1.6213
15532TIP3    H268088   5.253   2.677   4.340 -0.7102  1.1458  1.0212
15533TIP3   OH268089   5.351   5.563   4.839  0.0032 -0.5287 -0.6262
15533TIP3    H168090   5.291   5.525   4.774  2.0423 -0.4094 -2.7047
15533TIP3    H268091   5.335   5.657   4.835 -0.2572 -0.5655 -0.5115
15534TIP3   OH268092   3.392   5.132  14.854 -0.2379 -0.0292 -0.0207
15534TIP3    H168093   3.376   5.056  14.798 -0.2950 -0.3762  0.4633
15534TIP3    H268094   3.487   5.139  14.858 -0.1510 -1.4662  1.7615
15535TIP3   OH268095   3.087   0.831   5.855  0.1249 -0.0942 -0.1438
15535TIP3    H168096   3.054   0.906   5.805 -1.7673 -1.6022 -1.3251
15535TIP3    H268097   3.167   0.806   5.809  2.1392  2.5230  1.6646
15536TIP3   OH268098   2.566   2.267   6.292 -0.7087 -0.9350  0.2618
15536TIP3    H168099   2.578   2.173   6.306  2.5192 -0.4195  1.8050
15536TIP3    H268100   2.586   2.306   6.377  1.3000  1.2814 -1.1090
15537TIP3   OH268101   5.178   5.854  11.939 -0.0394  0.4996 -0.2321
15537TIP3    H168102   5.250   5.822  11.886 -0.1019  0.5347 -0.3370
15537TIP3    H268103   5.217   5.869  12.026  0.5765  2.5367 -0.8192
15538TIP3   OH268104   0.389   0.932  17.278  0.0450 -1.0337 -0.0538
15538TIP3    H168105   0.315   0.916  17.220  0.4369 -1.7832 -0.3644
15538TIP3    H268106   0.466   0.910  17.226  0.5847  0.9484 -0.1518
15539TIP3   OH268107   4.953   5.727  13.336 -0.3029 -0.3025 -0.2458
15539TIP3    H168108   4.885   5.776  13.381  0.9683  2.1435 -0.8050
15539TIP3    H268109   5.005   5.689  13.407 -1.3338 -0.9059  0.2054
15540TIP3   OH268110   4.460   4.702  13.980 -0.0573  0.4834  0.7109
15540TIP3    H168111   4.368   4.721  13.998 -0.2158 -0.3271  0.7996
15540TIP3    H268112   4.494   4.781  13.938  0.1030  2.1589  3.7065
15541TIP3   OH268113   2.458   0.495  15.695  0.2518 -0.4307  0.0733
15541TIP3    H168114   2.413   0.536  15.621  2.2440  0.8487 -0.4885
15541TIP3    H268115   2.528   0.557  15.718  0.8683 -1.7016  1.7910
15542TIP3   OH268116   4.101   3.197  15.327  0.3981  0.3972  0.2688
15542TIP3    H168117   4.143   3.256  15.390 -0.0529  0.6005  0.3797
15542TIP3    H268118   4.174   3.154  15.282  0.7454  1.6259 -0.3804
15543TIP3   OH268119   5.827   5.273  17.366 -0.2463  0.2145  0.1384
15543TIP3    H168120   5.783   5.256  17.282  0.9310 -0.5030 -0.3615
15543TIP3    H268121   5.920   5.267  17.346  0.0531 -0.6543  1.6357
15544TIP3   OH268122   0.005   4.892  12.711  0.2024  0.3023  0.3078
15544TIP3    H168123  -0.050   4.880  12.788 -0.3173  0.0028 -0.1073
15544TIP3    H268124  -0.028   4.971  12.670  1.1906  1.0922  0.9801
15545TIP3   OH268125   4.032   3.228   6.276 -0.1622  0.0407 -0.1809
15545TIP3    H168126   3.939   3.247   6.260 -0.1177  0.2205 -0.2220
15545TIP3    H268127   4.034   3.191   6.364 -0.5508 -1.9439 -0.9479
15546TIP3   OH268128   2.271   6.090  12.781 -0.1666  0.0505  0.3015
15546TIP3    H168129   2.352   6.114  12.737 -0.5719 -0.3396 -0.7066
15546TIP3    H268130   2.225   6.173  12.794  0.2669  0.2401  0.6139
15547TIP3   OH268131   1.411   4.204   1.213  0.2922  0.2709 -0.1156
15547TIP3    H168132   1.412   4.244   1.300  0.0452  0.7268 -0.3196
15547TIP3    H268133   1.320   4.176   1.200  0.6241 -1.0277  0.3268
15548TIP3   OH268134   3.654   4.635   3.152 -0.0701 -0.6346  0.0416
15548TIP3    H168135   3.718   4.621   3.222 -0.9159 -1.0297  0.7620
15548TIP3    H268136   3.569   4.634   3.196 -0.7760 -2.7797 -1.1896
15549TIP3   OH268137   0.283   4.425   5.515  0.1394  0.2769 -0.0407
15549TIP3    H168138   0.193   4.450   5.496 -0.4510 -2.1305 -0.7023
15549TIP3    H268139   0.290   4.334   5.487  2.1648 -0.2943  1.9965
15550TIP3   OH268140   0.921   4.769  16.056  0.0797  0.5195 -0.1663
15550TIP3    H168141   0.979   4.718  16.112 -2.0720 -1.3447  0.5213
15550TIP3    H268142   0.896   4.845  16.110 -2.6119 -1.6552  1.9115
15551TIP3   OH268143   2.583   6.672   0.749  0.7311 -0.2411 -0.5727
15551TIP3    H168144   2.528   6.623   0.687  0.4088  1.0969 -1.3959
15551TIP3    H268145   2.659   6.697   0.698  0.5498  0.7181 -0.3807
15552TIP3   OH268146   3.654   5.663  16.700 -0.6727  0.3167  0.2576
15552TIP3    H168147   3.574   5.629  16.660 -1.0209 -1.0442  1.9778
15552TIP3    H268148   3.722   5.602  16.673 -0.5007  0.6211  0.0036
15553TIP3   OH268149   6.408   3.987  11.612 -0.2473  0.4218 -0.4458
15553TIP3    H168150   6.385   3.930  11.538  0.8242 -1.5266  0.6230
15553TIP3    H268151   6.493   4.023  11.589  1.1746 -1.9548  0.6666
15554TIP3   OH268152   3.377   4.171   0.830  1.1158 -0.6304 -0.2571
15554TIP3    H168153   3.307   4.113   0.861 -0.8123  1.1504 -1.0064
15554TIP3    H268154   3.406   4.218   0.908  0.9193 -0.8027 -0.0784
15555TIP3   OH268155   3.972   4.788  12.640  0.1707 -0.4013  0.1990
15555TIP3    H168156   3.940   4.738  12.715 -2.2671 -1.0921 -1.1994
15555TIP3    H268157   3.959   4.880  12.664  1.1670 -0.5241  1.2997
15556TIP3   OH268158   0.985   3.885   6.492  0.0708 -0.4384  0.4893
15556TIP3    H168159   0.911   3.867   6.435 -0.8101 -0.1236  1.5087
15556TIP3    H268160   1.039   3.806   6.488  1.6493  0.5969 -3.0664
15557TIP3   OH268161   5.619   5.296  13.636 -0.8154 -0.3050 -0.2375
15557TIP3    H168162   5.537   5.329  13.672 -0.2044 -0.0772  1.0029
15557TIP3    H268163   5.616   5.202  13.652 -0.7891 -0.2814 -0.0908
15558TIP3   OH268164   2.129   0.277   4.018 -1.0368 -0.3255  0.3815
15558TIP3    H168165   2.182   0.227   4.081  1.6745  1.9153  0.0927
15558TIP3    H268166   2.115   0.216   3.946  1.6531 -0.9721  0.2652
15559TIP3   OH268167   4.148   5.878   5.303 -0.0029  0.2047 -0.1285
15559TIP3    H168168   4.164   5.871   5.397 -0.1835  2.0244  0.0736
15559TIP3    H268169   4.227   5.844   5.262 -0.3037 -1.5292  0.6305
15560TIP3   OH268170   5.989   2.011   2.815 -0.1599  0.0782 -0.1852
15560TIP3    H168171   5.985   1.990   2.909 -0.7003  1.4263  0.1122
15560TIP3    H268172   6.079   1.991   2.790 -0.0770 -0.5465  0.5467
15561TIP3   OH268173   6.310   5.331  16.102  0.5856  1.0818  0.0574
15561TIP3    H168174   6.227   5.356  16.143 -0.5684 -1.5067 -0.4914
15561TIP3    H268175   6.354   5.277  16.167  2.4122  3.2994  0.7495
15562TIP3   OH268176   4.089   6.466  11.149  0.5565 -0.3446  0.0877
15562TIP3    H168177   4.023   6.530  11.126  0.1823 -0.9413 -0.5602
15562TIP3    H268178   4.046   6.381  11.138  1.5163 -0.7607 -0.7120
15563TIP3   OH268179   0.451   5.987   0.020  0.5072  0.2394 -0.6058
15563TIP3    H168180   0.534   6.005   0.064  0.2042  1.0394 -0.3392
15563TIP3    H268181   0.456   6.038  -0.062 -0.1885  1.2702 -0.0386
15564TIP3   OH268182   2.407   0.043  13.136  0.6604  0.1491 -0.0498
15564TIP3    H168183   2.342   0.111  13.158  0.1044  0.2825 -1.9682
15564TIP3    H268184   2.390  -0.027  13.199 -1.5150  0.1025 -0.5981
15565TIP3   OH268185   5.497   0.692  13.307 -0.4259  0.2761  0.3856
15565TIP3    H168186   5.588   0.721  13.310 -0.2673 -0.1593 -0.0495
15565TIP3    H268187   5.460   0.736  13.231 -0.1810 -0.6467 -0.2825
15566TIP3   OH268188   0.588   2.862   0.155 -0.3698 -0.1442 -0.4780
15566TIP3    H168189   0.495   2.882   0.153  0.1124  2.3930 -0.8902
15566TIP3    H268190   0.592   2.766   0.156 -2.9497 -0.3209 -0.4761
15567TIP3   OH268191   5.827   1.681   4.838  0.3053 -1.1336 -0.9923
15567TIP3    H168192   5.869   1.602   4.872  2.0336 -0.3832 -1.2467
15567TIP3    H268193   5.746   1.650   4.798 -0.6982 -2.3197  1.7368
15568TIP3   OH268194   2.472   2.855  16.018  0.0048 -0.6041 -0.5391
15568TIP3    H168195   2.496   2.770  16.055 -0.0502 -1.0048 -1.4102
15568TIP3    H268196   2.551   2.884  15.973  0.1373 -0.0218  0.0544
15569TIP3   OH268197   5.974   4.911  14.901  0.0948  0.0622 -0.1730
15569TIP3    H168198   5.980   4.888  14.808 -0.0887  0.8998 -0.3938
15569TIP3    H268199   6.000   5.003  14.905 -2.0232  0.7014  0.2886
15570TIP3   OH268200   0.626   2.103  15.825  0.3397 -0.0786 -0.4705
15570TIP3    H168201   0.615   2.127  15.917  1.0404  0.6094 -0.5530
15570TIP3    H268202   0.660   2.013  15.827 -1.5073 -0.8053 -0.1324
15571TIP3   OH268203   1.203   5.754   1.275  0.2786  0.6756  0.2666
15571TIP3    H168204   1.129   5.810   1.295 -0.0455  0.1069  0.6772
15571TIP3    H268205   1.178   5.707   1.196 -0.4543 -0.6449  1.2432
15572TIP3   OH268206   6.040   1.874   5.406  0.1507 -0.0685 -0.9251
15572TIP3    H168207   6.048   1.893   5.499  0.2965 -0.3614 -0.8751
15572TIP3    H268208   6.023   1.780   5.402  1.1818 -0.2651 -1.2235
15573TIP3   OH268209   5.817   1.214   1.745  0.5180  0.1198 -0.2826
15573TIP3    H168210   5.766   1.197   1.666  1.0282 -1.1175 -0.3629
15573TIP3    H268211   5.756   1.257   1.804  0.4651  2.2890 -1.7935
15574TIP3   OH268212   0.729   3.577   5.575  0.4462  0.2942  0.1469
15574TIP3    H168213   0.723   3.516   5.502  1.3526 -0.9397  1.0699
15574TIP3    H268214   0.755   3.660   5.535  2.5693 -0.7610 -0.7666
15575TIP3   OH268215   0.285   0.784  11.769  0.1597 -0.1199  0.0494
15575TIP3    H168216   0.239   0.717  11.719 -0.0017  1.9000 -2.7813
15575TIP3    H268217   0.249   0.777  11.858 -0.0456 -3.4706 -0.1772
15576TIP3   OH268218   5.366   6.489  14.479  0.2490  0.2257  0.3952
15576TIP3    H168219   5.327   6.468  14.394 -0.7212 -0.4902  0.9952
15576TIP3    H268220   5.378   6.584  14.478 -2.9081  0.7223  0.7331
15577TIP3   OH268221   3.727   3.380  13.716  0.9673  0.3077 -0.0093
15577TIP3    H168222   3.726   3.434  13.795 -2.3704 -0.8405  0.9168
15577TIP3    H268223   3.686   3.436  13.649  2.4481  0.7480 -0.5960
15578TIP3   OH268224   3.309   2.110  15.280 -0.0200  0.2529  0.1918
15578TIP3    H168225   3.232   2.168  15.282 -0.2313 -0.0311  1.7980
15578TIP3    H268226   3.366   2.149  15.214 -1.5656  0.4239 -1.1307
15579TIP3   OH268227   3.963   5.704  12.112 -0.1168  0.5141  0.1835
15579TIP3    H168228   4.011   5.764  12.056  0.8903  0.9520  1.4678
15579TIP3    H268229   4.029   5.643  12.146 -0.7894 -0.0791  0.4735
15580TIP3   OH268230   5.586   5.866  15.825 -0.1031  0.0504 -0.2918
15580TIP3    H168231   5.612   5.780  15.859  0.1376 -0.0078 -0.6091
15580TIP3    H268232   5.502   5.851  15.782 -0.5880  0.2003  0.5879
15581TIP3   OH268233   0.622   1.537  16.877  0.3396  0.0486  0.0739
15581TIP3    H168234   0.669   1.619  16.861  1.2611 -0.7454 -1.5313
15581TIP3    H268235   0.690   1.472  16.892 -0.2441 -0.8986 -1.1270
15582TIP3   OH268236   3.605   1.581  13.003  0.5145 -0.9343 -0.0746
15582TIP3    H168237   3.687   1.625  12.982 -0.6518  1.4907  0.0554
15582TIP3    H268238   3.560   1.642  13.061 -0.4711 -3.1846  1.6884
15583TIP3   OH268239   0.202   0.735   1.303  0.4545  0.4297  0.2089
15583TIP3    H168240   0.277   0.711   1.357  0.6602  1.7848  0.5798
15583TIP3    H268241   0.188   0.660   1.246  1.8329 -0.0150  0.4174
15584TIP3   OH268242   5.884   6.173   1.282 -0.5394 -0.4944 -0.8506
15584TIP3    H168243   5.939   6.190   1.358 -2.1177 -1.1471  0.5141
15584TIP3    H268244   5.932   6.109   1.230  0.3856 -0.3395 -0.1980
15585TIP3   OH268245   1.726   5.060  17.051  0.1198 -0.2374 -0.5371
15585TIP3    H168246   1.755   4.981  17.097 -0.3668  0.2565  0.6608
15585TIP3    H268247   1.637   5.040  17.022 -0.3686  0.1623  0.5895
15586TIP3   OH268248   4.081   0.393   4.019  0.1805  0.3411 -0.6506
15586TIP3    H168249   4.104   0.353   4.103  0.6649  0.4474 -0.7346
15586TIP3    H268250   4.147   0.460   4.005 -1.1763  1.8776 -0.0234
15587TIP3   OH268251   6.051   4.926  11.881  0.1789 -0.3306 -0.4902
15587TIP3    H168252   6.080   4.837  11.862  0.8088 -1.0101  3.0010
15587TIP3    H268253   5.957   4.917  11.898  0.3569 -0.4976  0.4774
15588TIP3   OH268254   1.999   3.681  13.183 -0.1014 -0.1210  0.2944
15588TIP3    H168255   2.031   3.657  13.270  2.1636  0.9193 -0.1609
15588TIP3    H268256   1.994   3.598  13.136  0.5647 -0.4903  0.8507
15589TIP3   OH268257   2.207   5.692   2.779  0.6832 -0.2989 -0.2532
15589TIP3    H168258   2.295   5.728   2.771  0.2159  0.5837 -2.0031
15589TIP3    H268259   2.212   5.607   2.736  1.1522 -1.2659  1.5798
15590TIP3   OH268260   1.371   6.306  11.215  0.2018  0.4281  0.0414
15590TIP3    H168261   1.327   6.281  11.133  2.0760  0.6741 -1.0855
15590TIP3    H268262   1.355   6.400  11.223  3.2961  1.3186 -2.2736
15591TIP3   OH268263   3.799   4.665  13.147 -0.1475 -0.0490  0.1717
15591TIP3    H168264   3.706   4.672  13.129 -0.0947 -3.6386 -2.6371
15591TIP3    H268265   3.838   4.638  13.064  2.6373 -3.2858  2.2493
15592TIP3   OH268266   2.223   4.621  15.619 -0.4803  0.0129 -0.4734
15592TIP3    H168267   2.153   4.684  15.633 -1.1268 -0.3900 -1.7490
15592TIP3    H268268   2.284   4.664  15.559  1.0924  0.8669  1.6307
15593TIP3   OH268269   4.997   1.508  11.357 -0.1757 -0.2195  0.2640
15593TIP3    H168270   4.921   1.539  11.307 -0.4400  1.5287  1.6348
15593TIP3    H268271   5.050   1.461  11.293 -1.6779 -0.1801 -1.0768
15594TIP3   OH268272   1.447   5.210  12.534 -0.0459  0.5387 -0.1025
15594TIP3    H168273   1.387   5.155  12.586  0.0618  0.9397  0.4601
15594TIP3    H268274   1.442   5.296  12.576  0.5965  0.6836 -0.3155
15595TIP3   OH268275   0.761   1.377   0.304  0.8048 -0.1475 -0.5287
15595TIP3    H168276   0.788   1.376   0.212 -1.1213 -1.5976 -1.1597
15595TIP3    H268277   0.714   1.294   0.316  0.7081  0.1564  1.6888
15596TIP3   OH268278   2.258   0.192   5.887 -0.6374 -0.4052 -0.2235
15596TIP3    H168279   2.194   0.148   5.944 -1.3893 -1.6955 -1.9579
15596TIP3    H268280   2.205   0.233   5.819  0.2930 -0.1121 -0.7857
15597TIP3   OH268281   2.990   0.567  13.957 -0.3270 -0.0133  0.5935
15597TIP3    H168282   3.040   0.644  13.984 -2.9137  1.3066  2.0632
15597TIP3    H268283   2.931   0.600  13.889  0.6820 -1.5149 -1.0919
15598TIP3   OH268284   3.347   2.452   6.225  0.5179  0.0866 -0.5641
15598TIP3    H168285   3.261   2.448   6.268  0.8040 -0.7592 -0.0416
15598TIP3    H268286   3.401   2.506   6.283  0.2293  0.9975 -1.1195
15599TIP3   OH268287   1.496   2.227   6.209 -0.1731  0.9876 -0.3740
15599TIP3    H168288   1.535   2.262   6.289 -0.0151  0.1819 -0.0820
15599TIP3    H268289   1.450   2.301   6.169 -0.6378  1.2964  0.7055
15600TIP3   OH268290   6.390   1.875  17.157 -0.2211 -0.1639  0.2315
15600TIP3    H168291   6.433   1.868  17.243  0.0560  1.6556  0.2810
15600TIP3    H268292   6.463   1.879  17.095 -0.3082  1.6659  0.2066
15601TIP3   OH268293   3.631   1.297  13.348  0.3240 -0.0418 -0.1704
15601TIP3    H168294   3.718   1.271  13.317  0.8739 -0.5440  1.6546
15601TIP3    H268295   3.604   1.226  13.407 -1.8264 -0.4340 -1.5111
15602TIP3   OH268296   1.406   3.378  12.519  0.1444  0.5272  0.0451
15602TIP3    H168297   1.347   3.318  12.566  1.0900 -0.3965  0.0778
15602TIP3    H268298   1.400   3.351  12.427  1.3164 -0.2982  0.1860
15603TIP3   OH268299   4.656   2.763   4.223 -0.0431 -0.1896  0.1017
15603TIP3    H168300   4.707   2.761   4.143  1.4231 -1.3895  1.0122
15603TIP3    H268301   4.585   2.701   4.208 -0.7594  0.8347 -0.8522
15604TIP3   OH268302   5.063   2.069  12.994  0.5021  0.2328  0.4115
15604TIP3    H168303   5.000   2.064  13.066  0.0379  3.0483  0.2887
15604TIP3    H268304   5.010   2.061  12.915  0.3372  1.9212  0.3239
15605TIP3   OH268305   3.976   0.889   0.123  0.1352  0.4654  0.5859
15605TIP3    H168306   4.052   0.909   0.177  1.0029 -0.7478 -0.1457
15605TIP3    H268307   3.923   0.830   0.177 -0.3744  1.4027  1.1412
15606TIP3   OH268308   5.559   1.308   4.074  0.2133  0.6315 -0.0397
15606TIP3    H168309   5.627   1.313   4.141  0.9243  0.0133 -0.7061
15606TIP3    H268310   5.583   1.375   4.010 -0.6727  1.4868  0.4797
15607TIP3   OH268311   1.311   6.018  11.390 -0.2578  0.4867  0.2488
15607TIP3    H168312   1.367   6.014  11.313 -1.5885  0.8262 -0.7773
15607TIP3    H268313   1.251   6.091  11.373 -1.4608 -0.2876  0.9703
15608TIP3   OH268314   3.008   1.348  12.117  0.8286 -0.6668 -0.2623
15608TIP3    H168315   3.045   1.311  12.197 -0.1388 -1.2058 -0.0586
15608TIP3    H268316   2.914   1.334  12.125  0.5292  0.9763 -0.6320
15609TIP3   OH268317   1.584   3.165   2.946 -0.4235  0.8125 -0.3391
15609TIP3    H168318   1.531   3.174   3.025 -0.1539 -0.2458 -0.0245
15609TIP3    H268319   1.573   3.074   2.920  1.4572  0.4795 -0.1066
15610TIP3   OH268320   4.229   6.400   4.766 -0.4120  0.0869 -0.0483
15610TIP3    H168321   4.325   6.409   4.771 -0.4448  0.0901  0.6885
15610TIP3    H268322   4.204   6.457   4.693 -0.1516  2.7274  1.7497
15611TIP3   OH268323   5.269   4.548   4.724  0.3519 -0.2333 -0.0464
15611TIP3    H168324   5.325   4.554   4.801  1.7538  0.2311 -1.0486
15611TIP3    H268325   5.280   4.458   4.693 -0.8690 -0.6774  0.7334
15612TIP3   OH268326   3.295   4.279   1.715 -0.5552  0.2132 -0.2107
15612TIP3    H168327   3.319   4.298   1.624  0.1093 -1.2633 -0.3759
15612TIP3    H268328   3.365   4.318   1.767  1.3657 -2.4841 -0.5970
15613TIP3   OH268329   1.900   4.275   3.987  0.1001  0.4045  0.0596
15613TIP3    H168330   1.822   4.319   3.953 -1.2310 -2.1769 -0.4945
15613TIP3    H268331   1.889   4.277   4.082 -0.0191  1.0850  0.0389
15614TIP3   OH268332   6.541   2.863  14.213 -0.6222 -0.6435 -0.1879
15614TIP3    H168333   6.461   2.827  14.174 -0.8635 -0.2408 -0.0681
15614TIP3    H268334   6.612   2.817  14.168 -0.8816  0.1634 -1.4601
15615TIP3   OH268335   4.032   3.950   0.076  0.0903 -0.2814  0.1669
15615TIP3    H168336   4.052   3.929  -0.015 -1.3709 -1.0560 -0.0102
15615TIP3    H268337   4.059   3.872   0.125 -1.0086 -0.7249  0.1069
15616TIP3   OH268338   2.846   0.241  12.004 -0.1354  0.6827 -0.2673
15616TIP3    H168339   2.846   0.219  11.910  0.6410  1.3218 -0.4277
15616TIP3    H268340   2.871   0.159  12.047 -2.1036 -0.0692 -0.4765
15617TIP3   OH268341   4.693   5.277   2.942 -0.3394 -0.2937 -0.3291
15617TIP3    H168342   4.634   5.351   2.960  1.8188  1.7920 -1.2334
15617TIP3    H268343   4.725   5.250   3.028  0.0552  0.9404 -0.0589
15618TIP3   OH268344   6.510   3.575   6.234  0.0435  0.2828 -0.1445
15618TIP3    H168345   6.469   3.606   6.315 -0.0372  0.3992 -0.2308
15618TIP3    H268346   6.454   3.502   6.206 -0.3602  0.7229 -0.5000
15619TIP3   OH268347   0.337   3.850  15.705  0.1957  0.3013 -0.0630
15619TIP3    H168348   0.384   3.917  15.754 -0.7194 -0.2883  1.7353
15619TIP3    H268349   0.356   3.769  15.752  0.3275 -0.5226 -1.4867
15620TIP3   OH268350   6.449   3.481  12.549 -0.0424  0.8692 -0.8717
15620TIP3    H168351   6.458   3.404  12.493  0.8929 -0.6685  1.2546
15620TIP3    H268352   6.456   3.556  12.489  0.7685 -0.6696 -2.7916
15621TIP3   OH268353   0.467   2.931  14.865 -0.5131  0.1730  0.2410
15621TIP3    H168354   0.552   2.901  14.832  0.4997  2.9326  0.0749
15621TIP3    H268355   0.471   2.918  14.960 -0.3214 -0.6113  0.1297
15622TIP3   OH268356   2.418   4.591  13.091 -0.6341  0.0245 -0.0478
15622TIP3    H168357   2.512   4.578  13.103 -0.9255 -1.4939  0.8179
15622TIP3    H268358   2.387   4.620  13.177 -0.9359  0.7552 -0.3947
15623TIP3   OH268359   4.317   2.568   4.877 -0.6395 -0.8076  0.2038
15623TIP3    H168360   4.391   2.522   4.838 -0.0455  1.1323 -1.1095
15623TIP3    H268361   4.345   2.585   4.968 -0.1510 -1.4914  0.1851
15624TIP3   OH268362   2.143   0.067   0.620  0.0695 -0.2045 -0.1628
15624TIP3    H168363   2.118   0.119   0.543 -1.3712 -1.7458 -0.8043
15624TIP3    H268364   2.089  -0.011   0.614  0.0524 -0.4512  2.3582
15625TIP3   OH268365   4.824   4.123  14.831  0.1513 -0.0738  0.0270
15625TIP3    H168366   4.765   4.066  14.782  2.9908 -3.0087 -0.2992
15625TIP3    H268367   4.854   4.188  14.768  0.3380 -1.0555 -0.9160
15626TIP3   OH268368   1.032   4.503   6.193 -0.7932 -0.1102 -0.5554
15626TIP3    H168369   0.954   4.456   6.223 -1.1396  0.6905 -0.1708
15626TIP3    H268370   1.017   4.594   6.220 -0.3691  0.3325 -1.7171
15627TIP3   OH268371   1.075   4.912  12.837  0.0065 -0.3070  0.0906
15627TIP3    H168372   1.052   4.840  12.896  1.1884  1.8964  3.5344
15627TIP3    H268373   0.991   4.957  12.821 -0.8373 -2.5423 -2.5256
15628TIP3   OH268374   0.364   6.601   1.228 -0.1616  0.0066 -0.1131
15628TIP3    H168375   0.298   6.605   1.159 -0.4121 -0.6847  0.0723
15628TIP3    H268376   0.328   6.653   1.300 -1.4726 -1.9447  0.7561
15629TIP3   OH268377   4.818   2.624  14.859 -0.2307 -0.0443  0.0178
15629TIP3    H168378   4.776   2.563  14.920 -1.7801  0.1524 -0.7924
15629TIP3    H268379   4.904   2.640  14.897 -0.1334 -1.9759  0.7520
15630TIP3   OH268380   5.925   3.920  11.195 -0.2699  0.4182  0.3309
15630TIP3    H168381   5.964   3.948  11.113  0.0344  3.7331  1.4333
15630TIP3    H268382   5.831   3.916  11.177 -0.0229 -1.6355 -0.7940
15631TIP3   OH268383   1.768   4.362   3.738 -0.1633 -0.0866 -0.6990
15631TIP3    H168384   1.837   4.429   3.734  0.0264 -0.3110 -1.2251
15631TIP3    H268385   1.686   4.412   3.740 -0.0122  0.1653 -0.7867
15632TIP3   OH268386   6.493   5.618   4.141  0.1747  0.0880  0.1059
15632TIP3    H168387   6.419   5.590   4.194 -0.1453  1.7693  0.6318
15632TIP3    H268388   6.511   5.544   4.083 -0.6962 -1.0658  1.2500
15633TIP3   OH268389   1.643   5.255  14.410  1.2266 -0.1666 -0.5506
15633TIP3    H168390   1.634   5.193  14.482  0.4863 -0.7802 -1.1589
15633TIP3    H268391   1.554   5.271  14.380  1.2951  1.9635  0.2078
15634TIP3   OH268392   5.161   0.976   5.781  0.3109  0.1274  0.5427
15634TIP3    H168393   5.252   0.988   5.757  0.6438 -2.4931  0.1375
15634TIP3    H268394   5.119   1.060   5.764  2.5574  1.2850  0.4266
15635TIP3   OH268395   0.772   2.407  13.847 -0.2271  0.4259  0.2403
15635TIP3    H168396   0.814   2.493  13.849 -0.4728  0.5336  0.7439
15635TIP3    H268397   0.744   2.391  13.937  0.0158 -0.2797  0.1961
15636TIP3   OH268398   5.350   6.526  12.745 -0.3586  0.3073  0.0761
15636TIP3    H168399   5.410   6.526  12.819 -0.1025 -1.8271 -0.0732
15636TIP3    H268400   5.265   6.501  12.783 -0.7428  1.4237 -0.0157
15637TIP3   OH268401   6.454   3.917   3.420  0.1691 -0.2618  0.0275
15637TIP3    H168402   6.524   3.886   3.477 -0.2439 -0.5180  0.4050
15637TIP3    H268403   6.489   3.908   3.331  0.6120 -0.3864  0.2151
15638TIP3   OH268404   2.967   0.701  11.726 -0.8151 -0.2079 -0.5235
15638TIP3    H168405   2.951   0.638  11.656  0.4115 -0.1854 -0.8474
15638TIP3    H268406   3.009   0.650  11.796  1.6798  0.4884 -1.4206
15639TIP3   OH268407   2.532   0.043  14.179  0.1499  0.0376  0.0302
15639TIP3    H168408   2.586  -0.020  14.226 -1.1157  0.0384  1.5747
15639TIP3    H268409   2.521   0.116  14.240 -1.1816  0.2400 -0.4140
15640TIP3   OH268410   4.217   0.442   2.215  0.0455 -0.3268 -0.2001
15640TIP3    H168411   4.144   0.426   2.274  0.1031 -1.0694 -0.3195
15640TIP3    H268412   4.283   0.484   2.270 -0.1224 -0.4836  0.1265
15641TIP3   OH268413   4.326   3.980   1.492  0.5524 -0.4029 -0.0769
15641TIP3    H168414   4.323   3.905   1.552 -0.6573  0.9205  1.5920
15641TIP3    H268415   4.240   4.021   1.500  1.1794  1.1712 -0.9644
15642TIP3   OH268416   1.678   0.684  12.264  0.5989  0.1253  0.2621
15642TIP3    H168417   1.642   0.770  12.242  0.2578 -0.1553 -0.3158
15642TIP3    H268418   1.605   0.624  12.250  1.2320 -0.4329 -0.7546
15643TIP3   OH268419   0.125   1.653   2.778 -0.3979  0.3322  0.7758
15643TIP3    H168420   0.181   1.728   2.757  1.4309 -1.1810 -0.1076
15643TIP3    H268421   0.064   1.648   2.704  1.5867 -0.8927 -0.8908
15644TIP3   OH268422   1.896   6.398  13.281  0.1553  0.6205  0.0818
15644TIP3    H168423   1.802   6.397  13.302  0.0007  0.8388 -0.5811
15644TIP3    H268424   1.904   6.467  13.215  0.7348  0.3629 -0.1140
15645TIP3   OH268425   2.133   2.753   5.813 -0.1445 -0.0985 -0.6470
15645TIP3    H168426   2.105   2.787   5.728  0.5422  1.3731 -0.3138
15645TIP3    H268427   2.126   2.828   5.872  0.1306 -0.9007  0.4258
15646TIP3   OH268428   6.428   0.754   5.587  0.4037 -0.4442  0.0272
15646TIP3    H168429   6.478   0.715   5.660  0.8771  1.3193  0.6912
15646TIP3    H268430   6.490   0.755   5.514  0.0082 -1.9865 -0.3696
15647TIP3   OH268431   4.940   6.601  16.539 -0.2187 -0.4569 -0.1791
15647TIP3    H168432   4.997   6.525  16.526  1.4985  0.8888 -1.0025
15647TIP3    H268433   4.916   6.598  16.632  2.0660 -0.5477  0.4617
15648TIP3   OH268434   1.733   6.612   4.974  0.2454  0.2428 -0.0023
15648TIP3    H168435   1.759   6.611   5.066 -0.5585  0.8106  0.2503
15648TIP3    H268436   1.808   6.651   4.928  1.4996 -1.9136  0.0869
15649TIP3   OH268437   5.885   0.543   5.715  0.6277 -0.4504  0.0761
15649TIP3    H168438   5.866   0.594   5.636  0.4621 -1.2528 -0.4116
15649TIP3    H268439   5.805   0.549   5.767 -0.5565 -2.6260 -1.3209
15650TIP3   OH268440   0.019   0.719   0.075  0.1118  0.4416 -0.2809
15650TIP3    H168441   0.010   0.814   0.086  0.5139  0.2686  1.9791
15650TIP3    H268442   0.111   0.707   0.053  0.0475  0.5603 -0.6308
15651TIP3   OH268443   4.166   3.995  12.852  0.0947  0.2641  0.2000
15651TIP3    H168444   4.173   3.939  12.775 -0.9280  0.2657  0.0901
15651TIP3    H268445   4.087   4.047  12.836 -0.1967  0.1721  1.3124
15652TIP3   OH268446   5.070   1.099  14.446 -0.2889  0.5644  0.0152
15652TIP3    H168447   5.035   1.076  14.360  0.6046  0.5814 -0.3611
15652TIP3    H268448   5.139   1.162  14.428 -0.3897  0.9065  0.7870
15653TIP3   OH268449   1.834   1.139   2.481 -0.4157  0.3037  1.0421
15653TIP3    H168450   1.767   1.077   2.452 -0.7155  0.4390  1.4315
15653TIP3    H268451   1.814   1.153   2.574 -1.1604  1.9878  0.6699
15654TIP3   OH268452   5.459   2.525  14.208 -0.1588  0.7633 -0.3253
15654TIP3    H168453   5.478   2.451  14.150  0.6148  0.5709  0.1688
15654TIP3    H268454   5.524   2.591  14.185 -1.7097  1.8924 -1.7604
15655TIP3   OH268455   6.358   0.130  11.454 -0.1292  0.3649 -0.1601
15655TIP3    H168456   6.359   0.225  11.440 -0.2104  0.2514 -0.9374
15655TIP3    H268457   6.396   0.093  11.375  2.0665 -0.1560  1.0517
15656TIP3   OH268458   2.095   5.244   0.266  0.6380  0.4528 -0.7235
15656TIP3    H168459   2.085   5.330   0.306  2.4689  0.2202  0.3228
15656TIP3    H268460   2.048   5.185   0.326 -0.9811  0.7130 -1.6588
15657TIP3   OH268461   0.677   0.318   1.480 -0.5606  0.9587 -0.6119
15657TIP3    H168462   0.666   0.242   1.424 -2.3100  1.5253 -1.0945
15657TIP3    H268463   0.592   0.330   1.522  0.0133  1.9775  0.3226
15658TIP3   OH268464   3.735   6.356  15.697 -0.0047 -0.1326 -0.0454
15658TIP3    H168465   3.665   6.338  15.634 -0.1395 -2.4183  0.6679
15658TIP3    H268466   3.755   6.449  15.685 -1.5963  0.0352 -1.8346
15659TIP3   OH268467   2.859   0.318   4.888  0.8389  0.7400  0.1228
15659TIP3    H168468   2.818   0.379   4.949  0.9591  2.3657 -1.3477
15659TIP3    H268469   2.811   0.330   4.806  0.9803 -1.0397 -0.2610
15660TIP3   OH268470   5.700   4.559  13.007  0.7365  0.2255 -0.0880
15660TIP3    H168471   5.716   4.487  12.945 -0.4455 -0.5538  0.4761
15660TIP3    H268472   5.703   4.638  12.953  3.7276 -0.0282 -0.4589
15661TIP3   OH268473   2.066   5.715   6.535 -0.2388  0.5211  0.1768
15661TIP3    H168474   2.040   5.623   6.539  0.6345  0.3106  1.9392
15661TIP3    H268475   1.999   5.761   6.585 -0.4095  0.7727 -0.2846
15662TIP3   OH268476   3.599   0.351   2.272 -0.5194  0.5924 -0.2324
15662TIP3    H168477   3.639   0.324   2.355  0.6580  1.8274 -0.3573
15662TIP3    H268478   3.564   0.438   2.290 -1.4379  0.3212 -0.6786
15663TIP3   OH268479   2.528   2.844   5.232  0.1328 -0.2936 -0.3078
15663TIP3    H168480   2.498   2.875   5.147 -0.0280 -1.5562 -0.7216
15663TIP3    H268481   2.588   2.772   5.212  0.3223 -0.4101  0.6320
15664TIP3   OH268482   5.965   0.292   4.822 -0.3494  0.0002 -0.4218
15664TIP3    H168483   5.969   0.286   4.917 -1.0278 -0.4339 -0.4157
15664TIP3    H268484   5.968   0.202   4.791  1.3553  0.1870 -0.8921
15665TIP3   OH268485   3.659   1.429   4.964  0.0554 -0.0365  0.4887
15665TIP3    H168486   3.744   1.435   4.919 -1.7469 -0.0978 -3.2865
15665TIP3    H268487   3.662   1.345   5.011  1.1307 -1.4123 -1.8876
15666TIP3   OH268488   4.873   4.337   1.142  0.8938  0.0443  0.0057
15666TIP3    H168489   4.845   4.313   1.231  0.8957 -0.3647 -0.1043
15666TIP3    H268490   4.791   4.357   1.096  1.0025  2.9845  0.8544
15667TIP3   OH268491   5.284   4.939  15.702 -0.1608  0.0265 -0.6384
15667TIP3    H168492   5.190   4.952  15.719 -0.3251  1.9505 -2.6658
15667TIP3    H268493   5.324   5.024  15.718  1.2500 -0.7188  0.0068
15668TIP3   OH268494   5.345   0.034  16.335  0.3615  0.0254  0.2302
15668TIP3    H168495   5.370   0.041  16.243  2.6944  1.4946  0.8957
15668TIP3    H268496   5.423  -0.002  16.379 -0.9319 -1.3157  1.5696
15669TIP3   OH268497   4.725   5.320  12.582 -0.1255 -0.0059 -0.2754
15669TIP3    H168498   4.635   5.343  12.561 -0.3139  0.2972  0.8178
15669TIP3    H268499   4.728   5.225  12.572 -0.0054  0.1648 -2.3186
15670TIP3   OH268500   5.751   3.319  16.376 -0.3551 -0.8706  0.2936
15670TIP3    H168501   5.686   3.275  16.321 -0.9647 -1.3126  1.3550
15670TIP3    H268502   5.835   3.282  16.346 -0.8035 -2.3473  0.7578
15671TIP3   OH268503   1.869   4.668  17.226  0.4665 -0.4766 -0.5920
15671TIP3    H168504   1.876   4.674  17.131  0.4302 -0.4887 -0.5950
15671TIP3    H268505   1.867   4.574  17.243 -0.7573 -0.4816 -0.6680
15672TIP3   OH268506   5.169   5.310   2.039 -0.0556 -0.0039 -0.0365
15672TIP3    H168507   5.117   5.314   2.119 -2.9466  2.8245 -1.8014
15672TIP3    H268508   5.133   5.235   1.991 -3.1044  2.1913 -1.4403
15673TIP3   OH268509   5.684   4.667   2.415 -0.1531  0.0212  0.4413
15673TIP3    H168510   5.624   4.741   2.409  0.6556  0.6416 -0.1311
15673TIP3    H268511   5.719   4.657   2.327 -0.1501 -0.9695  0.5415
15674TIP3   OH268512   3.698   6.239   4.396 -0.4193 -1.0232 -0.1078
15674TIP3    H168513   3.729   6.201   4.314  1.5048  0.8024 -0.2992
15674TIP3    H268514   3.652   6.167   4.439 -0.9639 -2.1961 -2.4904
15675TIP3   OH268515   5.659   5.407  15.522 -0.4738 -0.4205 -0.3394
15675TIP3    H168516   5.715   5.363  15.586  0.3354 -0.4231 -1.0342
15675TIP3    H268517   5.621   5.337  15.470 -1.9316 -0.4821  0.7533
15676TIP3   OH268518   1.992   4.439  11.005 -0.1124  0.0007  0.0060
15676TIP3    H168519   1.940   4.380  10.950  0.7923 -1.5768  0.7969
15676TIP3    H268520   2.016   4.511  10.946  1.5084 -1.9955 -1.9590
15677TIP3   OH268521   4.771   6.543  14.819 -0.3662 -0.3868  0.2986
15677TIP3    H168522   4.678   6.528  14.801 -0.0469 -0.2100 -1.8028
15677TIP3    H268523   4.774   6.633  14.851 -0.8478 -0.0641 -0.5104
15678TIP3   OH268524   1.198   5.009  16.073 -0.7617 -0.4006 -0.2124
15678TIP3    H168525   1.223   5.067  16.145  1.2435  0.1958 -1.2974
15678TIP3    H268526   1.169   4.928  16.116 -0.0068  0.0877  1.2805
15679TIP3   OH268527   2.293   6.437   0.825  0.3833 -0.0046 -0.7348
15679TIP3    H168528   2.240   6.486   0.761 -0.2069  1.5833  0.8967
15679TIP3    H268529   2.253   6.457   0.909  2.3969 -0.3498  0.3595
15680TIP3   OH268530   2.239   5.947   6.553 -0.3448 -0.0695 -0.0204
15680TIP3    H168531   2.179   5.872   6.548  0.3565 -0.5514 -2.4563
15680TIP3    H268532   2.227   5.981   6.642 -2.0920 -1.8894  0.5219
15681TIP3   OH268533   5.098   1.491  13.320 -0.1719  0.1847 -0.5560
15681TIP3    H168534   5.084   1.586  13.319 -1.2885  0.0373 -1.5046
15681TIP3    H268535   5.179   1.478  13.272 -0.2465  0.6354 -0.8065
15682TIP3   OH268536   4.753   5.749  16.753  0.1200 -0.6114  0.5208
15682TIP3    H168537   4.739   5.832  16.798 -0.5593  0.1224 -0.9755
15682TIP3    H268538   4.789   5.774  16.668 -3.2496 -1.5169 -1.3530
15683TIP3   OH268539   2.305   5.402  17.035 -0.0369  0.0178 -0.2148
15683TIP3    H168540   2.305   5.429  16.943 -0.9607 -1.1228 -0.5737
15683TIP3    H268541   2.378   5.339  17.042 -0.5040 -0.5501 -0.3841
15684TIP3   OH268542   0.541   2.514   5.984  0.1077  0.4572  0.6585
15684TIP3    H168543   0.527   2.423   6.012 -0.0717  0.4881  0.6723
15684TIP3    H268544   0.621   2.541   6.030  0.2095  0.2790  0.5886
15685TIP3   OH268545   5.666   3.131  12.478  0.3857  0.4864 -0.6705
15685TIP3    H168546   5.607   3.068  12.438 -0.3730  1.7670 -1.6540
15685TIP3    H268547   5.610   3.203  12.506  1.2778  0.9489 -0.0196
15686TIP3   OH268548   2.532   0.694  14.456 -0.0917  0.0907 -0.4195
15686TIP3    H168549   2.485   0.747  14.521 -0.1132 -0.6609  0.1820
15686TIP3    H268550   2.471   0.688  14.383 -0.4935  0.0655 -0.0888
15687TIP3   OH268551   0.860   5.644  14.071 -0.3490  0.0531  0.4496
15687TIP3    H168552   0.862   5.581  13.999 -2.4085  0.3423  0.0717
15687TIP3    H268553   0.952   5.660  14.093  0.3367 -0.0572 -2.1065
15688TIP3   OH268554   2.883   6.788  14.743  0.1942 -0.3119  0.0055
15688TIP3    H168555   2.906   6.739  14.663 -0.4210  0.9510 -0.9886
15688TIP3    H268556   2.862   6.720  14.807  3.7340 -1.5057  0.1585
15689TIP3   OH268557   6.239   6.068  13.473  0.4508 -0.1922 -0.5226
15689TIP3    H168558   6.219   6.049  13.565  2.4065 -0.8161 -0.1762
15689TIP3    H268559   6.264   6.161  13.473 -0.0005 -0.0710 -0.5076
15690TIP3   OH268560   4.775   0.835  12.860  0.3221 -0.5788 -0.1018
15690TIP3    H168561   4.782   0.781  12.939 -0.0980 -0.7487 -0.1819
15690TIP3    H268562   4.822   0.785  12.793 -1.5949 -1.7335 -0.6436
15691TIP3   OH268563   6.447   1.172  15.235  0.4367 -0.0281 -0.0884
15691TIP3    H168564   6.368   1.225  15.245 -0.7130 -1.2598 -2.0512
15691TIP3    H268565   6.512   1.232  15.198 -0.1670  0.5446 -0.2401
15692TIP3   OH268566   5.432   6.237  12.910  0.0541 -0.3305 -0.6672
15692TIP3    H168567   5.383   6.159  12.885 -1.0128  0.7101 -1.9753
15692TIP3    H268568   5.494   6.250  12.838 -1.7333  1.6005 -1.9800
15693TIP3   OH268569   6.325   0.060  14.314  0.0352 -0.0807  0.3926
15693TIP3    H168570   6.329   0.147  14.353 -0.6066  0.1293  0.0073
15693TIP3    H268571   6.276   0.072  14.232  0.7038 -0.6471 -0.1060
15694TIP3   OH268572   2.083   2.959   0.738 -0.1218  0.5402 -0.2494
15694TIP3    H168573   2.173   2.948   0.770 -0.1192  0.3861 -0.3103
15694TIP3    H268574   2.089   3.031   0.675  0.5145 -1.2829 -2.4374
15695TIP3   OH268575   0.122   2.421  13.036 -0.4130  0.3696 -0.0429
15695TIP3    H168576   0.095   2.357  12.969 -0.2714  0.6246 -0.3460
15695TIP3    H268577   0.044   2.434  13.090 -0.3073 -0.4217  0.3148
15696TIP3   OH268578   6.033   1.304  11.386 -0.2409 -0.1598  0.2055
15696TIP3    H168579   6.033   1.389  11.342 -1.1621  0.6132  1.6429
15696TIP3    H268580   5.958   1.258  11.349 -0.4652  0.1211  0.3129
15697TIP3   OH268581   1.497   0.244   2.335  0.2075 -0.1589 -0.5547
15697TIP3    H168582   1.468   0.216   2.422 -1.0742 -0.1698 -0.9568
15697TIP3    H268583   1.592   0.248   2.341  0.1724 -0.7437  0.6697
15698TIP3   OH268584   2.523   3.316   5.943  0.5929 -0.7209 -0.4669
15698TIP3    H168585   2.606   3.277   5.916  1.6952  1.6059 -0.6488
15698TIP3    H268586   2.474   3.328   5.862  1.4019  0.7293 -0.7711
15699TIP3   OH268587   1.609   5.918   3.729  0.3927 -0.1311 -0.4546
15699TIP3    H168588   1.628   5.933   3.637  0.9770 -0.3547 -0.3765
15699TIP3    H268589   1.523   5.958   3.743  1.8818  3.3010 -0.2249
15700TIP3   OH268590   0.294   1.270  14.943  0.0160  0.4502  0.2108
15700TIP3    H168591   0.246   1.330  15.001 -1.2082 -0.0635 -0.2396
15700TIP3    H268592   0.341   1.327  14.883  0.1824  0.9714  0.8262
15701TIP3   OH268593   3.144   5.992  15.056 -0.1420 -0.8250 -0.1174
15701TIP3    H168594   3.238   6.002  15.043 -0.1479 -0.6585 -0.0341
15701TIP3    H268595   3.108   5.982  14.967  0.0038 -1.3273 -0.1229
15702TIP3   OH268596   1.087   2.331   3.705  0.4795 -0.3345 -0.5882
15702TIP3    H168597   1.085   2.424   3.730 -1.3647 -0.5277  0.1319
15702TIP3    H268598   1.167   2.323   3.653  1.5790  1.2787  0.7134
15703TIP3   OH268599   0.832   1.276   3.203 -0.0502 -0.2861 -0.0658
15703TIP3    H168600   0.861   1.366   3.219 -0.0398 -0.2254 -0.4237
15703TIP3    H268601   0.745   1.286   3.163 -0.4402 -0.4577  0.7202
15704TIP3   OH268602   5.820   0.408  10.488 -0.3863  0.6229 -0.4850
15704TIP3    H168603   5.814   0.410  10.392 -0.5397 -0.8588 -0.5409
15704TIP3    H268604   5.757   0.341  10.514  1.3978 -0.7957  0.4515
15705TIP3   OH268605   4.407   1.597  14.007  0.2228 -0.1203 -0.2110
15705TIP3    H168606   4.416   1.531  13.938 -0.9630 -0.0419 -0.4669
15705TIP3    H268607   4.382   1.548  14.085 -1.2086  0.0526 -0.5349
15706TIP3   OH268608   6.149   1.801  16.620  0.0969 -0.1166  0.2525
15706TIP3    H168609   6.153   1.828  16.712  0.2241  0.3228  0.1165
15706TIP3    H268610   6.066   1.836  16.588  0.9478  1.4425 -0.3383
15707TIP3   OH268611   2.197   5.741   2.124 -0.1587  0.0680  0.2810
15707TIP3    H168612   2.203   5.683   2.048 -0.6139  0.5134 -0.1050
15707TIP3    H268613   2.172   5.826   2.087  0.7063  0.5653  0.8131
15708TIP3   OH268614   3.855   5.400   5.002 -0.0226 -0.0251 -0.5724
15708TIP3    H168615   3.864   5.330   5.066  0.0588 -0.0169 -0.5738
15708TIP3    H268616   3.909   5.471   5.037  0.6537 -0.3014 -1.0425
15709TIP3   OH268617   1.108   6.534  13.765  0.3385  0.0523 -0.2806
15709TIP3    H168618   1.095   6.541  13.671 -0.5565  3.0065 -0.0449
15709TIP3    H268619   1.199   6.559  13.779  0.1676  0.7045 -0.3007
15710TIP3   OH268620   1.624   3.670  14.058  0.0902  0.1055  0.0341
15710TIP3    H168621   1.542   3.713  14.079 -1.3139 -1.8124 -1.2185
15710TIP3    H268622   1.673   3.734  14.007 -0.7188  1.1925  0.5898
15711TIP3   OH268623   1.673   1.476   2.723  0.3709  0.4335  0.0697
15711TIP3    H168624   1.587   1.511   2.699  0.9444  0.8459 -1.5031
15711TIP3    H268625   1.733   1.550   2.710  1.4539 -0.7560 -2.2442
15712TIP3   OH268626   3.398   1.366   2.605  0.2887  0.0852  0.4067
15712TIP3    H168627   3.426   1.333   2.519 -0.4840  1.5600 -0.4389
15712TIP3    H268628   3.329   1.428   2.585  0.1254  0.4850  2.1212
15713TIP3   OH268629   1.167   2.642  13.276 -0.4408 -0.1963 -0.3507
15713TIP3    H168630   1.165   2.625  13.370 -0.9004  1.6635  0.0248
15713TIP3    H268631   1.084   2.606  13.244 -0.7998  0.1350  0.1720
15714TIP3   OH268632   0.720   1.120  11.867  0.5139  0.0098  0.2462
15714TIP3    H168633   0.638   1.078  11.843  0.5714 -1.4381  2.3677
15714TIP3    H268634   0.695   1.208  11.894 -0.5096 -0.7073  1.7482
15715TIP3   OH268635   1.305   6.540  12.231  0.0584 -0.3878  0.1015
15715TIP3    H168636   1.213   6.551  12.207 -0.2983 -1.1181  1.0513
15715TIP3    H268637   1.306   6.460  12.283  1.6508 -1.8496 -2.0393
15716TIP3   OH268638   5.187   3.051  12.817  0.6155  0.1727 -0.6549
15716TIP3    H168639   5.278   3.034  12.841  0.1377  0.3260  1.4453
15716TIP3    H268640   5.179   3.147  12.819 -0.5008  0.1839  3.3680
15717TIP3   OH268641   6.145   1.249   0.179  0.0203 -0.0734 -0.5273
15717TIP3    H168642   6.132   1.337   0.214  0.4289 -1.1726  2.6543
15717TIP3    H268643   6.238   1.246   0.156  0.0029  0.3270 -0.6599
15718TIP3   OH268644   0.796   1.312   5.012 -0.2098  0.6015 -0.1918
15718TIP3    H168645   0.802   1.281   4.922 -0.2316  0.6421 -0.2072
15718TIP3    H268646   0.871   1.272   5.056 -0.1696  0.6239 -0.2401
15719TIP3   OH268647   6.210   0.219  15.322  1.1220 -0.6287 -0.4190
15719TIP3    H168648   6.150   0.163  15.273  2.0858 -0.5782 -1.7125
15719TIP3    H268649   6.216   0.299  15.270 -0.1884  0.6972  1.3699
15720TIP3   OH268650   1.864   2.346   5.929 -0.1435  0.5072  0.3044
15720TIP3    H168651   1.815   2.402   5.869  1.3980  0.3251 -1.1766
15720TIP3    H268652   1.934   2.402   5.962  0.6780 -0.1801 -0.2427
15721TIP3   OH268653   2.074   4.945   6.630  0.3910  0.2357  0.7230
15721TIP3    H168654   2.147   5.006   6.626  0.4962  0.0559 -2.1927
15721TIP3    H268655   1.996   4.999   6.616  0.5762 -0.2625 -3.2535
15722TIP3   OH268656   5.509   6.372  13.986  0.3106 -0.0336 -0.0737
15722TIP3    H168657   5.534   6.354  14.076  0.4893  1.4172  0.1804
15722TIP3    H268658   5.562   6.312  13.934  1.1301 -0.0045  0.7100
15723TIP3   OH268659   6.133   1.367  13.921  0.2120  0.0953 -0.3572
15723TIP3    H168660   6.224   1.336  13.922  0.8429  1.7960  0.0260
15723TIP3    H268661   6.122   1.408  14.007 -0.1254  1.9666 -1.2516
15724TIP3   OH268662   4.349   0.706  11.420 -0.5010  0.5052 -0.1372
15724TIP3    H168663   4.384   0.764  11.487 -0.0699  1.0889 -0.8655
15724TIP3    H268664   4.290   0.761  11.369  0.8101  0.6399 -1.5710
15725TIP3   OH268665   4.244   2.861   0.415 -0.0320 -0.0467  0.4241
15725TIP3    H168666   4.222   2.903   0.332  0.6257 -0.1519  0.1964
15725TIP3    H268667   4.197   2.777   0.412 -1.2132  0.5686  0.8082
15726TIP3   OH268668   0.724   6.461  12.043  0.1704 -0.2566  0.1269
15726TIP3    H168669   0.764   6.408  11.974  0.5910  1.2939 -0.8555
15726TIP3    H268670   0.743   6.412  12.124  0.6439 -1.5283 -0.7145
15727TIP3   OH268671   3.878   5.881   5.371  0.4048  0.2694  0.5407
15727TIP3    H168672   3.838   5.968   5.373 -0.1614  0.0055  0.6927
15727TIP3    H268673   3.968   5.897   5.342 -0.0828  0.7639 -0.7795
15728TIP3   OH268674   1.393   2.591   1.955  0.5616 -0.0923 -0.4213
15728TIP3    H168675   1.319   2.591   1.894 -1.1517 -0.4939  1.5682
15728TIP3    H268676   1.367   2.649   2.026  1.8637 -0.7804  0.6762
15729TIP3   OH268677   5.563   2.270  14.753  0.0605 -0.2084  0.2904
15729TIP3    H168678   5.526   2.192  14.710  0.1653  0.7114 -1.6019
15729TIP3    H268679   5.490   2.331  14.759  0.1650 -0.1517  1.0330
15730TIP3   OH268680   5.055   3.497  13.530  0.5147 -0.6072  0.2673
15730TIP3    H168681   5.068   3.581  13.486  1.2694 -1.0754 -0.4192
15730TIP3    H268682   4.963   3.499  13.558  0.8413  0.9604  1.3828
15731TIP3   OH268683   0.136   5.461  11.975  0.0979 -0.2293 -0.2941
15731TIP3    H168684   0.122   5.538  11.920 -0.3779 -0.4093 -0.4290
15731TIP3    H268685   0.167   5.394  11.915 -1.3587 -0.7193 -0.5377
15732TIP3   OH268686   1.858   2.998   3.532  0.4900  0.1001 -0.4383
15732TIP3    H168687   1.929   3.061   3.517  0.5732  0.4706  1.2478
15732TIP3    H268688   1.778   3.048   3.514  0.4948  1.1339  1.9406
15733TIP3   OH268689   5.814   2.309  12.917  0.2594 -0.3245 -0.2878
15733TIP3    H168690   5.781   2.346  12.999 -0.1817  0.2830 -0.7299
15733TIP3    H268691   5.814   2.383  12.856  0.8784 -0.6990 -0.7522
15734TIP3   OH268692   4.012   0.527   2.891  0.2131 -0.5805  0.4109
15734TIP3    H168693   4.056   0.611   2.900  0.6066 -0.4867 -1.8428
15734TIP3    H268694   3.920   0.545   2.910  0.2695  0.4098 -0.2055
15735TIP3   OH268695   1.317   6.258   3.158  0.7814 -0.0011  0.4017
15735TIP3    H168696   1.277   6.174   3.182  0.6313 -0.3314 -0.9240
15735TIP3    H268697   1.386   6.235   3.096  0.4722  0.8685 -0.2875
15736TIP3   OH268698   2.384   2.271  15.722 -0.6180 -0.0365 -0.0852
15736TIP3    H168699   2.347   2.354  15.752 -0.7329 -0.7078  1.8340
15736TIP3    H268700   2.388   2.279  15.627  1.0437  2.8454  0.1079
15737TIP3   OH268701   2.480   6.153  14.127  0.3352 -0.1828 -0.4897
15737TIP3    H168702   2.572   6.156  14.098  0.0628  1.6052 -1.3177
15737TIP3    H268703   2.484   6.115  14.214  1.8775 -0.1335 -0.4999
15738TIP3   OH268704   5.387   6.150  14.316  0.1367  0.0372 -1.1224
15738TIP3    H168705   5.320   6.201  14.269 -0.2179 -1.2414 -2.0612
15738TIP3    H268706   5.470   6.188  14.288 -0.1369  0.3187 -1.5682
15739TIP3   OH268707   0.762   1.684   5.386 -0.3533  0.2837  0.5957
15739TIP3    H168708   0.817   1.674   5.464  1.9404 -0.1910 -0.9870
15739TIP3    H268709   0.771   1.601   5.339 -1.1896  0.7920 -0.5040
15740TIP3   OH268710   1.722   2.997   0.328 -0.4510  0.1947  0.2737
15740TIP3    H168711   1.710   2.902   0.333  1.3199 -0.0721  0.0428
15740TIP3    H268712   1.785   3.010   0.256 -1.8935  1.6765 -0.8042
15741TIP3   OH268713   6.020   0.045  13.416  0.6744 -0.2270  0.7524
15741TIP3    H168714   6.032  -0.047  13.436  1.7501 -0.4544 -0.7861
15741TIP3    H268715   5.929   0.064  13.440  0.1725 -1.9024  0.2668
15742TIP3   OH268716   6.519   2.599  11.388 -0.1940 -0.1473  0.5473
15742TIP3    H168717   6.515   2.545  11.309 -0.5359  1.0598 -0.3023
15742TIP3    H268718   6.490   2.542  11.459  1.7609 -1.7720  0.1192
15743TIP3   OH268719   3.523   4.973  13.655  0.7395  0.1077  0.6708
15743TIP3    H168720   3.484   5.055  13.625 -0.0569  0.2974  2.1529
15743TIP3    H268721   3.538   4.923  13.575 -1.9606  0.2775 -0.0113
15744TIP3   OH268722   0.540   2.968   0.848 -0.3293  0.0594 -0.3023
15744TIP3    H168723   0.461   2.919   0.826 -0.1619 -0.4880  0.2756
15744TIP3    H268724   0.511   3.039   0.905 -0.4128 -0.1069 -0.1378
15745TIP3   OH268725   4.261   5.922   0.551  0.1990 -0.7446 -0.2596
15745TIP3    H168726   4.351   5.932   0.583 -0.3346  3.1415  0.5805
15745TIP3    H268727   4.220   5.860   0.611  2.4080 -3.3429 -1.2028
15746TIP3   OH268728   5.683   6.090   0.671  0.0997 -0.3127 -0.4050
15746TIP3    H168729   5.667   6.183   0.655  2.1361 -0.1437 -1.8701
15746TIP3    H268730   5.741   6.088   0.747  0.0458 -0.3903 -0.3657
15747TIP3   OH268731   2.533   4.635  17.331 -0.7650 -0.8039  0.3215
15747TIP3    H168732   2.597   4.575  17.293  0.7174  2.1515 -2.2564
15747TIP3    H268733   2.582   4.715  17.349 -2.6519 -0.2043  3.5912
15748TIP3   OH268734   0.683   2.319  15.614 -0.4616  0.3268 -0.0061
15748TIP3    H168735   0.700   2.254  15.683 -0.2287  1.1253  0.7190
15748TIP3    H268736   0.588   2.329  15.613 -0.3992  1.4236  1.3086
15749TIP3   OH268737   1.939   4.612  15.870  0.1693  0.1588 -0.1751
15749TIP3    H168738   2.007   4.669  15.833  0.7549 -1.2817 -1.4488
15749TIP3    H268739   1.860   4.634  15.820  1.0092 -1.9340 -2.6285
15750TIP3   OH268740   3.209   2.519   2.484  0.1141 -0.5550 -0.4224
15750TIP3    H168741   3.278   2.528   2.549  0.9322 -1.7532 -1.0813
15750TIP3    H268742   3.255   2.495   2.404 -1.0460 -1.1389 -0.9305
15751TIP3   OH268743   6.127   6.484  15.976 -0.0522 -0.1284 -0.0579
15751TIP3    H168744   6.156   6.442  16.057 -1.5932 -0.2390  0.4729
15751TIP3    H268745   6.149   6.576  15.988 -0.7497 -0.0568  0.7209
15752TIP3   OH268746   3.799   0.120  10.667 -0.1533 -0.2188  0.1758
15752TIP3    H168747   3.756   0.188  10.718 -0.0808 -0.8712  1.1195
15752TIP3    H268748   3.883   0.105  10.711  0.1179 -0.4698 -0.4009
15753TIP3   OH268749   3.033   3.341  11.726  0.0487 -0.1439 -0.9043
15753TIP3    H168750   3.003   3.252  11.744 -0.2183  0.2838  0.9750
15753TIP3    H268751   2.954   3.389  11.704 -0.3501  0.3505  1.3618
15754TIP3   OH268752   1.309   0.146   5.196 -0.0629 -0.0520  0.4913
15754TIP3    H168753   1.339   0.144   5.287  2.0389  1.3467 -0.1043
15754TIP3    H268754   1.373   0.093   5.148 -0.7250 -0.1614 -0.2972
15755TIP3   OH268755   5.789   3.156   5.415 -0.1284 -0.1401  0.1514
15755TIP3    H168756   5.738   3.236   5.428 -1.2244 -0.5607 -1.2968
15755TIP3    H268757   5.870   3.186   5.374 -0.6717  0.2266 -0.6926
15756TIP3   OH268758   0.074   0.336   4.908  0.6550 -0.1475 -0.4521
15756TIP3    H168759   0.063   0.345   5.003 -0.2054 -0.5723 -0.5036
15756TIP3    H268760   0.075   0.426   4.875  1.0006  0.0029 -0.0401
15757TIP3   OH268761   0.339   2.481   3.009  0.5569 -0.1055 -0.1231
15757TIP3    H168762   0.256   2.452   3.046  0.6285 -0.7243 -0.4394
15757TIP3    H268763   0.398   2.489   3.084  0.2620  0.1825  0.0826
15758TIP3   OH268764   0.185   5.556   1.017 -0.5140 -0.1205  0.3106
15758TIP3    H168765   0.266   5.581   0.971 -1.1640  0.8757 -0.3331
15758TIP3    H268766   0.209   5.557   1.109  1.0937 -3.1464  0.0634
15759TIP3   OH268767   0.425   2.037   1.489  0.1057  0.0130  0.0868
15759TIP3    H168768   0.435   2.071   1.400  1.2857 -1.2985 -0.3239
15759TIP3    H268769   0.422   1.942   1.478  2.1119 -0.2878  1.5351
15760TIP3   OH268770   1.882   2.408  15.590 -0.6007  0.6601 -0.2712
15760TIP3    H168771   1.877   2.500  15.616  0.4607  0.8834 -0.8134
15760TIP3    H268772   1.798   2.371  15.617 -0.3999  1.3863  1.4711
15761TIP3   OH268773   1.630   6.058   5.710 -0.1008  0.5318  0.7503
15761TIP3    H168774   1.603   6.057   5.802  2.3113  2.8238  1.6264
15761TIP3    H268775   1.710   6.005   5.708 -0.9082 -0.6783 -0.3559
15762TIP3   OH268776   4.272   6.510   3.212  0.2188  0.4614  0.2111
15762TIP3    H168777   4.326   6.580   3.174  0.3069  1.3520  1.8849
15762TIP3    H268778   4.182   6.539   3.196  0.2554  0.7139  0.4502
15763TIP3   OH268779   2.899   5.478   3.016  0.1525  0.3368  0.2649
15763TIP3    H168780   2.867   5.563   3.046 -0.2584 -0.0446  0.9341
15763TIP3    H268781   2.822   5.422   3.016  0.4180 -0.0386 -0.1956
15764TIP3   OH268782   1.076   5.940   1.597 -0.6387  0.2852  0.4133
15764TIP3    H168783   1.003   5.948   1.535 -1.1254  1.2769  1.0738
15764TIP3    H268784   1.046   5.874   1.660 -0.6329  0.1094  0.2309
15765TIP3   OH268785   1.351   1.684   1.575  0.1670 -0.0944  0.1516
15765TIP3    H168786   1.262   1.717   1.561  0.4637  0.7883  0.2902
15765TIP3    H268787   1.355   1.666   1.669 -0.5680 -2.2801 -0.1932
15766TIP3   OH268788   2.409   6.416  14.068  0.0517 -0.0467 -0.3523
15766TIP3    H168789   2.416   6.321  14.083  0.8925  0.0378 -0.1403
15766TIP3    H268790   2.378   6.423  13.977  1.8863 -0.5386 -1.0652
15767TIP3   OH268791   2.751   0.463   5.496 -0.2947 -0.3625 -0.3454
15767TIP3    H168792   2.718   0.479   5.585  0.5210  2.0473 -0.4157
15767TIP3    H268793   2.673   0.449   5.444 -1.0122  1.2208  0.2378
15768TIP3   OH268794   0.270   5.777  14.065 -0.2893 -0.1575 -0.5897
15768TIP3    H168795   0.355   5.804  14.031 -0.2959 -1.9382 -2.2157
15768TIP3    H268796   0.269   5.682  14.053 -1.8328 -0.3928  1.0031
15769TIP3   OH268797   2.510   5.975  14.350 -0.2997 -0.2157  0.2767
15769TIP3    H168798   2.462   5.900  14.315  0.8428 -0.8404  0.0056
15769TIP3    H268799   2.571   5.937  14.414 -1.2805  0.7394  1.8381
15770TIP3   OH268800   4.746   0.682   5.958 -0.4418  1.1055 -0.5657
15770TIP3    H168801   4.764   0.657   6.048  3.5339  1.0584 -1.2173
15770TIP3    H268802   4.683   0.616   5.927 -0.6044  0.1483  1.6625
15771TIP3   OH268803   4.148   2.555  12.590 -0.4539  0.1848 -0.4025
15771TIP3    H168804   4.055   2.575  12.600 -0.3058  0.2147  1.1580
15771TIP3    H268805   4.151   2.488  12.521 -1.8313 -1.2032  0.8059
15772TIP3   OH268806   5.024   3.746  14.454 -0.5295 -0.2857  0.4181
15772TIP3    H168807   5.050   3.837  14.443  1.2913 -0.6968  0.9627
15772TIP3    H268808   5.056   3.722  14.541  0.3763 -1.8331 -0.2905
15773TIP3   OH268809   5.496   5.794  11.440 -0.0448  0.1496  0.5861
15773TIP3    H168810   5.553   5.736  11.389 -2.1820 -0.6989 -0.9821
15773TIP3    H268811   5.530   5.788  11.529  1.2314 -1.6927  0.0520
15774TIP3   OH268812   1.781   2.972  14.323  0.0690 -0.0901  0.2034
15774TIP3    H168813   1.766   2.889  14.278 -0.1429  0.2172 -0.3057
15774TIP3    H268814   1.751   3.038  14.261  0.5229  0.3835  0.4847
15775TIP3   OH268815   4.753   3.711  12.324  0.0539 -0.0460  0.6900
15775TIP3    H168816   4.792   3.797  12.310 -1.7969  0.5245 -1.4870
15775TIP3    H268817   4.724   3.712  12.415 -0.5087  1.9116  0.5261
15776TIP3   OH268818   6.092   0.227   5.050  0.6530  0.1939  0.1919
15776TIP3    H168819   6.136   0.312   5.047  2.3044 -0.6393 -0.1261
15776TIP3    H268820   6.155   0.166   5.011 -0.4213 -1.2139  0.5970
15777TIP3   OH268821   5.880   3.483  16.160  0.0798 -0.1485 -0.0855
15777TIP3    H168822   5.786   3.463  16.166 -0.0683 -1.2373 -3.6432
15777TIP3    H268823   5.909   3.488  16.251 -3.3110 -0.2428  1.1593
15778TIP3   OH268824   2.159   2.174  15.275  0.2492  0.4462  0.7057
15778TIP3    H168825   2.162   2.170  15.371  0.3872 -0.5693  0.6768
15778TIP3    H268826   2.225   2.238  15.251  0.9652 -0.0693  1.2581
15779TIP3   OH268827   3.224   1.158  15.311  0.5544 -0.0799 -0.0093
15779TIP3    H168828   3.172   1.097  15.259  0.6348 -0.3541  0.2296
15779TIP3    H268829   3.315   1.137  15.288  0.5807  2.0330 -2.3336
15780TIP3   OH268830   5.856   3.163   3.073  0.0735  0.5052 -0.0278
15780TIP3    H168831   5.789   3.212   3.119  0.1298  0.9425 -0.4097
15780TIP3    H268832   5.873   3.213   2.993  0.9898  0.5110  0.1531
15781TIP3   OH268833   5.151   2.614   2.794 -0.1400  0.0998 -0.0584
15781TIP3    H168834   5.144   2.610   2.889 -1.0792  0.9339 -0.0814
15781TIP3    H268835   5.082   2.675   2.767 -0.3460 -0.6515 -1.3214
15782TIP3   OH268836   0.137   1.570  15.913  0.0507  0.5480 -0.1127
15782TIP3    H168837   0.215   1.559  15.968  0.4597 -0.3402 -0.8471
15782TIP3    H268838   0.172   1.604  15.830 -0.0694 -1.7346 -1.1542
15783TIP3   OH268839   3.107   2.229  13.377 -0.0191  0.1790 -0.5974
15783TIP3    H168840   3.042   2.288  13.339 -0.7747  0.4332  1.0095
15783TIP3    H268841   3.064   2.194  13.455  1.8853  0.5996  0.6860
15784TIP3   OH268842   0.820   5.863   0.817 -0.3048  0.1335 -0.4717
15784TIP3    H168843   0.896   5.898   0.863 -1.1439  0.9935  0.2985
15784TIP3    H268844   0.851   5.782   0.777  0.7083 -0.1359  0.8042
15785TIP3   OH268845   4.894   4.925   2.080 -0.4989  0.0506 -0.4434
15785TIP3    H168846   4.805   4.888   2.078 -0.3594 -0.2547 -1.2114
15785TIP3    H268847   4.952   4.849   2.076 -0.1420  0.0616  2.5509
15786TIP3   OH268848   4.870   1.481  14.068 -0.2536 -0.2694 -0.2008
15786TIP3    H168849   4.906   1.567  14.047 -0.1926 -0.1148  0.5037
15786TIP3    H268850   4.813   1.497  14.144  0.6852 -1.0352  0.6906
15787TIP3   OH268851   2.257   0.963  16.491  0.6976  0.2343  0.9197
15787TIP3    H168852   2.241   1.047  16.448 -0.6120 -0.2182  0.4917
15787TIP3    H268853   2.231   0.977  16.582  1.7670  0.6639  1.1802
15788TIP3   OH268854   0.658   3.434   1.269  0.2333 -0.2666  0.0161
15788TIP3    H168855   0.686   3.525   1.260 -0.5219 -0.1420 -1.5030
15788TIP3    H268856   0.576   3.430   1.219  0.1580 -1.7278  0.2316
15789TIP3   OH268857   6.283   5.625   5.988 -0.0224 -0.1759  0.3159
15789TIP3    H168858   6.227   5.692   5.950  0.2156 -0.3521 -0.3659
15789TIP3    H268859   6.368   5.667   5.999 -0.1321 -0.0776  0.8146
15790TIP3   OH268860   0.840   1.432  11.383  0.4919 -0.0481  0.0358
15790TIP3    H168861   0.755   1.462  11.351  0.5860  1.2968  0.9479
15790TIP3    H268862   0.904   1.471  11.324  0.5590  0.5159  0.4782
15791TIP3   OH268863   4.705   2.367   2.611  0.5139 -0.1142 -0.3405
15791TIP3    H168864   4.727   2.400   2.698 -2.5469 -1.4189  1.0886
15791TIP3    H268865   4.620   2.406   2.590  0.0383 -1.7045 -1.6333
15792TIP3   OH268866   5.873   5.451   1.198 -1.2814  0.2089  0.2783
15792TIP3    H168867   5.838   5.445   1.287 -0.8337 -1.0320  0.3971
15792TIP3    H268868   5.968   5.451   1.210 -1.2150 -0.3664 -0.2095
15793TIP3   OH268869   6.648   1.020   0.889  0.2909 -0.0257 -0.0815
15793TIP3    H168870   6.663   0.940   0.939  0.1812  0.3093  0.5016
15793TIP3    H268871   6.688   1.089   0.942 -0.4009  0.4238 -0.1422
15794TIP3   OH268872   2.060   5.130  16.696  0.1078  0.6714  1.0249
15794TIP3    H168873   2.017   5.173  16.770 -0.5313  0.4177  0.8119
15794TIP3    H268874   1.988   5.101  16.640  0.5922  1.7914 -0.2427
15795TIP3   OH268875   1.173   2.096  15.494 -0.4930 -0.4314  0.2816
15795TIP3    H168876   1.117   2.018  15.491 -0.6229 -0.3070 -1.4412
15795TIP3    H268877   1.260   2.062  15.515 -0.1123 -1.3760 -2.4140
15796TIP3   OH268878   5.409   0.891   1.785  0.5025  0.7131  0.4214
15796TIP3    H168879   5.345   0.860   1.721  3.0591 -1.4986 -1.2717
15796TIP3    H268880   5.374   0.975   1.814 -3.9582 -1.0286  0.9243
15797TIP3   OH268881   1.362   5.974  15.148  0.1909 -0.1179  0.1176
15797TIP3    H168882   1.386   5.897  15.200  2.2712  1.2050  1.2832
15797TIP3    H268883   1.409   5.962  15.065 -0.9927 -0.9598 -0.4528
15798TIP3   OH268884   3.850   0.645   5.544 -0.1556 -0.1991  0.3555
15798TIP3    H168885   3.898   0.631   5.462 -0.1529 -0.2881  0.3726
15798TIP3    H268886   3.774   0.698   5.518 -0.2881 -0.4383  0.2531
15799TIP3   OH268887   2.595   3.603   6.310  0.1617 -0.3847 -0.4741
15799TIP3    H168888   2.569   3.581   6.400 -1.2719 -1.1568 -1.0554
15799TIP3    H268889   2.613   3.697   6.314 -0.2718 -0.3249  0.5356
15800TIP3   OH268890   4.013   4.575  12.850 -0.5057  0.0191 -0.2353
15800TIP3    H168891   3.951   4.553  12.920 -2.0073  2.8402 -0.5431
15800TIP3    H268892   4.080   4.629  12.893 -0.1507 -0.1593 -0.5570
15801TIP3   OH268893   2.341   0.767   5.067 -0.3793  0.2320  0.2200
15801TIP3    H168894   2.316   0.853   5.032 -0.1625  0.3935  0.4637
15801TIP3    H268895   2.259   0.719   5.072 -0.5567  0.5533  0.4340
15802TIP3   OH268896   6.329   4.214   2.797 -0.2081 -0.0043  0.2176
15802TIP3    H168897   6.408   4.161   2.793  0.4232  0.8843  0.5486
15802TIP3    H268898   6.273   4.170   2.861 -0.1601 -0.8700 -0.3320
15803TIP3   OH268899   6.697   0.744  15.328  0.0919  0.7397 -0.2091
15803TIP3    H168900   6.622   0.804  15.320  0.4917  1.1524 -0.9232
15803TIP3    H268901   6.688   0.707  15.416 -0.2269  1.7661  0.2103
15804TIP3   OH268902   4.902   6.314   1.512  0.0360  0.1445  0.2206
15804TIP3    H168903   4.854   6.256   1.453 -0.9450  1.3512 -0.2111
15804TIP3    H268904   4.940   6.380   1.454  1.2552 -0.1172  0.6872
15805TIP3   OH268905   6.238   0.748  15.136 -0.1395  0.2509  0.6021
15805TIP3    H168906   6.218   0.714  15.048 -2.8901  1.7096  0.5565
15805TIP3    H268907   6.332   0.734  15.146  0.1912 -0.3956 -2.3984
15806TIP3   OH268908   6.504   5.770   0.221 -0.1840  0.4335  0.3101
15806TIP3    H168909   6.469   5.681   0.215 -1.0739  0.6752  1.3861
15806TIP3    H268910   6.589   5.759   0.264  0.7704 -0.0824 -1.5813
15807TIP3   OH268911   0.584   5.464  15.284 -0.6946  0.2743 -0.4643
15807TIP3    H168912   0.613   5.544  15.241  0.6687  0.6613  1.0544
15807TIP3    H268913   0.644   5.397  15.253  1.1424  0.8095  1.6717
15808TIP3   OH268914   1.288   5.498  17.256  0.0969 -0.1210 -0.0330
15808TIP3    H168915   1.252   5.573  17.208 -0.0216 -0.8485 -1.1201
15808TIP3    H268916   1.290   5.427  17.191  0.6103 -0.9395  0.8568
15809TIP3   OH268917   6.487   1.520  11.043 -0.7425  0.7067 -0.5935
15809TIP3    H168918   6.543   1.472  11.103  0.1145  0.8437 -1.2529
15809TIP3    H268919   6.414   1.551  11.097 -1.3540 -1.3472 -0.1686
15810TIP3   OH268920   2.101   4.060   5.720 -0.1219  0.3734 -0.6175
15810TIP3    H168921   2.043   3.984   5.728  0.6576 -0.1979 -0.3621
15810TIP3    H268922   2.045   4.127   5.680 -1.0112 -0.1094 -0.2332
15811TIP3   OH268923   6.536   0.002  12.309  0.3245  0.1927  0.6023
15811TIP3    H168924   6.455   0.018  12.358 -0.1752  1.2380 -0.5394
15811TIP3    H268925   6.553  -0.091  12.322 -1.1399 -0.0776  0.7552
15812TIP3   OH268926   5.567   1.320   0.536  0.1605 -0.2892 -0.4022
15812TIP3    H168927   5.491   1.375   0.553 -0.3720 -0.5517 -1.7647
15812TIP3    H268928   5.616   1.319   0.618 -0.4450  1.2220 -0.0033
15813TIP3   OH268929   6.463   2.822  15.048  0.9087 -0.0918  0.3507
15813TIP3    H168930   6.519   2.895  15.075  1.2164  1.5070 -3.8621
15813TIP3    H268931   6.375   2.859  15.046  0.7417 -0.4932  0.2544
15814TIP3   OH268932   5.042   4.960  11.552  0.0487 -0.5190  0.2640
15814TIP3    H168933   4.983   4.895  11.591  0.1430 -0.0397  1.2373
15814TIP3    H268934   5.129   4.919  11.556  0.0851 -0.4058  0.7375
15815TIP3   OH268935   6.612   4.681   3.958 -1.0952 -0.3546  0.1608
15815TIP3    H168936   6.705   4.662   3.965 -0.9428  0.1968 -0.2226
15815TIP3    H268937   6.589   4.722   4.041 -1.0819 -0.8381  0.4020
15816TIP3   OH268938   4.359   2.528  12.737 -0.3332 -0.4037  0.0317
15816TIP3    H168939   4.323   2.504  12.822 -0.3811  0.5842  0.3116
15816TIP3    H268940   4.283   2.537  12.680 -0.2208 -2.2657 -0.4644
15817TIP3   OH268941   2.303   3.107   6.081  0.2670  0.2945  0.2137
15817TIP3    H168942   2.285   3.145   6.167  1.5616 -0.6444  0.9343
15817TIP3    H268943   2.370   3.164   6.043  1.5073 -0.6607  0.8946
15818TIP3   OH268944   6.167   6.195   6.079 -0.2935  0.0776 -0.3452
15818TIP3    H168945   6.155   6.282   6.040  0.6535  0.3679 -0.0335
15818TIP3    H268946   6.082   6.173   6.116 -0.7853  0.4802 -1.1944
15819TIP3   OH268947   5.658   6.209  15.855 -0.2963  0.2102 -0.0170
15819TIP3    H168948   5.726   6.269  15.825 -1.0209  0.1773 -1.8994
15819TIP3    H268949   5.576   6.250  15.828 -1.0001 -0.1844  1.3925
15820TIP3   OH268950   1.590   1.655  17.218  0.0416 -0.3438 -0.2140
15820TIP3    H168951   1.659   1.622  17.161  1.6977 -0.1015  1.5715
15820TIP3    H268952   1.598   1.605  17.299 -0.5923  1.0203  0.7484
15821TIP3   OH268953   5.998   6.267  15.093 -0.4428 -0.3816 -0.5285
15821TIP3    H168954   5.948   6.207  15.148  0.4867  0.0482  0.8528
15821TIP3    H268955   6.069   6.298  15.150 -1.5648  2.9909 -0.7422
15822TIP3   OH268956   5.234   5.315  10.312 -0.3065 -0.0006  0.0171
15822TIP3    H168957   5.168   5.248  10.295  0.0465 -0.4627  0.4423
15822TIP3    H268958   5.184   5.396  10.324 -0.7890 -0.3251  0.2213
15823TIP3   OH268959   1.423   0.268   1.550  0.0448 -0.0507  0.0706
15823TIP3    H168960   1.494   0.240   1.492  0.5694  1.1670  0.0893
15823TIP3    H268961   1.464   0.328   1.612 -0.9485  0.4954  0.2305
15824TIP3   OH268962   5.608   5.771   3.871  0.3712  0.2678 -0.2370
15824TIP3    H168963   5.614   5.850   3.818  1.3109 -0.8407 -1.8742
15824TIP3    H268964   5.630   5.800   3.960 -0.9377  2.1239 -0.4625
15825TIP3   OH268965   5.490   4.191   5.452  0.4280 -0.4112 -0.0956
15825TIP3    H168966   5.456   4.145   5.375  0.3564 -0.9794  0.2742
15825TIP3    H268967   5.560   4.246   5.417 -0.6404  0.5248 -0.8049
15826TIP3   OH268968   2.893   3.905  12.350 -0.5155 -0.2574 -0.0631
15826TIP3    H168969   2.856   3.824  12.315  1.2879 -0.9778 -0.3823
15826TIP3    H268970   2.977   3.914  12.306  0.1408  0.8164  1.3378
15827TIP3   OH268971   4.842   5.054  14.616 -0.6500  0.4188 -0.0438
15827TIP3    H168972   4.853   4.974  14.564 -0.5937 -0.5293  1.3442
15827TIP3    H268973   4.909   5.113  14.583  1.0119 -1.0453  0.5115
15828TIP3   OH268974   6.104   6.125   4.411  0.4215  0.4211  0.8062
15828TIP3    H168975   6.066   6.039   4.427 -2.0570  1.4873  1.1624
15828TIP3    H268976   6.186   6.107   4.365  0.7313 -2.1573  2.1916
15829TIP3   OH268977   3.670   1.421  15.267  0.2569  0.4064 -0.2405
15829TIP3    H168978   3.661   1.408  15.362  0.2048 -0.6702 -0.3788
15829TIP3    H268979   3.622   1.502  15.250 -0.7636 -0.0141  0.4926
15830TIP3   OH268980   3.672   4.444   3.629  0.2498  0.0780  0.6354
15830TIP3    H168981   3.601   4.476   3.684  0.0298 -1.3983  1.2437
15830TIP3    H268982   3.748   4.440   3.687  0.0938 -1.1743  0.7907
15831TIP3   OH268983   0.601   4.377   4.251 -0.3180  0.4882 -0.8072
15831TIP3    H168984   0.612   4.347   4.160  0.7286 -0.8086 -0.2785
15831TIP3    H268985   0.655   4.456   4.256 -1.3809  1.3050 -1.6275
15832TIP3   OH268986   1.043   0.519  15.391 -0.6923  0.0126  0.4411
15832TIP3    H168987   0.967   0.551  15.440 -1.4609  0.7035 -1.1239
15832TIP3    H268988   1.065   0.436  15.433 -2.4156 -0.2910  0.8372
15833TIP3   OH268989   4.781   1.402  13.770 -0.2702  0.4206  0.6216
15833TIP3    H168990   4.796   1.492  13.798 -1.5393  0.4240  1.3850
15833TIP3    H268991   4.825   1.395  13.686  1.3826  1.2094  1.3831
15834TIP3   OH268992   3.990   3.425  11.804 -0.4501 -0.0329  0.2131
15834TIP3    H168993   3.911   3.477  11.815  1.6447  3.3622  0.3979
15834TIP3    H268994   3.987   3.396  11.712 -1.8885 -0.0378  0.2352
15835TIP3   OH268995   0.212   3.480  12.662 -0.2670  0.1792 -0.2944
15835TIP3    H168996   0.277   3.526  12.610 -0.4970  0.1543 -0.6071
15835TIP3    H268997   0.128   3.510  12.628 -0.4203  0.0821 -0.0094
15836TIP3   OH268998   5.520   3.471  16.452  0.3476  0.0605  0.0696
15836TIP3    H168999   5.610   3.442  16.463  0.4645  0.5287  0.3429
15836TIP3    H269000   5.501   3.453  16.359  0.8612  0.3642 -0.0958
15837TIP3   OH269001   4.745   5.921   4.499  0.0257 -0.1931  0.1954
15837TIP3    H169002   4.720   5.875   4.579 -1.6139 -0.6498 -0.5368
15837TIP3    H269003   4.798   5.995   4.529 -2.0677  0.7179  1.9163
15838TIP3   OH269004   6.550   6.796   0.390 -0.5476  0.4467 -0.1216
15838TIP3    H169005   6.481   6.825   0.449  0.0446  1.2504  0.1933
15838TIP3    H269006   6.606   6.873   0.378 -1.2880  0.7062 -2.6573
15839TIP3   OH269007   2.540   3.670   3.725 -0.6331 -0.3088 -0.0633
15839TIP3    H169008   2.602   3.708   3.663 -0.0743  0.8354  1.1409
15839TIP3    H269009   2.585   3.593   3.761  0.3507  0.7806  1.1538
15840TIP3   OH269010   3.646   2.465   1.534 -0.4610  0.3004 -0.2508
15840TIP3    H169011   3.702   2.465   1.612 -0.7221 -0.8373 -0.0541
15840TIP3    H269012   3.626   2.558   1.520 -0.8311  0.4910  1.3472
15841TIP3   OH269013   4.327   5.996  15.337 -0.1277 -0.1393  0.1997
15841TIP3    H169014   4.355   6.061  15.273  0.9015  0.9052  1.6631
15841TIP3    H269015   4.362   6.027  15.420  0.3010 -2.5009  0.9740
15842TIP3   OH269016   3.135   1.963   5.501 -0.2286  0.2054  0.0239
15842TIP3    H169017   3.189   1.893   5.537  0.1677  1.1559  1.3550
15842TIP3    H269018   3.197   2.028   5.468 -0.4607  1.5302  1.9994
15843TIP3   OH269019   3.931   2.700  11.907 -0.0862  0.4472 -0.8663
15843TIP3    H169020   3.875   2.719  11.833 -0.0160  1.9117 -0.5936
15843TIP3    H269021   3.897   2.756  11.978  0.7539  0.2092 -0.2501
15844TIP3   OH269022   3.575   2.995   2.176 -0.1209 -0.0747 -0.0654
15844TIP3    H169023   3.600   3.053   2.247  1.4138  0.3027 -0.8618
15844TIP3    H269024   3.479   2.992   2.179 -0.1774  1.6311  0.6612
15845TIP3   OH269025   0.221   2.784  12.601  0.3874 -0.0496 -0.6665
15845TIP3    H169026   0.210   2.693  12.627  0.3154 -0.3054 -1.5807
15845TIP3    H269027   0.209   2.833  12.682  1.5309 -0.9204  0.0632
15846TIP3   OH269028   6.406   4.867   0.692  0.1797  0.6112 -0.0363
15846TIP3    H169029   6.453   4.846   0.772 -4.2943 -1.8095  2.3413
15846TIP3    H269030   6.392   4.783   0.649 -1.8014  1.1476 -0.5848
15847TIP3   OH269031   3.498   6.380   2.613  0.1321 -0.0364 -0.1664
15847TIP3    H169032   3.480   6.429   2.533  1.3917  0.3325 -0.2455
15847TIP3    H269033   3.547   6.303   2.583 -0.3510 -0.4681  0.1377
15848TIP3   OH269034   1.859   0.360   4.107 -0.9197 -0.1677 -0.4526
15848TIP3    H169035   1.934   0.329   4.056 -1.3674 -0.6886 -0.8082
15848TIP3    H269036   1.788   0.367   4.044 -1.0140  0.9454 -0.2415
15849TIP3   OH269037   0.546   3.029  17.175 -0.6556  0.2737  0.0102
15849TIP3    H169038   0.623   2.983  17.209 -0.9869 -0.0150  0.3840
15849TIP3    H269039   0.480   3.017  17.243 -0.9188  0.8256 -0.1474
15850TIP3   OH269040   3.063   0.101   2.043  0.0857  0.3153 -0.3987
15850TIP3    H169041   3.034   0.138   1.960  0.3983 -2.9386 -2.0950
15850TIP3    H269042   3.154   0.130   2.052  0.4097 -0.2202 -1.7958
15851TIP3   OH269043   5.467   5.280  11.801 -0.2257 -0.3066  0.1875
15851TIP3    H169044   5.406   5.346  11.834 -0.5865 -0.4066 -0.2601
15851TIP3    H269045   5.427   5.249  11.720 -0.9551 -2.3444  1.2522
15852TIP3   OH269046   4.974   3.572   3.354  0.2756  0.5367 -0.0934
15852TIP3    H169047   4.933   3.629   3.420  0.7504  1.2902 -0.4274
15852TIP3    H269048   4.936   3.486   3.369 -0.8375  1.0457  0.1166
15853TIP3   OH269049   3.858   2.981  16.137  0.1062  0.1167  0.5412
15853TIP3    H169050   3.826   2.934  16.059  0.7882 -0.0319  0.3404
15853TIP3    H269051   3.782   2.989  16.194 -0.5022  0.5765 -0.3149
15854TIP3   OH269052   4.795   1.137   2.899  0.3275  0.5102 -0.2068
15854TIP3    H169053   4.806   1.076   2.826 -0.7707 -2.2164  1.7047
15854TIP3    H269054   4.703   1.128   2.924  1.0083 -0.0342  2.4979
15855TIP3   OH269055   2.320   5.282  14.909  0.1732  0.2064 -0.2680
15855TIP3    H169056   2.364   5.197  14.905 -0.7368 -0.3170  0.4646
15855TIP3    H269057   2.384   5.344  14.873  0.8858 -0.7657 -0.7152
15856TIP3   OH269058   2.111   0.255   3.476 -0.2723  0.6217 -0.5558
15856TIP3    H169059   2.110   0.327   3.413 -0.9126  1.2431  0.1475
15856TIP3    H269060   2.022   0.222   3.477 -0.2301  0.5142 -0.0899
15857TIP3   OH269061   1.409   5.375   4.639  0.2313  0.0900  0.2493
15857TIP3    H169062   1.330   5.406   4.684  0.1310 -0.2510  0.3124
15857TIP3    H269063   1.447   5.454   4.601  0.3394  0.3978  0.9656
15858TIP3   OH269064   0.060   1.774  14.820 -0.0720  0.3209 -0.4323
15858TIP3    H169065   0.141   1.786  14.869 -0.3018  1.1251 -0.2403
15858TIP3    H269066  -0.009   1.773  14.886 -0.0862 -2.7447 -0.3256
15859TIP3   OH269067   3.662   1.659   1.662 -0.4559 -0.1930  0.1531
15859TIP3    H169068   3.730   1.607   1.619  1.0040  1.9345 -0.2354
15859TIP3    H269069   3.604   1.593   1.702  1.1421 -2.1045 -0.4981
15860TIP3   OH269070   5.253   2.295  14.905  0.1611 -0.4717 -0.2306
15860TIP3    H169071   5.168   2.289  14.862 -0.3778  0.5856  0.6385
15860TIP3    H269072   5.291   2.376  14.872  1.3121 -1.4235 -1.3846
15861TIP3   OH269073   6.474   6.801   5.349  0.8036 -0.3799  0.6366
15861TIP3    H169074   6.423   6.881   5.336 -0.2898 -1.1674 -0.1193
15861TIP3    H269075   6.554   6.830   5.391 -0.4216  0.8693  2.2220
15862TIP3   OH269076   5.751   4.383  16.946  0.2052 -0.1514 -0.3371
15862TIP3    H169077   5.714   4.295  16.942  0.1392 -0.1765  0.6489
15862TIP3    H269078   5.679   4.438  16.978  1.0288 -0.2211  1.7177
15863TIP3   OH269079   2.001   5.253   2.147 -0.5041 -0.1117  0.1300
15863TIP3    H169080   1.968   5.297   2.069 -1.5132 -0.9452  0.0617
15863TIP3    H269081   1.984   5.314   2.218 -1.8847 -0.3631  0.0392
15864TIP3   OH269082   6.750   5.308  15.681 -0.5030 -0.2428  0.1993
15864TIP3    H169083   6.705   5.349  15.754 -1.3224 -0.3473 -0.2336
15864TIP3    H269084   6.690   5.240  15.651 -0.0019 -0.4674 -0.3133
15865TIP3   OH269085   6.517   6.719  10.466  0.0332  0.1346 -0.2325
15865TIP3    H169086   6.425   6.717  10.439 -0.8260  1.5869  2.2426
15865TIP3    H269087   6.533   6.631  10.502  0.0961 -0.5901 -1.9609
15866TIP3   OH269088   5.171   4.666  13.568  0.3502  0.1623  0.0480
15866TIP3    H169089   5.226   4.592  13.595  0.6780  0.9687  1.7299
15866TIP3    H269090   5.083   4.630  13.560  0.7260 -0.6732 -0.4874
15867TIP3   OH269091   4.600   1.665   3.677  0.5549 -0.2996  0.2207
15867TIP3    H169092   4.655   1.628   3.746  2.3549 -2.1258 -2.0261
15867TIP3    H269093   4.638   1.752   3.660  1.5499 -0.7525  0.0402
15868TIP3   OH269094   3.249   4.358  11.414  0.0239 -0.5336 -0.2745
15868TIP3    H169095   3.199   4.304  11.474  2.0837 -0.4012  1.6813
15868TIP3    H269096   3.259   4.303  11.335  0.8069 -2.4774  1.0900
15869TIP3   OH269097   1.516   4.184  11.460  0.4968  0.1252  0.4129
15869TIP3    H169098   1.523   4.230  11.544 -0.3899 -1.0396  1.1405
15869TIP3    H269099   1.603   4.147  11.446  0.5771  0.1061  0.9482
15870TIP3   OH269100   4.018   2.406   3.739  0.1719 -0.2644 -0.1735
15870TIP3    H169101   3.993   2.318   3.712 -0.1723  0.3024 -1.7701
15870TIP3    H269102   4.082   2.391   3.810  1.0837 -1.8179 -1.2442
15871TIP3   OH269103   4.482   4.680   3.973 -0.5295  0.4606 -0.1201
15871TIP3    H169104   4.403   4.635   4.004 -0.1234 -0.7661 -0.7973
15871TIP3    H269105   4.550   4.655   4.035 -0.5115  0.9425  0.0573
15872TIP3   OH269106   0.208   2.477  16.433 -0.5662 -0.1771 -0.0608
15872TIP3    H169107   0.189   2.413  16.364 -0.6306  0.3643 -0.5571
15872TIP3    H269108   0.122   2.496  16.471 -0.3173 -2.0206  1.6039
15873TIP3   OH269109   4.910   0.041   4.544 -0.6650  0.8912  0.4011
15873TIP3    H169110   4.988   0.080   4.506 -0.4503  1.6122  1.5755
15873TIP3    H269111   4.939   0.002   4.626 -1.3480  0.2926  0.3747
15874TIP3   OH269112   5.739   1.533   4.017 -0.2719  0.2550  0.0479
15874TIP3    H169113   5.786   1.616   4.016 -1.1043  0.7297 -1.2147
15874TIP3    H269114   5.767   1.488   3.937 -0.3807 -0.3756  0.3519
15875TIP3   OH269115   5.177   1.398  14.191  0.2728 -0.5151  0.0019
15875TIP3    H169116   5.176   1.418  14.098  1.9506 -2.1291 -0.4328
15875TIP3    H269117   5.108   1.333  14.203 -0.4357  0.2400  0.0350
15876TIP3   OH269118   4.514   2.418  13.762 -0.8902  0.2865  0.1129
15876TIP3    H169119   4.500   2.436  13.855 -3.3617  0.0293 -0.1326
15876TIP3    H269120   4.431   2.380  13.732  0.3333 -1.0056 -1.8890
15877TIP3   OH269121   5.291   4.031  12.646  0.7367 -0.4307 -0.3385
15877TIP3    H169122   5.243   4.032  12.563 -1.2542 -0.3360  0.7364
15877TIP3    H269123   5.295   3.938  12.669 -1.0780 -0.2964  0.6866
15878TIP3   OH269124   5.233   4.646  15.366  0.1634  0.0388 -0.3605
15878TIP3    H169125   5.139   4.647  15.345 -0.2174 -0.8526  1.1294
15878TIP3    H269126   5.276   4.673  15.285 -1.2668 -1.6788 -1.7830
15879TIP3   OH269127   2.103   6.716  16.628 -0.8755 -0.3311  0.1662
15879TIP3    H169128   2.144   6.651  16.685 -0.5275 -1.7944 -1.6580
15879TIP3    H269129   2.165   6.789  16.626  0.3441 -1.3346 -0.3057
15880TIP3   OH269130   1.076   4.878   0.061 -0.3141  0.5017 -0.3769
15880TIP3    H169131   1.053   4.855   0.151 -1.2875 -2.2009 -1.2268
15880TIP3    H269132   1.039   4.965   0.048 -0.9371  0.5613  1.5298
15881TIP3   OH269133   6.440   2.142  11.237  0.1786  0.1949  0.1008
15881TIP3    H169134   6.349   2.166  11.221  0.2683  1.3766  1.2549
15881TIP3    H269135   6.445   2.049  11.213 -1.2769  0.1655 -0.1444
15882TIP3   OH269136   6.311   1.887   4.467  0.6238 -0.0723 -0.1369
15882TIP3    H169137   6.250   1.853   4.532 -1.0301  1.1920 -0.9298
15882TIP3    H269138   6.395   1.890   4.511 -0.2962  0.0323  1.6955
15883TIP3   OH269139   2.897   3.466   3.386  0.1292 -0.4212  0.0421
15883TIP3    H169140   2.897   3.459   3.291 -0.7910  1.0557 -0.0926
15883TIP3    H269141   2.805   3.451   3.411  0.3832 -0.9005  0.7166
15884TIP3   OH269142   2.398   2.275   4.629  0.0632  0.3701  0.4089
15884TIP3    H169143   2.473   2.217   4.620 -2.3793 -2.9128 -0.7168
15884TIP3    H269144   2.376   2.271   4.722  1.1793  1.3380  0.7411
15885TIP3   OH269145   4.191   3.642   5.705 -0.1682 -0.0357 -0.0884
15885TIP3    H169146   4.185   3.618   5.613  1.0383 -0.0514 -0.1721
15885TIP3    H269147   4.178   3.737   5.706 -1.8243 -0.2337 -0.0806
15886TIP3   OH269148   1.824   6.677   1.397 -0.4164 -0.1983 -0.4214
15886TIP3    H169149   1.774   6.609   1.352  0.4701 -1.5234  0.4983
15886TIP3    H269150   1.914   6.665   1.364  0.2839 -1.3089  1.7234
15887TIP3   OH269151   2.719   4.607   6.555 -0.5171  0.4142  0.0083
15887TIP3    H169152   2.645   4.643   6.605  0.1221  0.5562  0.8881
15887TIP3    H269153   2.755   4.682   6.509 -1.0302  0.3094 -0.5719
15888TIP3   OH269154   1.770   4.360   3.467 -0.6122 -0.0132  0.2992
15888TIP3    H169155   1.776   4.344   3.561  0.2357 -1.1969  0.0661
15888TIP3    H269156   1.699   4.303   3.437 -2.6717  2.2413  0.5699
15889TIP3   OH269157   3.976   0.955  11.423  0.0770 -0.1286  0.4061
15889TIP3    H169158   3.999   1.019  11.355 -1.2536  1.3571  1.2780
15889TIP3    H269159   3.908   0.998  11.474  1.0886 -1.1260  2.7589
15890TIP3   OH269160   1.241   5.168  13.909  0.0002  0.0367 -0.6692
15890TIP3    H169161   1.210   5.096  13.854 -1.6607  0.0033  0.2672
15890TIP3    H269162   1.293   5.125  13.978 -0.4669 -0.2068 -0.4664
15891TIP3   OH269163   3.052   0.007   3.062 -0.0439 -0.3342 -0.2939
15891TIP3    H169164   3.073  -0.083   3.086  3.6266  0.9280  1.9951
15891TIP3    H269165   3.135   0.053   3.066 -1.7852  3.2243 -1.2452
15892TIP3   OH269166   3.451   5.265  11.648  0.5196 -0.3237 -0.1140
15892TIP3    H169167   3.542   5.249  11.673  0.1592 -1.7091  0.4423
15892TIP3    H269168   3.456   5.327  11.576  1.8900 -0.1736  0.0880
15893TIP3   OH269169   0.882   1.892  12.448  0.0470  0.1989  0.6476
15893TIP3    H169170   0.851   1.905  12.538 -0.6571 -0.4351  0.5039
15893TIP3    H269171   0.897   1.980  12.415 -1.2331  0.5242  0.8616
15894TIP3   OH269172   3.127   0.046  15.303 -0.3370  0.4763 -0.4667
15894TIP3    H169173   3.072   0.083  15.373 -0.1990 -1.8428  0.9619
15894TIP3    H269174   3.217   0.067  15.330 -0.2041 -1.4506  0.7980
15895TIP3   OH269175   2.956   4.494   5.707 -0.2697  0.1245 -0.7624
15895TIP3    H169176   3.037   4.452   5.678  0.1814  0.9769 -0.7996
15895TIP3    H269177   2.981   4.586   5.722 -1.1608  0.3346 -0.4807
15896TIP3   OH269178   3.310   3.326  14.574  1.1766  0.0312 -0.6222
15896TIP3    H169179   3.233   3.290  14.528  1.8846  1.0381 -2.7588
15896TIP3    H269180   3.280   3.339  14.664 -0.7917 -0.6988 -1.1062
15897TIP3   OH269181   5.576   1.981  12.822  0.2687  0.1378 -0.0808
15897TIP3    H169182   5.631   2.015  12.751 -0.1930  0.9394 -0.0627
15897TIP3    H269183   5.496   1.950  12.778  0.2325  0.0773  0.0262
15898TIP3   OH269184   6.728   3.108   5.821  0.4263 -0.2323  0.3011
15898TIP3    H169185   6.641   3.145   5.833  0.9138  0.5934  1.4935
15898TIP3    H269186   6.718   3.016   5.844 -0.1307 -0.1457  0.4261
15899TIP3   OH269187   5.842   4.940   4.027  0.2833  0.1966 -0.4973
15899TIP3    H169188   5.810   4.881   4.096  1.6231 -1.3602 -1.1376
15899TIP3    H269189   5.870   5.019   4.073 -0.7590  0.0201  0.4864
15900TIP3   OH269190   0.410   3.657  12.567  0.8363 -0.4741 -0.0365
15900TIP3    H169191   0.443   3.708  12.493  1.5352 -1.4562 -0.4303
15900TIP3    H269192   0.430   3.710  12.644  0.7818  0.2248 -0.5030
15901TIP3   OH269193   0.468   4.861   4.189  0.2751 -0.5537 -0.1458
15901TIP3    H169194   0.481   4.857   4.094 -0.7007 -0.1676 -0.3100
15901TIP3    H269195   0.550   4.829   4.226  1.3991  1.1086 -1.0870
15902TIP3   OH269196   6.092   5.786  15.316 -0.2611 -0.4843  0.2763
15902TIP3    H169197   6.128   5.750  15.235 -2.6132 -0.1246 -1.0137
15902TIP3    H269198   6.009   5.739  15.328 -0.0290 -0.4485  2.4413
15903TIP3   OH269199   4.527   1.564   2.067 -0.1442  0.6405 -0.8021
15903TIP3    H169200   4.485   1.650   2.074  0.8058  1.1374 -0.9061
15903TIP3    H269201   4.456   1.504   2.045 -1.1654  1.0467  1.1869
15904TIP3   OH269202   4.199   6.326   1.887 -0.4610  0.0477  0.7176
15904TIP3    H169203   4.233   6.275   1.813 -1.0044  1.7562 -0.7910
15904TIP3    H269204   4.276   6.358   1.932 -0.0500  0.6450 -0.3534
15905TIP3   OH269205   3.303   3.367  12.776 -0.0833  0.3095 -0.6750
15905TIP3    H169206   3.320   3.420  12.697 -0.9839  0.6820 -0.6370
15905TIP3    H269207   3.234   3.306  12.749  0.2776 -0.2048 -0.4391
15906TIP3   OH269208   2.537   5.388   5.470 -0.7959  0.1561 -0.1428
15906TIP3    H169209   2.456   5.373   5.421 -1.4542 -0.6233  1.1401
15906TIP3    H269210   2.598   5.324   5.435 -1.5959 -1.1475  0.7590
15907TIP3   OH269211   3.146   5.965  12.870 -0.3315  0.4319  0.3756
15907TIP3    H169212   3.164   5.923  12.954  1.2683  2.4843  1.1434
15907TIP3    H269213   3.192   5.912  12.806 -1.0315 -0.7878  0.8363
15908TIP3   OH269214   0.021   6.730   4.282 -0.6052  0.2791  0.5458
15908TIP3    H169215   0.032   6.650   4.232 -0.5003  0.1627  0.7525
15908TIP3    H269216   0.109   6.749   4.316 -0.7758  0.0846  1.0958
15909TIP3   OH269217   0.359   3.556  15.382  0.0755 -0.2108 -0.6316
15909TIP3    H169218   0.307   3.548  15.462 -2.4534 -0.3127 -2.1681
15909TIP3    H269219   0.325   3.487  15.324  1.2538  0.3788 -2.1142
15910TIP3   OH269220   2.400   2.888   0.587  0.1033 -0.1792 -0.1570
15910TIP3    H169221   2.400   2.883   0.491  0.6618  1.0756 -0.2441
15910TIP3    H269222   2.356   2.808   0.615  0.2325 -0.7357 -1.4509
15911TIP3   OH269223   1.517   0.826   0.665  0.1864  0.1635  0.5642
15911TIP3    H169224   1.441   0.800   0.613 -0.8278 -0.4237  2.2608
15911TIP3    H269225   1.592   0.813   0.607 -0.9529  0.2553 -0.9784
15912TIP3   OH269226   5.664   4.998  15.753  0.1231 -0.4587 -0.6907
15912TIP3    H169227   5.609   5.022  15.678  2.0169  0.9579 -1.7109
15912TIP3    H269228   5.614   5.024  15.830 -0.4706  1.2319 -1.5976
15913TIP3   OH269229   2.922   3.332   3.737 -0.4886  0.6132  0.1922
15913TIP3    H169230   2.833   3.315   3.707 -0.3280 -0.1988  0.1445
15913TIP3    H269231   2.933   3.274   3.812  0.1823  0.2982 -0.1416
15914TIP3   OH269232   2.002   5.656  15.945 -0.0059  0.0638 -0.3532
15914TIP3    H169233   2.032   5.568  15.925  0.3533 -0.4361  2.0546
15914TIP3    H269234   2.017   5.706  15.865  1.5979 -1.6060 -1.1616
15915TIP3   OH269235   2.211   1.738   0.483 -0.6182  0.2193  0.2340
15915TIP3    H169236   2.153   1.813   0.494 -1.7501 -0.7198  0.9271
15915TIP3    H269237   2.174   1.670   0.540  0.3683 -0.8686 -0.3688
15916TIP3   OH269238   4.344   0.431  16.819  0.5615  0.0179  1.3226
15916TIP3    H169239   4.265   0.397  16.777  0.6338  2.0148 -0.6082
15916TIP3    H269240   4.311   0.491  16.887  0.4201  0.0222  1.2514
15917TIP3   OH269241   2.008   3.171   2.191  0.3613 -0.1698  0.6289
15917TIP3    H169242   1.948   3.206   2.126  0.8601 -1.1904 -0.3999
15917TIP3    H269243   1.959   3.174   2.273 -0.6465  0.1517  0.0273
15918TIP3   OH269244   1.846   6.384   5.127  0.9446 -0.2082 -0.2290
15918TIP3    H169245   1.827   6.303   5.080  0.8293 -0.7118  0.6720
15918TIP3    H269246   1.779   6.389   5.195  1.9836 -0.2649  0.8305
15919TIP3   OH269247   1.374   2.496   1.133 -0.9042 -0.1167 -0.4185
15919TIP3    H169248   1.287   2.489   1.172 -0.4306 -3.5249  0.4132
15919TIP3    H269249   1.393   2.407   1.103  2.9754  0.0145  1.1050
15920TIP3   OH269250   1.247   1.498   1.915 -0.3380 -0.4127  0.6785
15920TIP3    H169251   1.238   1.479   1.821  0.9122  2.2283 -0.0893
15920TIP3    H269252   1.289   1.420   1.952  0.3082 -1.0243 -1.2145
15921TIP3   OH269253   6.439   1.739  13.514 -0.0269 -0.0215  0.4142
15921TIP3    H169254   6.456   1.787  13.595  0.1349 -0.3769  0.5932
15921TIP3    H269255   6.369   1.678  13.536  1.7456 -1.9533  1.0424
15922TIP3   OH269256   6.014   4.350  16.835 -0.1279 -0.1350  0.1071
15922TIP3    H169257   5.927   4.365  16.871 -1.1766 -1.8848 -1.4941
15922TIP3    H269258   6.041   4.435  16.801 -2.3994 -0.0521 -1.7221
15923TIP3   OH269259   5.015   0.557  17.103  0.3184 -0.4695 -0.3439
15923TIP3    H169260   4.973   0.633  17.065  0.9560 -0.4428 -1.0200
15923TIP3    H269261   4.943   0.501  17.132 -0.2688 -1.2012 -2.9840
15924TIP3   OH269262   6.206   5.473   4.918  0.0165 -0.6005  0.5013
15924TIP3    H169263   6.260   5.550   4.937  0.3305 -1.1344  1.8442
15924TIP3    H269264   6.253   5.400   4.958 -0.2886 -1.5093 -0.7302
15925TIP3   OH269265   2.656   3.105   4.162  0.2050  0.4700 -0.1014
15925TIP3    H169266   2.584   3.167   4.169 -0.3730 -0.0929 -0.9483
15925TIP3    H269267   2.673   3.077   4.252 -1.3222 -0.1662  0.0140
15926TIP3   OH269268   2.084   0.173  13.965  0.1220 -0.1422  0.2997
15926TIP3    H169269   2.099   0.158  14.058 -0.2811 -0.4650  0.3172
15926TIP3    H269270   2.056   0.088  13.931  1.9827 -0.4720 -0.4840
15927TIP3   OH269271   1.998   4.614  13.327 -0.5613 -0.2480 -1.0408
15927TIP3    H169272   1.910   4.645  13.307 -0.2665  2.1787  0.8634
15927TIP3    H269273   1.990   4.518  13.329 -3.8510 -0.1161  1.6552
15928TIP3   OH269274   4.388   6.140  12.035 -0.4901 -0.0313  0.0330
15928TIP3    H169275   4.372   6.199  12.109 -2.2392 -0.7766  0.3092
15928TIP3    H269276   4.475   6.105  12.051  0.0811  1.5525  0.5014
15929TIP3   OH269277   2.265   4.097  17.061  0.0419  0.6832 -0.1809
15929TIP3    H169278   2.278   4.055  16.976 -2.1743 -1.1541  0.2698
15929TIP3    H269279   2.170   4.102  17.071  0.2457  1.1993  2.0216
15930TIP3   OH269280   3.488   0.716  14.494 -0.5638 -0.2725  0.0650
15930TIP3    H169281   3.409   0.695  14.544  0.0064 -0.0444  1.0732
15930TIP3    H269282   3.556   0.661  14.533  0.1967  0.9308  0.4605
15931TIP3   OH269283   6.162   0.545  17.123 -0.3115 -0.5141 -0.2361
15931TIP3    H169284   6.192   0.570  17.211  0.9133 -0.7246 -0.5742
15931TIP3    H269285   6.079   0.591  17.113 -0.0743  0.1776  0.7226
15932TIP3   OH269286   4.467   0.295  13.072  0.1141  0.3128  0.0014
15932TIP3    H169287   4.451   0.211  13.115  0.0964 -0.3173 -1.2092
15932TIP3    H269288   4.481   0.357  13.144 -1.1896 -0.4506  0.9318
15933TIP3   OH269289   3.227   2.509   2.973  0.2345 -0.1569 -0.1262
15933TIP3    H169290   3.203   2.433   2.921 -1.5887 -0.4465  1.0531
15933TIP3    H269291   3.201   2.487   3.062  0.8864  1.3346  0.4697
15934TIP3   OH269292   6.467   5.389  14.426  0.2045 -0.6639 -0.2799
15934TIP3    H169293   6.490   5.381  14.519  0.0747 -1.0859 -0.2847
15934TIP3    H269294   6.384   5.342  14.418 -1.2770  1.7179 -0.0324
15935TIP3   OH269295   6.536   2.986   3.764  0.3873  0.2094 -0.1574
15935TIP3    H169296   6.574   2.918   3.820 -2.0769 -0.7638  0.4579
15935TIP3    H269297   6.459   3.016   3.812  0.1147  1.7901 -1.5042
15936TIP3   OH269298   2.011   2.578  16.706  0.1067  0.3865  0.0671
15936TIP3    H169299   1.991   2.518  16.635 -0.0707 -1.6528  1.7644
15936TIP3    H269300   2.039   2.522  16.779  3.0457  2.5136  0.7925
15937TIP3   OH269301   2.005   1.810  13.115 -0.8507 -0.0825  0.2995
15937TIP3    H169302   2.071   1.823  13.048 -0.0960  0.5281  1.1280
15937TIP3    H269303   1.935   1.872  13.092 -0.0667  1.0029  0.7024
15938TIP3   OH269304   3.706   1.475  16.967 -0.0979 -0.0619 -0.0777
15938TIP3    H169305   3.652   1.402  16.998 -0.0337 -0.2262 -0.3495
15938TIP3    H269306   3.643   1.540  16.936 -0.1755  0.2444  0.6872
15939TIP3   OH269307   0.889   5.863   0.239  0.0043 -0.0994  0.0480
15939TIP3    H169308   0.903   5.771   0.263 -0.0327 -0.4135 -1.0789
15939TIP3    H269309   0.935   5.912   0.307  1.7091 -0.9972 -0.3991
15940TIP3   OH269310   4.729   4.612  10.836  0.0085  0.1862 -0.3978
15940TIP3    H169311   4.712   4.629  10.743  2.0865 -0.7911 -1.0364
15940TIP3    H269312   4.701   4.522  10.850 -2.5129  1.0595  0.5978
15941TIP3   OH269313   0.379   1.389   1.768 -0.3533  0.2227  0.2088
15941TIP3    H169314   0.378   1.366   1.675  2.3649  1.0371 -0.1059
15941TIP3    H269315   0.460   1.350   1.802 -0.3696  1.4726  1.7962
15942TIP3   OH269316   0.337   6.181  15.487  0.1123  0.6840 -0.1336
15942TIP3    H169317   0.358   6.170  15.580  0.1853 -0.0535 -0.2353
15942TIP3    H269318   0.265   6.119  15.471 -3.5268  4.2398  0.6288
15943TIP3   OH269319   0.110   2.776  17.210 -0.2693  0.4109 -0.0748
15943TIP3    H169320   0.082   2.867  17.203 -0.2978  0.4278  0.2642
15943TIP3    H269321   0.053   2.728  17.149  1.2378  0.9405 -2.0095
15944TIP3   OH269322   2.622   1.356  15.527  0.1440 -0.1390 -0.1555
15944TIP3    H169323   2.647   1.347  15.435 -0.6195 -2.3476 -0.2017
15944TIP3    H269324   2.668   1.435  15.556 -0.6111  1.4022 -2.7420
15945TIP3   OH269325   0.020   0.053   0.545 -0.1923  0.5140  0.1358
15945TIP3    H169326   0.073  -0.016   0.504  1.2759  0.5800  1.8279
15945TIP3    H269327  -0.018   0.100   0.471  3.2212  1.3218 -1.3315
15946TIP3   OH269328   1.074   1.744   1.548 -1.0727  0.4617  0.0570
15946TIP3    H169329   1.047   1.831   1.575 -1.7903  0.6142 -1.1015
15946TIP3    H269330   1.043   1.686   1.618  0.4080  1.2225  1.4027
15947TIP3   OH269331   4.071   2.866  13.719 -0.5499 -0.3429  0.3478
15947TIP3    H169332   4.100   2.828  13.802 -0.2203  1.5556  1.1712
15947TIP3    H269333   4.139   2.844  13.656  0.2848 -0.0188  1.1154
15948TIP3   OH269334   3.286   5.800  16.149  0.1279 -0.5238  0.2334
15948TIP3    H169335   3.199   5.835  16.130  0.3194 -0.0261  0.2680
15948TIP3    H269336   3.270   5.709  16.175 -0.4224 -0.3154  0.6388
15949TIP3   OH269337   0.562   0.693  10.922 -0.1563 -0.5695 -1.1178
15949TIP3    H169338   0.499   0.630  10.886  0.1878 -0.6081 -1.6734
15949TIP3    H269339   0.644   0.673  10.876  0.6745 -1.5456  0.6797
15950TIP3   OH269340   4.926   4.138  11.038  0.4304 -0.0141 -0.1619
15950TIP3    H169341   4.979   4.074  10.991  0.0865 -0.9275  0.6664
15950TIP3    H269342   4.975   4.220  11.029  0.0384  0.0335 -2.6964
15951TIP3   OH269343   1.584   6.703  11.999  0.5371  0.1949 -0.2604
15951TIP3    H169344   1.553   6.746  12.078  0.3800 -2.3028  1.1534
15951TIP3    H269345   1.655   6.757  11.967 -0.7629  2.3803  0.3694
15952TIP3   OH269346   1.397   3.119  15.059 -0.2175  0.2610  0.0616
15952TIP3    H169347   1.455   3.144  15.131  0.2119 -1.0694  0.1977
15952TIP3    H269348   1.450   3.129  14.980 -0.5336  1.2398 -0.0399
15953TIP3   OH269349   3.602   3.088   0.522 -0.5046  0.7435  0.4819
15953TIP3    H169350   3.515   3.126   0.510 -0.4933  0.0202 -2.7836
15953TIP3    H269351   3.661   3.147   0.475 -0.1601 -1.7494 -2.5496
15954TIP3   OH269352   6.645   3.074  11.747 -0.6576 -0.3592 -0.0847
15954TIP3    H169353   6.555   3.044  11.760 -1.2517  1.1305 -0.5141
15954TIP3    H269354   6.662   3.129  11.824  0.0406 -0.9569  0.1946
15955TIP3   OH269355   1.999   2.061  12.578 -0.3989  0.4340  0.2205
15955TIP3    H169356   1.927   2.001  12.599 -0.2447  0.9348  2.3558
15955TIP3    H269357   1.956   2.147  12.568 -0.3881  0.3111 -1.0211
15956TIP3   OH269358   4.433   6.190  16.127 -0.0661  0.1277  0.0117
15956TIP3    H169359   4.427   6.282  16.155 -2.1056 -0.1677  0.7070
15956TIP3    H269360   4.458   6.195  16.035 -0.2252  1.3962  0.0151
15957TIP3   OH269361   5.691   4.609  10.998  0.0413  0.8487 -0.2322
15957TIP3    H169362   5.670   4.646  10.913  0.6591  0.1736 -0.6860
15957TIP3    H269363   5.773   4.650  11.024  0.9868 -0.5000 -0.9572
15958TIP3   OH269364   1.797   5.266   6.738 -0.3294 -0.1943  0.3319
15958TIP3    H169365   1.799   5.203   6.666 -0.2737  0.2207 -0.0340
15958TIP3    H269366   1.887   5.266   6.771 -0.3414 -0.3442  0.3647
15959TIP3   OH269367   2.623   2.824   5.833 -0.0344 -0.2435  0.1166
15959TIP3    H169368   2.681   2.864   5.898  0.4136  0.4833 -0.7143
15959TIP3    H269369   2.552   2.786   5.885 -0.1898  1.1485  0.9689
15960TIP3   OH269370   3.888   4.745   5.524 -0.2166  0.1097  0.4799
15960TIP3    H169371   3.955   4.698   5.574 -1.9412 -0.4058  2.4035
15960TIP3    H269372   3.844   4.800   5.588 -1.7156  0.3700 -0.7179
15961TIP3   OH269373   4.824   5.458   4.385 -0.1205  1.0403  0.5460
15961TIP3    H169374   4.854   5.546   4.408 -0.0210  1.2974 -0.5225
15961TIP3    H269375   4.781   5.426   4.464  0.9722  1.5441  1.3691
15962TIP3   OH269376   5.117   1.439   0.234  0.4430  0.2948 -0.0963
15962TIP3    H169377   5.206   1.425   0.266 -0.2617  0.2386  2.0451
15962TIP3    H269378   5.119   1.525   0.192  1.1028  1.1789  1.6562
15963TIP3   OH269379   1.573   3.084   4.516 -0.0503 -0.4893 -0.0367
15963TIP3    H169380   1.634   3.017   4.546 -1.5863 -1.3487  1.3811
15963TIP3    H269381   1.616   3.167   4.537  0.8701 -1.0602  0.3809
15964TIP3   OH269382   6.371   3.458   3.615 -0.0739 -0.2019 -0.5452
15964TIP3    H169383   6.390   3.501   3.699 -0.1542  2.6727 -1.8826
15964TIP3    H269384   6.455   3.425   3.586  0.2175 -0.0107  0.0470
15965TIP3   OH269385   0.165   0.053  13.865  0.5977  0.0573 -0.1328
15965TIP3    H169386   0.130  -0.031  13.835  1.7715  0.2995 -2.3609
15965TIP3    H269387   0.259   0.048  13.847  1.1154  0.9293  2.0254
15966TIP3   OH269388   0.922   1.878  11.497  0.1935  0.0783  0.6324
15966TIP3    H169389   0.905   1.800  11.551  0.2558 -0.6650 -0.3939
15966TIP3    H269390   0.841   1.929  11.502 -0.0467 -0.3210  0.8752
15967TIP3   OH269391   3.679   2.387   4.342 -0.5282  0.4563  0.1974
15967TIP3    H169392   3.612   2.446   4.375  0.1181  0.7844  0.9477
15967TIP3    H269393   3.692   2.414   4.251 -2.0165 -0.1767 -0.2297
15968TIP3   OH269394   0.858   3.866  13.562  0.2121 -0.5947 -0.3280
15968TIP3    H169395   0.816   3.947  13.532  1.0938 -0.2148 -0.5673
15968TIP3    H269396   0.791   3.824  13.616  0.4328  1.3625  1.6417
15969TIP3   OH269397   1.046   3.313  17.346 -0.0565 -0.1392  0.1155
15969TIP3    H169398   1.110   3.301  17.276 -1.8399 -0.5758 -1.5530
15969TIP3    H269399   1.058   3.237  17.403 -1.6679 -2.5234 -2.4267
15970TIP3   OH269400   4.282   6.634  10.994 -0.2398 -0.0669  0.0990
15970TIP3    H169401   4.205   6.602  11.042  0.9583 -0.6153  1.7557
15970TIP3    H269402   4.356   6.590  11.036  0.9026 -0.8288 -2.4872
15971TIP3   OH269403   2.842   5.578   5.176 -0.1376  0.0569 -0.3725
15971TIP3    H169404   2.915   5.516   5.176 -0.8738 -0.8270 -0.1547
15971TIP3    H269405   2.764   5.524   5.185 -0.8012  1.0196 -0.1482
15972TIP3   OH269406   3.954   5.521  11.803  0.2460  0.2058 -0.4891
15972TIP3    H169407   3.986   5.452  11.746  0.4558  0.4310 -0.6464
15972TIP3    H269408   4.028   5.544  11.858 -0.2107 -0.6452  0.5117
15973TIP3   OH269409   5.821   1.467  12.627  0.2080 -0.4135 -0.0120
15973TIP3    H169410   5.767   1.484  12.704  0.1491  0.8271 -0.3037
15973TIP3    H269411   5.903   1.431  12.663 -0.8782 -2.6614  0.4067
15974TIP3   OH269412   0.708   4.999   1.861  0.3056  0.7088 -0.0040
15974TIP3    H169413   0.678   5.058   1.930  1.9243  1.8673 -0.2337
15974TIP3    H269414   0.758   4.931   1.907 -0.6395  0.1033  0.1571
15975TIP3   OH269415   5.163   0.276   2.561  0.8112 -0.3181 -0.1005
15975TIP3    H169416   5.177   0.184   2.537 -0.3029 -0.3841 -0.5691
15975TIP3    H269417   5.134   0.318   2.480 -0.3208  0.0640  0.4743
15976TIP3   OH269418   5.596   1.490  16.472  0.2150 -0.0165 -0.4455
15976TIP3    H169419   5.602   1.573  16.425  0.5085 -0.7223 -1.6767
15976TIP3    H269420   5.502   1.475  16.483  0.1678  0.6516  0.1208
15977TIP3   OH269421   5.597   3.210  11.353  0.3010 -0.6829 -0.3150
15977TIP3    H169422   5.620   3.285  11.298 -1.1178 -1.2047 -1.7186
15977TIP3    H269423   5.636   3.135  11.308  0.8420 -0.9164  0.5196
15978TIP3   OH269424   6.519   5.953   4.883 -0.3082 -0.5184 -0.0061
15978TIP3    H169425   6.542   5.958   4.790  0.8341 -0.5862  0.2549
15978TIP3    H269426   6.446   6.014   4.893  0.0298  0.0462 -0.8195
15979TIP3   OH269427   2.938   2.096  15.487  0.5827 -0.1616 -0.5076
15979TIP3    H169428   2.921   2.087  15.393  0.4341 -0.7865 -0.4265
15979TIP3    H269429   3.026   2.134  15.492 -0.2183  1.8790 -0.9204
15980TIP3   OH269430   0.429   0.310   1.609 -0.4600  0.9464  0.6812
15980TIP3    H169431   0.359   0.367   1.641 -0.2731  0.7623  1.4356
15980TIP3    H269432   0.420   0.230   1.661 -0.2753  0.5594  0.1247
15981TIP3   OH269433   2.476   3.986   5.813 -0.3707 -0.1686 -0.0909
15981TIP3    H169434   2.404   3.929   5.836 -0.0121 -0.7708 -0.4349
15981TIP3    H269435   2.493   3.967   5.720  1.2678 -1.2183  0.3786
15982TIP3   OH269436   5.814   4.409  14.782 -0.0566  0.2326 -0.5130
15982TIP3    H169437   5.791   4.373  14.868 -0.4554  2.1218  0.2275
15982TIP3    H269438   5.894   4.461  14.798  0.7207 -0.5879 -1.6086
15983TIP3   OH269439   4.559   3.009  11.650  0.3366 -0.4728 -0.4246
15983TIP3    H169440   4.596   2.937  11.702 -1.2548  0.8407  2.7861
15983TIP3    H269441   4.477   2.973  11.616 -1.1146  0.0400  2.2453
15984TIP3   OH269442   6.237   6.425   5.329  0.3360  0.3038  0.0674
15984TIP3    H169443   6.302   6.386   5.271  0.1885  0.5422 -0.2600
15984TIP3    H269444   6.274   6.416   5.417  1.3060  1.3940 -0.2089
15985TIP3   OH269445   4.897   2.401  13.020 -0.6859 -0.1018 -0.0959
15985TIP3    H169446   4.982   2.365  13.047  0.4146  1.5702 -1.1151
15985TIP3    H269447   4.876   2.465  13.089  0.4005  1.6194 -1.2682
15986TIP3   OH269448   5.121   4.943  14.980 -0.1349  0.3039  0.0451
15986TIP3    H169449   5.202   4.901  14.948 -0.1406 -1.3924  2.0142
15986TIP3    H269450   5.139   5.037  14.975  1.0326  0.0331 -1.7972
15987TIP3   OH269451   1.880   0.037   6.754 -0.2145  0.0608 -0.3390
15987TIP3    H169452   1.965   0.007   6.788 -0.1530 -0.8059 -1.1951
15987TIP3    H269453   1.895   0.129   6.730  0.6397 -0.2094 -0.9123
15988TIP3   OH269454   4.276   5.612  16.815  0.5681  0.7044  0.0004
15988TIP3    H169455   4.204   5.616  16.753  0.6777  3.5354 -0.0672
15988TIP3    H269456   4.352   5.645  16.767  1.2203  0.5992  0.9168
15989TIP3   OH269457   0.171   0.452  16.939 -0.4856  0.4010  0.5040
15989TIP3    H169458   0.220   0.507  17.000 -2.8891  1.8479  1.2653
15989TIP3    H269459   0.206   0.475  16.853  0.0505  1.5101  0.9875
15990TIP3   OH269460   4.321   4.269   3.193 -0.1969  0.2754 -0.2377
15990TIP3    H169461   4.230   4.253   3.218  0.0071  0.0448  0.3871
15990TIP3    H269462   4.342   4.354   3.231 -0.5056  0.8882 -1.3971
15991TIP3   OH269463   6.771   5.342  17.187  0.0742  0.2250  0.3159
15991TIP3    H169464   6.838   5.304  17.245  1.4037  2.7247  0.5694
15991TIP3    H269465   6.774   5.287  17.108  2.1316 -0.0520  0.5157
15992TIP3   OH269466   0.536   0.710  15.248  0.1537 -0.0522  0.2088
15992TIP3    H169467   0.470   0.738  15.185  0.0423 -0.7598 -0.0068
15992TIP3    H269468   0.619   0.727  15.205  0.0822 -0.3341 -0.0452
15993TIP3   OH269469   6.720   0.317  17.007 -0.1969 -0.5460 -0.0161
15993TIP3    H169470   6.813   0.337  17.003 -0.1593 -0.7444 -0.1245
15993TIP3    H269471   6.700   0.277  16.922 -0.2954 -0.8654  0.1530
15994TIP3   OH269472   5.414   6.591   5.665  0.2318 -0.5769 -0.4152
15994TIP3    H169473   5.482   6.541   5.621  0.7103 -0.2472 -0.0631
15994TIP3    H269474   5.461   6.645   5.729 -0.4756 -1.3556  0.8088
15995TIP3   OH269475   0.873   2.101   4.613  0.6852 -0.6745  0.1002
15995TIP3    H169476   0.788   2.106   4.656 -0.1660 -1.1636 -1.4564
15995TIP3    H269477   0.903   2.011   4.628  0.4821 -0.7841 -0.1418
15996TIP3   OH269478   1.166   2.149   2.816 -0.1943 -0.5108 -0.2605
15996TIP3    H169479   1.231   2.174   2.881 -1.4824 -0.9864  1.2655
15996TIP3    H269480   1.109   2.225   2.808 -0.0644 -0.4665 -0.8222
15997TIP3   OH269481   1.296   6.704   2.651 -0.5103 -0.4478  0.8521
15997TIP3    H169482   1.266   6.631   2.706 -1.3615 -0.3541  0.5325
15997TIP3    H269483   1.225   6.716   2.588  1.1138 -1.6463 -1.3566
15998TIP3   OH269484   1.546   5.438   3.874 -0.2845  0.5107 -0.7536
15998TIP3    H169485   1.604   5.514   3.868  2.0961 -1.3487 -3.8983
15998TIP3    H269486   1.596   5.372   3.921 -1.6325  0.2355  0.3720
15999TIP3   OH269487   1.096   3.469  17.064 -0.0768 -0.3291 -0.3835
15999TIP3    H169488   1.062   3.383  17.041 -0.3917 -0.0534 -0.9823
15999TIP3    H269489   1.024   3.529  17.045  0.6443  0.2417 -1.4286
16000TIP3   OH269490   3.602   0.488  15.677  0.1052  0.5930  0.3046
16000TIP3    H169491   3.693   0.508  15.698  0.0938  0.0120  0.9532
16000TIP3    H269492   3.601   0.479  15.582  0.7758  0.3962  0.3063
16001TIP3   OH269493   2.609   1.042  14.438 -0.6481 -0.3965 -0.0414
16001TIP3    H169494   2.540   0.991  14.481  0.4613 -1.4466  0.5416
16001TIP3    H269495   2.632   1.108  14.504 -1.6796  0.5329 -0.5755
16002TIP3   OH269496   5.824   2.682   4.966 -0.1719 -0.1752 -0.2304
16002TIP3    H169497   5.840   2.761   5.019  1.3098  0.2436 -1.2291
16002TIP3    H269498   5.872   2.613   5.010 -0.6508 -0.3099  0.0929
16003TIP3   OH269499   6.636   2.016  13.685  0.3055 -0.3482 -0.2317
16003TIP3    H169500   6.569   1.951  13.707  0.6334 -1.1942 -1.5789
16003TIP3    H269501   6.586   2.096  13.667 -0.3739 -0.9403 -1.1049
16004TIP3   OH269502   5.884   1.218   3.943 -0.6739 -0.7260 -0.3056
16004TIP3    H169503   5.965   1.270   3.938 -0.4760 -1.1077 -1.3048
16004TIP3    H269504   5.879   1.174   3.858 -1.8442 -0.8466 -0.1837
16005TIP3   OH269505   1.355   3.070  17.375 -0.2445  0.2441 -0.5628
16005TIP3    H169506   1.446   3.085  17.398 -0.4985  1.2262 -0.1445
16005TIP3    H269507   1.339   3.128  17.300 -0.1387 -1.0088 -1.6015
16006TIP3   OH269508   1.019   0.184  17.118  0.1137 -0.4028  0.2643
16006TIP3    H169509   0.960   0.200  17.192  0.9731 -0.7714  1.0495
16006TIP3    H269510   0.999   0.253  17.055 -2.3679 -1.5194 -0.2743
16007TIP3   OH269511   4.856   3.029  11.271 -0.6096 -0.7063  0.1580
16007TIP3    H169512   4.872   2.949  11.222  0.3699 -0.4217 -0.0194
16007TIP3    H269513   4.831   3.093  11.205  1.2429 -0.1773 -0.1018
16008TIP3   OH269514   6.154   6.561   1.618  0.3715  0.0379 -0.5013
16008TIP3    H169515   6.185   6.652   1.618  0.1629  0.1147  0.1603
16008TIP3    H269516   6.185   6.525   1.701 -0.8300 -0.0512 -0.0766
16009TIP3   OH269517   3.989   3.994  15.218  0.6865  0.3662 -0.1608
16009TIP3    H169518   3.932   3.921  15.244 -0.0621  1.0838  0.2476
16009TIP3    H269519   4.065   3.986  15.275  0.3472  0.2337  0.2810
16010TIP3   OH269520   6.782   3.288   6.741  0.7498 -0.0478  0.0063
16010TIP3    H169521   6.715   3.281   6.809  0.3659  3.9049  0.2272
16010TIP3    H269522   6.750   3.231   6.671 -1.2006 -0.7014  1.3162
16011TIP3   OH269523   2.441   6.044   0.145 -0.0441 -0.0683  0.7862
16011TIP3    H169524   2.383   6.004   0.079  1.6589 -0.1311 -0.7551
16011TIP3    H269525   2.392   6.120   0.177 -0.1508  1.2131 -2.1151
16012TIP3   OH269526   1.090   4.829  17.009 -0.0996  0.0289  0.3806
16012TIP3    H169527   1.035   4.751  17.007  1.6949 -1.3128  0.3019
16012TIP3    H269528   1.149   4.815  17.083 -0.2881  1.7232  0.8813
16013TIP3   OH269529   1.781   4.648   4.140 -0.3113  0.4105 -0.2527
16013TIP3    H169530   1.794   4.586   4.212 -1.9124  0.1969 -0.1121
16013TIP3    H269531   1.802   4.598   4.061 -1.7641 -0.4044 -0.1537
16014TIP3   OH269532   4.226   0.001  13.623 -0.0586 -0.9932 -0.1330
16014TIP3    H169533   4.238  -0.083  13.579  0.1990 -0.7165 -0.5979
16014TIP3    H269534   4.140  -0.006  13.664  0.7623 -2.2342  1.5304
16015TIP3   OH269535   5.118   2.557  16.957  0.8182  0.1184  0.6434
16015TIP3    H169536   5.078   2.635  16.995 -1.3633 -0.5191 -0.1384
16015TIP3    H269537   5.138   2.501  17.032  0.7372  0.6970  1.1001
16016TIP3   OH269538   3.593   4.724   1.657 -0.3975  0.7868  0.3847
16016TIP3    H169539   3.646   4.691   1.730 -0.3185 -0.3443 -0.1661
16016TIP3    H269540   3.602   4.819   1.662  0.0876  0.7042  1.4864
16017TIP3   OH269541   0.673   0.376  14.718  0.8984  0.4777  0.0862
16017TIP3    H169542   0.653   0.356  14.626  2.1017  0.7868 -0.2629
16017TIP3    H269543   0.684   0.291  14.760  0.9988  0.3405 -0.2164
16018TIP3   OH269544   3.348   2.893  13.698  0.4406 -0.5010 -0.1339
16018TIP3    H169545   3.400   2.973  13.697  0.8234 -0.7102 -2.4435
16018TIP3    H269546   3.273   2.913  13.642  0.9412 -1.9492 -1.3906
16019TIP3   OH269547   2.550   1.582   1.037  0.1124 -0.2011  0.2316
16019TIP3    H169548   2.487   1.611   1.103  0.8832  1.6954  0.1843
16019TIP3    H269549   2.526   1.630   0.958  0.4904 -0.8651 -0.2969
16020TIP3   OH269550   4.958   2.438   5.816  0.5129  0.2537  0.8773
16020TIP3    H169551   4.925   2.360   5.772 -0.5475  2.4394 -2.5360
16020TIP3    H269552   4.879   2.486   5.843  1.1213  0.6586  2.0113
16021TIP3   OH269553   4.733   4.856  15.396  1.1174 -0.1852 -0.0028
16021TIP3    H169554   4.764   4.832  15.309  0.9257  0.8335 -0.3651
16021TIP3    H269555   4.691   4.776  15.429  4.9686 -2.0648  0.9809
16022TIP3   OH269556   0.393   5.258  16.663 -0.0935  0.4373  0.4081
16022TIP3    H169557   0.353   5.177  16.634 -0.9238  0.8330  0.4256
16022TIP3    H269558   0.403   5.249  16.757 -0.9025  0.6634  0.5177
16023TIP3   OH269559   3.791   3.058  12.543  0.4207 -0.2743  0.0036
16023TIP3    H169560   3.879   3.027  12.524  1.4270  1.5259  1.4720
16023TIP3    H269561   3.761   3.100  12.462  2.0446  1.5519  0.2924
16024TIP3   OH269562   4.697   4.986   3.569 -0.2073  0.1559 -0.6748
16024TIP3    H169563   4.647   5.065   3.591  0.1846  0.6432 -1.4870
16024TIP3    H269564   4.712   4.992   3.475 -0.0481 -0.8254 -0.7226
16025TIP3   OH269565   1.632   5.516   1.790  0.2314 -0.4577 -0.4866
16025TIP3    H169566   1.661   5.501   1.880  0.0695 -0.8718 -0.5021
16025TIP3    H269567   1.537   5.523   1.795  0.0367 -2.2377 -0.8374
16026TIP3   OH269568   3.533   3.889   2.772 -0.6023 -0.5291  0.4682
16026TIP3    H169569   3.538   3.982   2.793 -0.3426 -0.4837  0.2206
16026TIP3    H269570   3.588   3.879   2.694  0.1239 -1.0446  1.0188
16027TIP3   OH269571   2.922   5.908  14.396  0.1126  0.5350  0.0609
16027TIP3    H169572   2.985   5.980  14.404  0.3272  0.4627 -0.9022
16027TIP3    H269573   2.965   5.833  14.437 -0.5827  1.2107  2.1576
16028TIP3   OH269574   2.853   3.198   0.096 -0.4705 -0.1380  0.6042
16028TIP3    H169575   2.825   3.191   0.005 -1.5083  1.1114  0.8011
16028TIP3    H269576   2.776   3.227   0.144  0.3120  0.1960  1.7237
16029TIP3   OH269577   1.928   0.493  13.887 -1.5441  0.0486 -0.4480
16029TIP3    H169578   1.962   0.413  13.846 -1.8523  0.8633 -2.3875
16029TIP3    H269579   1.851   0.464  13.936 -0.4410 -1.1571  0.6510
16030TIP3   OH269580   3.302   3.749   1.873 -0.0850  0.2963  0.0890
16030TIP3    H169581   3.236   3.813   1.899 -0.0448 -0.0218  1.0230
16030TIP3    H269582   3.365   3.749   1.945  1.3755  1.1633 -1.1340
16031TIP3   OH269583   0.345   0.333  15.924 -0.9755  0.7614  0.4375
16031TIP3    H169584   0.310   0.303  15.840  1.1146 -3.9831  0.9491
16031TIP3    H269585   0.270   0.326  15.984 -1.4225 -0.4092 -0.2040
16032TIP3   OH269586   1.062   2.133  13.967 -0.0706  0.5416  0.8651
16032TIP3    H169587   1.022   2.046  13.967  2.4508 -0.7666 -0.6731
16032TIP3    H269588   1.061   2.160  13.875 -0.3695  1.9483  1.2601
16033TIP3   OH269589   3.694   1.964   1.113 -0.4169  0.4064  0.3688
16033TIP3    H169590   3.672   1.890   1.170 -1.3805  0.1254 -0.3460
16033TIP3    H269591   3.777   1.939   1.072  0.0487  0.4110  1.2838
16034TIP3   OH269592   1.384   0.307   3.849  0.6739  0.1469  0.3738
16034TIP3    H169593   1.396   0.264   3.764  2.2906  1.0059  0.1158
16034TIP3    H269594   1.345   0.240   3.905 -0.0951 -0.5396 -0.9475
16035TIP3   OH269595   0.336   3.535   3.251 -0.0190  0.1760 -0.0468
16035TIP3    H169596   0.273   3.606   3.259 -0.3860  0.0564 -1.6458
16035TIP3    H269597   0.298   3.474   3.188  0.7757 -0.9273  0.4775
16036TIP3   OH269598   4.631   1.960  13.366 -0.5118 -0.7432 -0.5335
16036TIP3    H169599   4.538   1.939  13.354 -0.6986 -0.0903 -0.2573
16036TIP3    H269600   4.664   1.889  13.422 -0.3660 -2.0555 -2.2151
16037TIP3   OH269601   4.886   3.297   2.746  0.5192 -0.1691 -0.0721
16037TIP3    H169602   4.910   3.211   2.713 -0.8858 -0.4964 -0.3299
16037TIP3    H269603   4.791   3.303   2.731  0.0421  0.2351  2.6130
16038TIP3   OH269604   1.257   2.847   0.499  0.3816  0.1502  0.1306
16038TIP3    H169605   1.233   2.782   0.565  0.4598 -0.1052 -0.0882
16038TIP3    H269606   1.260   2.797   0.417  0.8449  0.3488  0.0269
16039TIP3   OH269607   5.085   1.235   3.527  0.3758  0.3783 -0.0073
16039TIP3    H169608   5.016   1.186   3.482  0.5973 -0.4588  0.5587
16039TIP3    H269609   5.145   1.261   3.457  0.3061 -0.2319 -0.3021
16040TIP3   OH269610   1.256   5.593   6.507  0.0194 -0.3039  0.7567
16040TIP3    H169611   1.312   5.581   6.584  0.2469 -0.0146  0.6393
16040TIP3    H269612   1.193   5.521   6.511 -1.4146  0.9668  2.4347
16041TIP3   OH269613   0.481   0.006   4.226  0.4818 -0.2432  0.2101
16041TIP3    H169614   0.397  -0.007   4.181  1.2177 -0.9528 -1.0184
16041TIP3    H269615   0.487   0.100   4.239  0.2147 -0.0152 -1.1525
16042TIP3   OH269616   2.281   3.865  13.556 -0.4522  0.0736  0.1950
16042TIP3    H169617   2.251   3.812  13.630 -0.8709 -0.3288 -0.2530
16042TIP3    H269618   2.372   3.886  13.577 -0.7213  0.4283  1.0822
16043TIP3   OH269619   0.540   3.442   6.037 -0.0022  0.2785  0.1720
16043TIP3    H169620   0.452   3.405   6.041  0.3735 -0.6359  0.1320
16043TIP3    H269621   0.548   3.476   5.948 -0.3480  0.4486  0.2053
16044TIP3   OH269622   0.802   0.237  15.517 -0.3031 -0.1265 -0.1124
16044TIP3    H169623   0.811   0.325  15.553  0.3049 -0.4450  0.5433
16044TIP3    H269624   0.711   0.231  15.490  0.1152  1.4440 -2.1777
16045TIP3   OH269625   3.932   1.568  15.185 -0.5552  0.2620  0.5159
16045TIP3    H169626   3.913   1.560  15.278 -0.9603  1.6615  0.5745
16045TIP3    H269627   3.961   1.659  15.174  2.4304 -0.6795 -0.2239
16046TIP3   OH269628   3.134   2.727   1.831  0.7834  0.0789  0.3722
16046TIP3    H169629   3.094   2.753   1.749 -2.9549  3.6013  2.9343
16046TIP3    H269630   3.090   2.645   1.855  2.4106 -1.3632 -1.2828
16047TIP3   OH269631   5.374   2.072  14.720 -0.0762  0.5334  0.4017
16047TIP3    H169632   5.413   1.985  14.728 -1.2313 -0.1091 -0.5910
16047TIP3    H269633   5.366   2.103  14.810 -1.1202 -1.0782  0.9162
16048TIP3   OH269634   6.106   3.716   1.301 -0.5647 -0.4873  0.0353
16048TIP3    H169635   6.032   3.762   1.261 -0.5958 -3.1108 -3.3570
16048TIP3    H269636   6.179   3.730   1.240  0.0529 -2.8146  0.1537
16049TIP3   OH269637   0.297   4.942   3.333 -0.4348 -0.0550  0.4110
16049TIP3    H169638   0.286   4.872   3.397  0.6715 -0.1417  0.5252
16049TIP3    H269639   0.237   5.011   3.363 -0.1118 -0.1877  1.4195
16050TIP3   OH269640   2.256   2.914  12.611  0.4937  0.0433 -0.0017
16050TIP3    H169641   2.277   2.848  12.545  1.8779  0.4752 -0.0096
16050TIP3    H269642   2.310   2.989  12.589 -1.3519  1.3568 -0.2184
16051TIP3   OH269643   0.733   5.939  13.088  0.1613 -0.0016 -0.1089
16051TIP3    H169644   0.662   5.895  13.040 -0.7609  1.0535  0.2560
16051TIP3    H269645   0.753   6.017  13.037 -2.1433  2.1860  2.0487
16052TIP3   OH269646   3.569   1.131  14.544 -0.4312 -0.3542 -0.0575
16052TIP3    H169647   3.607   1.053  14.504  2.6619 -0.2370  2.2449
16052TIP3    H269648   3.524   1.176  14.473  1.7192 -1.8938 -2.5327
16053TIP3   OH269649   0.127   3.414  16.086 -0.0299 -0.7722 -0.3543
16053TIP3    H169650   0.082   3.479  16.032  1.2142  1.8428  1.4949
16053TIP3    H269651   0.160   3.464  16.160  2.7096 -3.1919  0.2508
16054TIP3   OH269652   4.201   0.205   1.679 -0.3249  0.2497 -0.0006
16054TIP3    H169653   4.142   0.156   1.622 -0.0401 -0.4279  0.2770
16054TIP3    H269654   4.285   0.203   1.634  0.1932 -1.3012  0.9787
16055TIP3   OH269655   5.216   5.901  15.810  0.0749  0.4716 -0.0297
16055TIP3    H169656   5.136   5.939  15.771 -0.0384  0.3449  0.0785
16055TIP3    H269657   5.191   5.881  15.900  0.4738  1.1952  0.2539
16056TIP3   OH269658   4.443   0.757   0.148  0.7376 -0.1483 -0.1841
16056TIP3    H169659   4.361   0.770   0.196  2.1410 -0.3991  2.4779
16056TIP3    H269660   4.476   0.846   0.133 -0.0569 -0.0421 -1.3841
16057TIP3   OH269661   1.413   4.325   4.622 -0.0207  0.2259 -0.2355
16057TIP3    H169662   1.435   4.384   4.694  2.4646  1.5365 -1.9185
16057TIP3    H269663   1.403   4.239   4.664  0.0749  1.1454  1.7955
16058TIP3   OH269664   2.695   1.395  12.196  0.4846  0.0721 -0.0759
16058TIP3    H169665   2.764   1.342  12.236  1.9186  1.9902  0.1497
16058TIP3    H269666   2.699   1.478  12.243 -0.3181  1.0896 -1.7158
16059TIP3   OH269667   4.058   1.795  17.114 -0.0069 -0.1163 -0.2002
16059TIP3    H169668   3.993   1.843  17.063  0.8032  0.3218 -0.8496
16059TIP3    H269669   4.023   1.706  17.121 -1.7117  0.6028  1.3320
16060TIP3   OH269670   0.252   2.620   3.801  0.0615 -0.2068  0.0677
16060TIP3    H169671   0.163   2.591   3.783  0.0552 -0.9838  1.2207
16060TIP3    H269672   0.246   2.715   3.810 -0.4838 -0.1590 -0.6840
16061TIP3   OH269673   0.392   3.353  15.716 -0.0911  0.2610 -0.3619
16061TIP3    H169674   0.333   3.391  15.651  0.9721 -0.0914 -1.5942
16061TIP3    H269675   0.429   3.275  15.672 -2.1688 -2.2721  2.0438
16062TIP3   OH269676   0.351   1.123  13.211  0.4834  0.4944 -0.1436
16062TIP3    H169677   0.275   1.075  13.246  1.1018 -0.1875  0.3056
16062TIP3    H269678   0.404   1.143  13.288 -0.6086  3.5490 -0.0492
16063TIP3   OH269679   4.476   3.397   0.667  0.0129  0.5528  0.5907
16063TIP3    H169680   4.440   3.345   0.594 -0.1135 -1.8573  2.2654
16063TIP3    H269681   4.533   3.461   0.624  0.5993 -1.2965 -1.6138
16064TIP3   OH269682   2.383   1.400  17.127  0.1583  0.7294  1.1622
16064TIP3    H169683   2.304   1.393  17.072  1.1236  0.6290 -0.2535
16064TIP3    H269684   2.352   1.381  17.216 -1.4446  0.8763  0.6673
16065TIP3   OH269685   1.884   2.567  11.915 -0.1108 -0.0306 -1.0712
16065TIP3    H169686   1.856   2.608  11.997  0.3095  1.7457 -1.7620
16065TIP3    H269687   1.859   2.630  11.848  1.8339 -0.2393 -2.0625
16066TIP3   OH269688   4.989   1.649  12.445  0.2213  0.0166 -0.2532
16066TIP3    H169689   4.931   1.577  12.472 -1.3046  0.5163 -2.0022
16066TIP3    H269690   5.062   1.605  12.402  0.2564 -0.5561  0.3709
16067TIP3   OH269691   3.486   3.661   1.107  0.1562  0.4843 -0.3544
16067TIP3    H169692   3.404   3.700   1.135  0.6991 -0.7858  3.5995
16067TIP3    H269693   3.554   3.718   1.143  0.9803 -0.3972 -0.4539
16068TIP3   OH269694   1.206   1.708   3.653 -0.1427 -0.2550 -0.1441
16068TIP3    H169695   1.200   1.613   3.647  0.9798 -0.3920  0.5300
16068TIP3    H269696   1.138   1.732   3.716 -0.6835 -0.5636 -0.6043
16069TIP3   OH269697   0.776   4.561  13.427  0.0163  0.0009 -0.5183
16069TIP3    H169698   0.832   4.635  13.405  0.0924 -0.2988 -1.3673
16069TIP3    H269699   0.831   4.484  13.412 -0.3953 -0.2687 -0.6579
16070TIP3   OH269700   5.546   3.725  13.389  0.2194  0.5175  0.4924
16070TIP3    H169701   5.455   3.753  13.378  0.3425  0.6994 -0.1531
16070TIP3    H269702   5.592   3.803  13.420  0.5041  0.9833 -1.0134
16071TIP3   OH269703   0.322   0.243   3.656 -0.5470  0.4040 -0.1472
16071TIP3    H169704   0.261   0.224   3.584  0.8067 -0.2482 -1.1687
16071TIP3    H269705   0.392   0.294   3.616  1.4769 -1.9954  0.0637
16072TIP3   OH269706   4.595   6.734  15.091  0.0355  0.0550 -0.1266
16072TIP3    H169707   4.623   6.717  15.001 -0.3376  0.3175 -0.2960
16072TIP3    H269708   4.635   6.665  15.143  0.7149  0.2243 -0.4151
16073TIP3   OH269709   0.951   2.473  17.043  0.7846 -0.5608  0.0415
16073TIP3    H169710   1.024   2.416  17.016  0.8384 -1.1615  1.3685
16073TIP3    H269711   0.976   2.502  17.131 -1.5393 -2.5424  1.4830
16074TIP3   OH269712   5.002   0.583   4.677 -0.1088 -0.3568 -0.1356
16074TIP3    H169713   5.030   0.492   4.670  0.6128 -0.1204 -0.4831
16074TIP3    H269714   4.912   0.583   4.646 -0.9882 -1.3557  2.2621
16075TIP3   OH269715   1.709   0.784   2.997  0.2840 -0.0611  0.6657
16075TIP3    H169716   1.709   0.822   3.084 -0.7791 -0.0968  0.6883
16075TIP3    H269717   1.618   0.786   2.969  0.6559  0.2902 -0.5984
16076TIP3   OH269718   3.501   4.366   2.226 -0.9372 -0.4586 -0.0929
16076TIP3    H169719   3.488   4.421   2.302  0.8424 -0.1763  0.0587
16076TIP3    H269720   3.457   4.284   2.247  0.0133 -0.5988  1.5119
16077TIP3   OH269721   5.784   4.561  13.370  0.9007 -0.2621 -0.5181
16077TIP3    H169722   5.868   4.598  13.398  0.4062  0.6033 -0.1329
16077TIP3    H269723   5.796   4.466  13.374  1.4747 -0.1471  0.7222
16078TIP3   OH269724   4.242   5.151  14.511  0.5394  0.3360  0.4155
16078TIP3    H169725   4.282   5.067  14.484  2.5686  1.0605  0.9364
16078TIP3    H269726   4.275   5.165  14.600 -0.7307  1.1405  0.7815
16079TIP3   OH269727   3.135   6.802   1.548 -0.6205  0.0466 -0.0868
16079TIP3    H169728   3.163   6.744   1.477  0.3558  3.1606 -2.5060
16079TIP3    H269729   3.059   6.759   1.586  1.3577 -3.8682 -0.0457
16080TIP3   OH269730   3.799   6.072   4.198 -0.3940 -0.3446  0.2157
16080TIP3    H169731   3.878   6.045   4.245 -0.7247 -0.9216  0.4500
16080TIP3    H269732   3.790   6.008   4.127  0.7562  1.1838 -1.4092
16081TIP3   OH269733   6.054   0.103  17.167 -0.0117 -0.3090 -0.0150
16081TIP3    H169734   6.125   0.167  17.175 -0.2360 -0.2439  1.7639
16081TIP3    H269735   6.051   0.083  17.073  1.2130  0.9714 -0.3682
16082TIP3   OH269736   6.430   1.357  13.705 -0.6389 -0.1019  0.2962
16082TIP3    H169737   6.372   1.325  13.636 -1.2618  1.2936  0.1353
16082TIP3    H269738   6.424   1.453  13.699 -0.8231  0.0623  2.3731
16083TIP3   OH269739   5.243   3.780   0.449  0.3825 -0.7708 -0.0138
16083TIP3    H169740   5.172   3.718   0.430  0.6154 -2.0107  2.7253
16083TIP3    H269741   5.214   3.862   0.410 -2.5125 -1.2754  0.8505
16084TIP3   OH269742   1.010   6.642   2.102 -0.2078 -0.0220 -0.0652
16084TIP3    H169743   0.969   6.727   2.117  2.8497  2.0400 -2.1049
16084TIP3    H269744   1.055   6.623   2.184 -2.2107 -0.5391  0.9540
16085TIP3   OH269745   3.049   0.904   1.653  0.2812  0.2293 -0.2381
16085TIP3    H169746   2.955   0.905   1.670 -0.0653 -0.8373 -1.8876
16085TIP3    H269747   3.068   0.991   1.617  0.2793  1.0490  1.6297
16086TIP3   OH269748   0.626   5.526  15.604  0.1591 -0.4451 -0.1720
16086TIP3    H169749   0.584   5.520  15.689 -0.3763  0.1483 -0.3849
16086TIP3    H269750   0.576   5.466  15.548 -0.1828 -0.0152 -0.3336
16087TIP3   OH269751   0.646   3.371  15.817 -0.6708  0.6194 -0.0523
16087TIP3    H169752   0.639   3.369  15.912 -2.1487 -2.4169 -0.0937
16087TIP3    H269753   0.555   3.375  15.786 -0.1926  2.1838 -1.3771
16088TIP3   OH269754   6.599   3.967  11.069  0.2208 -0.2900 -0.2469
16088TIP3    H169755   6.557   4.021  11.136  0.1701 -1.2379  0.4915
16088TIP3    H269756   6.554   3.883  11.074  1.4357 -0.9581 -0.2147
16089TIP3   OH269757   4.321   2.145  14.400 -0.0297 -0.0793 -0.0283
16089TIP3    H169758   4.409   2.183  14.390 -0.4145  0.7430 -0.4097
16089TIP3    H269759   4.262   2.213  14.366 -1.0023  0.4390  2.4943
16090TIP3   OH269760   4.964   1.346   1.360 -0.2088  0.6759 -0.0878
16090TIP3    H169761   4.943   1.404   1.434 -0.8559  0.3494 -0.0078
16090TIP3    H269762   4.927   1.262   1.384  0.0950  0.4115 -0.5295
16091TIP3   OH269763   2.559   1.061   4.853  0.1979  0.3581  0.6645
16091TIP3    H169764   2.605   1.143   4.869 -1.1576  0.6345  4.1597
16091TIP3    H269765   2.597   1.000   4.917  0.6660 -1.5841 -1.3496
16092TIP3   OH269766   4.327   0.334  16.492  0.0615  0.4015  0.3251
16092TIP3    H169767   4.386   0.306  16.562  1.5645  0.2078 -0.9526
16092TIP3    H269768   4.240   0.308  16.522  0.8566 -1.2091  1.3788
16093TIP3   OH269769   1.915   6.252   6.549  0.0521 -0.3123  0.1639
16093TIP3    H169770   1.872   6.166   6.557 -1.1680  0.2927  0.3834
16093TIP3    H269771   1.902   6.294   6.634  2.0583 -0.5021  0.6173
16094TIP3   OH269772   4.411   2.458   3.290  0.0214  0.7025  0.2775
16094TIP3    H169773   4.482   2.394   3.282  0.2727  0.6668  2.1864
16094TIP3    H269774   4.367   2.434   3.371 -3.3228 -0.3182 -1.6712
16095TIP3   OH269775   3.554   5.694  16.188 -0.1650  0.3087  0.5476
16095TIP3    H169776   3.508   5.723  16.266 -1.1137 -0.5082  0.3226
16095TIP3    H269777   3.588   5.608  16.210 -0.6405 -0.0313  0.0059
16096TIP3   OH269778   2.506   0.263   4.970  0.4199 -0.1521 -0.4959
16096TIP3    H169779   2.560   0.186   4.950  1.2228 -0.1394  1.4641
16096TIP3    H269780   2.416   0.229   4.973  0.5625 -0.6491 -1.3634
16097TIP3   OH269781   5.801   6.750   4.231  0.1383  0.0916 -0.2942
16097TIP3    H169782   5.730   6.810   4.254 -0.1034  0.4630 -1.8795
16097TIP3    H269783   5.846   6.734   4.313 -2.6320 -1.3324  1.0877
16098TIP3   OH269784   1.261   3.763   3.572 -0.1384  0.0146 -0.3832
16098TIP3    H169785   1.293   3.694   3.514 -0.8131  1.2852 -2.3860
16098TIP3    H269786   1.328   3.832   3.565  0.0854 -0.0512  0.8812
16099TIP3   OH269787   6.148   3.107  13.688  0.2567 -0.4899 -1.2347
16099TIP3    H169788   6.110   3.182  13.642  1.2910  1.2067  0.5320
16099TIP3    H269789   6.094   3.098  13.767  0.9429 -0.7475 -0.7857
16100TIP3   OH269790   2.920   5.475   5.543 -0.2866 -0.2503 -0.2746
16100TIP3    H169791   2.885   5.530   5.473  0.7074 -0.3176 -0.8414
16100TIP3    H269792   2.863   5.491   5.617  0.6528  2.4599 -0.0435
16101TIP3   OH269793   4.663   2.844  14.982 -0.1322 -0.1522  0.5666
16101TIP3    H169794   4.635   2.786  15.053 -1.5418 -2.6288 -1.7988
16101TIP3    H269795   4.701   2.785  14.917 -0.0128  1.8362 -1.2790
16102TIP3   OH269796   5.978   4.599   5.482 -0.6046 -0.2297 -0.5767
16102TIP3    H169797   5.996   4.690   5.506  0.6057 -0.5505 -0.2275
16102TIP3    H269798   5.946   4.559   5.563 -0.7524 -0.2183 -0.6287
16103TIP3   OH269799   4.718   0.070  15.287 -0.0690 -0.1043  0.6478
16103TIP3    H169800   4.643   0.130  15.293  0.9100  1.6461 -2.3641
16103TIP3    H269801   4.689   0.002  15.226  0.1332 -0.5492  1.0475
16104TIP3   OH269802   3.811   5.998   3.335  0.1998 -0.2728  0.2136
16104TIP3    H169803   3.883   5.940   3.310  0.9522  0.5437  0.4401
16104TIP3    H269804   3.834   6.030   3.422 -1.0768 -0.9882  0.8531
16105TIP3   OH269805   2.589   4.327  12.995 -0.3666  0.0174  0.1316
16105TIP3    H169806   2.503   4.287  13.010 -0.0957 -0.1631  1.2279
16105TIP3    H269807   2.570   4.404  12.942 -1.0529 -0.7480 -0.7833
16106TIP3   OH269808   3.349   1.832   5.188  0.4217  0.2319  0.3729
16106TIP3    H169809   3.361   1.767   5.119  0.7980 -0.9577  1.5043
16106TIP3    H269810   3.255   1.847   5.192  0.4552  0.8519 -0.8520
16107TIP3   OH269811   5.331   0.928  16.845 -0.8524  0.4604 -0.1219
16107TIP3    H169812   5.344   0.910  16.752 -2.6423  0.1690 -0.3661
16107TIP3    H269813   5.262   0.867  16.872 -0.1809  0.3469  1.4853
16108TIP3   OH269814   0.978   5.501  13.609 -0.4073  0.1889  0.4888
16108TIP3    H169815   1.069   5.529  13.600 -0.7221  1.4035  0.8851
16108TIP3    H269816   0.961   5.451  13.530  1.0674 -1.4275  1.1296
16109TIP3   OH269817   0.824   4.152   2.028  0.0447  0.6717  0.6099
16109TIP3    H169818   0.850   4.068   1.991 -1.9734  0.5317 -0.6181
16109TIP3    H269819   0.771   4.129   2.104 -1.1480  0.7840 -0.1688
16110TIP3   OH269820   4.057   3.600   1.792 -0.1458  0.0624 -0.1972
16110TIP3    H169821   4.048   3.567   1.703  0.5959  1.7782 -0.9495
16110TIP3    H269822   3.986   3.664   1.801  0.9215  1.3073 -0.2695
16111TIP3   OH269823   5.397   2.245   3.579  0.1459  0.5657  0.5661
16111TIP3    H169824   5.333   2.178   3.603  1.8703 -1.0814  0.7423
16111TIP3    H269825   5.438   2.270   3.662  0.2174  1.0930  0.3730
16112TIP3   OH269826   4.573   2.656  15.194 -0.0495  0.0538  0.6610
16112TIP3    H169827   4.505   2.601  15.155  0.5299 -0.7629  0.7710
16112TIP3    H269828   4.552   2.656  15.288 -0.0613  0.0275  0.6593
16113TIP3   OH269829   5.443   1.969   4.141 -0.0673  0.1339 -0.1845
16113TIP3    H169830   5.416   1.951   4.230 -0.5253  0.4621 -0.2543
16113TIP3    H269831   5.436   1.885   4.096  4.0129 -1.0810  1.0075
16114TIP3   OH269832   5.628   5.968  12.911 -0.1320  0.2050 -0.2197
16114TIP3    H169833   5.635   6.020  12.831  1.5312 -1.0928 -0.9984
16114TIP3    H269834   5.682   5.890  12.893 -0.4231 -0.5268  1.8454
16115TIP3   OH269835   6.758   3.038   4.974  0.3696  0.1920 -0.1620
16115TIP3    H169836   6.827   2.972   4.979  1.5987  1.0539 -3.2646
16115TIP3    H269837   6.688   3.004   5.030  2.7484 -1.3437  2.0918
16116TIP3   OH269838   5.366   1.826  13.263 -0.2704 -0.3940 -0.3152
16116TIP3    H169839   5.390   1.900  13.319 -0.6961 -0.6373  0.1987
16116TIP3    H269840   5.392   1.748  13.313 -2.2261 -0.6745  0.3469
16117TIP3   OH269841   0.900   0.013  15.323 -0.1852 -0.6810  0.4032
16117TIP3    H169842   0.879  -0.068  15.368  3.0675 -1.0282  1.5849
16117TIP3    H269843   0.889   0.082  15.389 -0.0923 -0.5562  0.2916
16118TIP3   OH269844   3.564   6.529   5.114  0.2901 -0.5281  0.4081
16118TIP3    H169845   3.646   6.482   5.102 -0.3667 -1.4796 -0.5388
16118TIP3    H269846   3.502   6.484   5.057 -1.4659 -1.2748  2.7560
16119TIP3   OH269847   6.113   1.697  12.625 -0.4172  0.4307 -0.4183
16119TIP3    H169848   6.189   1.670  12.677 -1.2930  0.4752  0.9353
16119TIP3    H269849   6.095   1.622  12.568 -0.5480 -0.3812  0.6566
16120TIP3   OH269850   4.029   0.179   3.868 -0.2520  0.0763  0.3858
16120TIP3    H169851   4.053   0.253   3.924 -0.9428 -0.0178  0.8141
16120TIP3    H269852   4.090   0.185   3.795 -0.6295  1.3830  0.1459
16121TIP3   OH269853   2.199   6.767  11.991  0.5714  0.0756  0.3115
16121TIP3    H169854   2.242   6.698  11.941  0.7608  0.4780 -0.0837
16121TIP3    H269855   2.150   6.818  11.927 -0.2077 -0.1507  0.7061
16122TIP3   OH269856   5.747   1.878   2.830  0.1517  0.4161  0.1488
16122TIP3    H169857   5.752   1.955   2.887 -0.6677  0.3969  0.2480
16122TIP3    H269858   5.798   1.903   2.753 -2.1145  2.0318 -0.9322
16123TIP3   OH269859   3.815   0.559  10.476 -0.1939 -0.7925 -0.7652
16123TIP3    H169860   3.773   0.643  10.457 -1.1173 -1.5059 -2.0914
16123TIP3    H269861   3.742   0.498  10.487  0.4745 -1.6194 -0.8396
16124TIP3   OH269862   5.743   1.412   2.936 -0.1235  0.0469 -0.3146
16124TIP3    H169863   5.786   1.420   3.021  0.4192 -1.3701 -0.4256
16124TIP3    H269864   5.789   1.475   2.880  1.4519 -0.9943 -0.2692
16125TIP3   OH269865   5.288   3.213  15.276 -0.3683  0.4457 -0.0421
16125TIP3    H169866   5.227   3.285  15.263  0.6887  1.2485 -0.7648
16125TIP3    H269867   5.293   3.170  15.190 -1.6087 -1.0369  0.5750
16126TIP3   OH269868   0.016   0.642  10.513  0.0035 -0.2859  0.6083
16126TIP3    H169869   0.065   0.568  10.478  1.4018  0.5073  0.7860
16126TIP3    H269870  -0.027   0.608  10.592 -0.4919 -1.2346 -0.0600
16127TIP3   OH269871   0.987   0.247   3.581  0.0651  0.0757 -0.1746
16127TIP3    H169872   1.018   0.275   3.495 -1.2818  0.2410 -0.6256
16127TIP3    H269873   0.982   0.152   3.575  0.9417 -0.0033  0.0839
16128TIP3   OH269874   5.152   1.599   2.419  0.0415 -0.1942 -0.1212
16128TIP3    H169875   5.057   1.597   2.430  0.2727 -1.1690  2.6650
16128TIP3    H269876   5.180   1.677   2.466  0.6812 -0.4892  0.0072
16129TIP3   OH269877   3.728   0.168  12.877 -0.3789  0.0487  0.4549
16129TIP3    H169878   3.646   0.123  12.896  1.1089 -2.4469  1.5618
16129TIP3    H269879   3.783   0.101  12.836  1.1405  1.6214 -0.2183
16130TIP3   OH269880   2.322   3.961  13.828 -0.1083 -0.1131  0.8968
16130TIP3    H169881   2.400   4.016  13.816  0.4939 -1.2353 -0.7876
16130TIP3    H269882   2.352   3.889  13.883  0.3755 -1.0509 -0.5208
16131TIP3   OH269883   2.388   3.471  14.072  0.3215 -0.2764  0.3165
16131TIP3    H169884   2.387   3.415  14.149  0.3265 -0.7102  0.0032
16131TIP3    H269885   2.480   3.478  14.048  0.5535  1.4934  1.5158
16132TIP3   OH269886   2.331   2.820   2.723  0.6168  0.7481  0.3295
16132TIP3    H169887   2.393   2.816   2.796 -1.6905 -2.1995  2.3499
16132TIP3    H269888   2.367   2.759   2.658  0.4454 -0.0703  0.9919
16133TIP3   OH269889   0.034   1.734   3.291  0.0046 -0.5104  0.4218
16133TIP3    H169890   0.104   1.705   3.350 -0.3278  1.7044  2.0123
16133TIP3    H269891   0.080   1.760   3.211  0.9922  0.5223  1.2911
16134TIP3   OH269892   5.126   2.750   0.583  0.4410  0.2733 -0.4184
16134TIP3    H169893   5.149   2.791   0.500  1.7625  2.6893  1.0433
16134TIP3    H269894   5.165   2.806   0.649 -0.9023 -1.3528  1.8853
16135TIP3   OH269895   3.440   2.763  14.813  0.1994  0.1694  0.1326
16135TIP3    H169896   3.440   2.683  14.760  1.1921 -0.3582  0.9128
16135TIP3    H269897   3.529   2.796  14.806  0.0964  0.5889  0.7419
16136TIP3   OH269898   2.915   6.680   1.635  0.4504  0.1859  0.2905
16136TIP3    H169899   2.884   6.596   1.603 -0.9005  0.7228  0.1401
16136TIP3    H269900   2.892   6.680   1.728  1.4839 -0.0711  0.5530
16137TIP3   OH269901   6.016   1.409   1.900  0.0275 -0.6337 -0.1350
16137TIP3    H169902   6.047   1.323   1.927  2.2536  0.5613  1.4253
16137TIP3    H269903   6.054   1.423   1.813  2.0098 -0.1536  0.7692
16138TIP3   OH269904   3.922   2.010   2.623  0.0968 -0.2373 -0.9792
16138TIP3    H169905   3.884   1.950   2.559 -0.3357 -0.4697 -0.5084
16138TIP3    H269906   3.937   1.956   2.701 -1.0686  0.4232 -0.2591
16139TIP3   OH269907   0.776   3.194  17.150 -0.0297 -0.3670 -0.7723
16139TIP3    H169908   0.783   3.182  17.245 -0.0421 -1.4569 -0.8927
16139TIP3    H269909   0.684   3.176  17.130 -0.0125 -0.2056 -1.0005
16140TIP3   OH269910   2.017   3.174   4.600 -0.2338 -0.6284  0.7660
16140TIP3    H169911   2.025   3.078   4.594  0.2108 -0.5865  0.6545
16140TIP3    H269912   2.018   3.203   4.509  1.0915 -0.4116  0.8246
16141TIP3   OH269913   5.766   4.730   2.139 -0.4471 -0.4667  0.0712
16141TIP3    H169914   5.711   4.803   2.167 -0.5004 -0.8607  1.0078
16141TIP3    H269915   5.754   4.727   2.044 -1.1751  0.1454  0.1325
16142TIP3   OH269916   0.443   5.385  14.487  0.5049  0.0727 -0.7610
16142TIP3    H169917   0.409   5.320  14.549  0.4360  0.7540 -0.0750
16142TIP3    H269918   0.538   5.372  14.489  0.5021  0.0843 -0.5181
16143TIP3   OH269919   0.553   4.927   5.452  0.0719  0.4244 -0.5724
16143TIP3    H169920   0.623   4.970   5.501 -1.8557  2.3156  0.7404
16143TIP3    H269921   0.519   4.860   5.511 -0.6571  1.0405 -0.2750
16144TIP3   OH269922   4.991   6.714   4.774  0.2130 -0.0375  0.5506
16144TIP3    H169923   4.959   6.764   4.849 -2.3956 -1.2046  0.3503
16144TIP3    H269924   5.069   6.669   4.805  0.2456  0.9377  1.9692
16145TIP3   OH269925   3.935   4.453   0.714  0.2325 -0.0146 -0.0096
16145TIP3    H169926   3.865   4.398   0.679  0.0221  0.8640 -1.0152
16145TIP3    H269927   3.963   4.506   0.639 -0.0724  1.7829  1.1112
16146TIP3   OH269928   1.971   1.615  12.446 -0.4583  0.5932 -0.2450
16146TIP3    H169929   2.011   1.536  12.408 -1.0917  0.4496 -0.6293
16146TIP3    H269930   2.038   1.650  12.504  0.0155  0.0420 -0.4481
16147TIP3   OH269931   4.533   0.121  14.170  0.4747  0.6541  0.6321
16147TIP3    H169932   4.443   0.133  14.138  0.5760  1.3941  0.5930
16147TIP3    H269933   4.553   0.029  14.152 -0.1880  0.5432  0.4214
16148TIP3   OH269934   2.107   3.250   1.810  0.0910 -0.7771 -0.9050
16148TIP3    H169935   2.055   3.170   1.814 -0.1863 -0.6429 -1.7407
16148TIP3    H269936   2.097   3.281   1.720  0.0087  0.3097 -0.5377
16149TIP3   OH269937   0.397   1.850   4.865  0.2243  0.0106  0.0614
16149TIP3    H169938   0.443   1.826   4.785 -0.2347 -0.3687 -0.0922
16149TIP3    H269939   0.354   1.770   4.893  0.3734  0.1448  0.6854
16150TIP3   OH269940   0.593   0.745   3.026  0.0009 -0.3156 -0.3339
16150TIP3    H169941   0.510   0.731   2.979 -0.3127  1.1033 -0.2615
16150TIP3    H269942   0.595   0.840   3.042  2.5123  0.0045 -1.9871
16151TIP3   OH269943   1.738   6.699   4.598  0.0949 -0.1447 -0.0099
16151TIP3    H169944   1.689   6.780   4.587 -1.2839 -0.5691  2.3294
16151TIP3    H269945   1.826   6.720   4.569 -0.3043  2.1152  0.2348
16152TIP3   OH269946   1.622   1.157   6.040  0.4647  0.2716 -0.5526
16152TIP3    H169947   1.692   1.095   6.061 -0.0699 -0.3340 -0.5589
16152TIP3    H269948   1.574   1.167   6.123 -0.2919 -0.3992 -0.8991
16153TIP3   OH269949   2.826   0.891   5.537 -0.4940  0.3024  0.1212
16153TIP3    H169950   2.876   0.852   5.466  1.1340 -0.9024  1.8229
16153TIP3    H269951   2.748   0.927   5.495  0.4796 -0.2067 -2.2570
16154TIP3   OH269952   4.001   1.146  15.476  0.1635  0.2103  0.2637
16154TIP3    H169953   4.014   1.093  15.555  0.4740 -0.2151 -0.0696
16154TIP3    H269954   4.069   1.116  15.416  0.4421  1.0995  0.1261
16155TIP3   OH269955   2.195   2.670   6.375 -0.1748  0.2968  0.1220
16155TIP3    H169956   2.269   2.723   6.403 -0.1699 -0.5110  1.7226
16155TIP3    H269957   2.148   2.650   6.455 -2.5125  1.2933 -0.9026
16156TIP3   OH269958   1.506   1.157  11.211  1.0884 -0.5777  0.0175
16156TIP3    H169959   1.503   1.236  11.157 -1.1645  0.5765  1.6448
16156TIP3    H269960   1.486   1.086  11.150  0.1580  0.4943 -0.9841
16157TIP3   OH269961   3.625   1.461  14.325 -0.2118  0.1406 -0.0607
16157TIP3    H169962   3.539   1.482  14.287 -0.6028  1.7258  1.5499
16157TIP3    H269963   3.610   1.465  14.420  1.2642 -1.2988  0.2730
16158TIP3   OH269964   3.291   6.188  14.539 -0.2253 -0.1474 -0.1229
16158TIP3    H169965   3.281   6.283  14.534 -0.6373 -0.0685  1.5015
16158TIP3    H269966   3.367   6.169  14.484 -2.8730  0.4863 -4.5587
16159TIP3   OH269967   1.375   3.186  13.180  0.2704  0.2579  0.4686
16159TIP3    H169968   1.279   3.191  13.185  0.3347  1.0248  1.2244
16159TIP3    H269969   1.396   3.096  13.205 -0.2576  0.0045  0.0361
16160TIP3   OH269970   1.580   0.556   3.275  0.3292 -0.5893 -0.0080
16160TIP3    H169971   1.598   0.486   3.337  0.2798 -2.4012 -1.9242
16160TIP3    H269972   1.532   0.514   3.204  3.0214  0.5810 -2.7943
16161TIP3   OH269973   6.272   5.256  12.687  0.2540  0.1762  0.2460
16161TIP3    H169974   6.274   5.245  12.782  1.0338 -2.0962  0.0335
16161TIP3    H269975   6.212   5.187  12.657  1.3140 -0.2525 -0.9935
16162TIP3   OH269976   1.002   0.515  12.333 -0.1072 -0.4000 -0.2994
16162TIP3    H169977   0.942   0.500  12.259  0.3167 -1.3274 -0.4691
16162TIP3    H269978   0.977   0.600  12.367 -0.7355 -0.2424 -1.1221
16163TIP3   OH269979   4.573   0.601  11.736  0.0781 -0.2476 -0.3601
16163TIP3    H169980   4.535   0.518  11.763 -0.8481 -0.3613 -1.8986
16163TIP3    H269981   4.498   0.658  11.718  0.6928  0.7345  0.0863
16164TIP3   OH269982   3.278   0.721   3.750  0.2131  0.1309  0.3630
16164TIP3    H169983   3.256   0.814   3.756 -0.1844  0.2539 -2.0602
16164TIP3    H269984   3.252   0.685   3.835 -2.1563  1.7158  0.4003
16165TIP3   OH269985   2.651   0.311  16.975  0.2626  0.1529  0.2423
16165TIP3    H169986   2.699   0.321  16.893 -0.2475  2.5814  0.1705
16165TIP3    H269987   2.687   0.231  17.014  0.7463 -0.8865 -2.1567
16166TIP3   OH269988   0.642   0.818   0.315 -0.5983  0.4612 -0.2519
16166TIP3    H169989   0.560   0.802   0.363 -1.3132  2.4254 -0.7429
16166TIP3    H269990   0.687   0.734   0.318 -1.6697 -0.1230  1.8551
16167TIP3   OH269991   0.386   5.173  16.055  0.5273  0.1083  0.5540
16167TIP3    H169992   0.315   5.186  16.118 -0.4882  2.0271 -0.8688
16167TIP3    H269993   0.452   5.237  16.079  0.2888  0.6103 -0.1100
16168TIP3   OH269994   0.113   0.317  13.870  0.4135 -0.1213 -0.7410
16168TIP3    H169995   0.124   0.223  13.883  0.5118 -0.0745 -0.4822
16168TIP3    H269996   0.183   0.357  13.922  0.9895  0.0649 -1.6433
16169TIP3   OH269997   5.390   3.826  14.899  0.1060 -0.1818 -0.0296
16169TIP3    H169998   5.404   3.905  14.845  2.1764 -0.3472  0.2012
16169TIP3    H269999   5.355   3.762  14.837 -1.2488  0.7717 -0.3058
16170TIP3   OH270000   2.774   4.631  13.074  0.1774  0.1055 -0.1100
16170TIP3    H170001   2.830   4.553  13.085 -0.8554 -0.9493 -1.8236
16170TIP3    H270002   2.771   4.644  12.979 -1.0694  1.1974  0.0576
16171TIP3   OH270003   1.048   2.926  14.696 -0.5639 -0.8838  0.6528
16171TIP3    H170004   1.033   3.020  14.684 -1.4766 -0.9456  1.1375
16171TIP3    H270005   1.132   2.920  14.741 -0.8265 -0.2460  1.2447
16172TIP3   OH270006   6.385   6.202  12.357  0.0672 -0.0040 -0.6016
16172TIP3    H170007   6.391   6.185  12.263 -1.2848 -1.5861 -0.4549
16172TIP3    H270008   6.326   6.277  12.365  2.3949  1.9767 -1.0832
16173TIP3   OH270009   2.715   3.559   3.180  0.0731 -0.3500 -0.4768
16173TIP3    H170010   2.661   3.483   3.202 -0.1767  0.1106  0.5528
16173TIP3    H270011   2.659   3.635   3.200  1.2763  0.1569  1.2414
16174TIP3   OH270012   3.382   4.765   5.165 -0.0855  0.2084  0.4365
16174TIP3    H170013   3.468   4.757   5.124 -0.6858  2.7915 -1.5802
16174TIP3    H270014   3.399   4.812   5.247  0.5567 -0.6703  0.8268
16175TIP3   OH270015   6.368   6.140   5.167  0.2830  0.1506  0.4652
16175TIP3    H170016   6.387   6.152   5.074 -1.0333  1.8287  0.3687
16175TIP3    H270017   6.296   6.076   5.168 -0.2791  0.7683  0.2579
16176TIP3   OH270018   4.886   1.073   3.419 -0.1534 -0.6070  0.2905
16176TIP3    H170019   4.887   0.992   3.470 -0.6277 -1.3222 -0.8011
16176TIP3    H270020   4.878   1.045   3.328 -1.7878  0.7008 -0.0239
16177TIP3   OH270021   3.846   0.363  16.834  0.4498  0.3902  0.5827
16177TIP3    H170022   3.926   0.327  16.795  0.5296  1.8622 -0.7239
16177TIP3    H270023   3.863   0.457  16.839 -1.1160  0.6978  0.4564
16178TIP3   OH270024   4.199   3.303   1.012  0.1684 -0.0108 -0.6536
16178TIP3    H170025   4.178   3.213   0.988  1.9794 -0.0794 -2.1795
16178TIP3    H270026   4.252   3.295   1.091  0.0609 -0.2611 -0.6048
16179TIP3   OH270027   0.787   1.654   0.678  0.0252 -0.0518  0.1569
16179TIP3    H170028   0.772   1.575   0.729  0.1587 -0.1746  0.0107
16179TIP3    H270029   0.729   1.720   0.716  0.2298 -0.1017  0.5562
16180TIP3   OH270030   4.781   4.805  16.097 -0.1642  0.3224  0.9723
16180TIP3    H170031   4.834   4.785  16.174  1.1250  0.5315  0.1899
16180TIP3    H270032   4.695   4.768  16.115  0.7075 -1.4807  1.6554
16181TIP3   OH270033   6.725   0.310   2.420  0.1835 -0.2970 -0.2193
16181TIP3    H170034   6.724   0.231   2.474  1.2911 -0.2982 -0.1800
16181TIP3    H270035   6.703   0.278   2.332 -3.2392 -0.0674  0.4287
16182TIP3   OH270036   3.687   1.063  14.788  0.1153  0.1251 -0.1097
16182TIP3    H170037   3.658   1.090  14.701  0.1834 -1.5274 -0.6725
16182TIP3    H270038   3.657   1.133  14.846  0.1299  1.2907 -1.4561
16183TIP3   OH270039   2.359   1.373  11.887 -0.1286 -0.5918  0.3168
16183TIP3    H170040   2.392   1.328  11.964  0.5472  0.7895  0.8603
16183TIP3    H270041   2.296   1.436  11.921 -0.9902 -1.0366 -0.4198
16184TIP3   OH270042   3.980   2.218  14.085  0.7437 -0.2134 -0.9084
16184TIP3    H170043   3.920   2.166  14.138  0.4958  1.0575  0.0862
16184TIP3    H270044   4.004   2.160  14.013  0.3886 -1.6705  0.0986
16185TIP3   OH270045   5.203   6.387  17.262  0.5909 -0.0708 -0.0088
16185TIP3    H170046   5.224   6.468  17.215  2.2066 -1.0490 -1.1075
16185TIP3    H270047   5.288   6.343  17.272 -0.0565 -0.9980  1.7937
16186TIP3   OH270048   0.917   3.543   3.265 -0.1766  0.4924  0.6117
16186TIP3    H170049   0.943   3.487   3.338  1.1007  1.5802  1.0404
16186TIP3    H270050   0.822   3.536   3.262 -0.0644 -1.5248  0.7586
16187TIP3   OH270051   3.573   4.958   5.987  0.1359  0.5477  0.4759
16187TIP3    H170052   3.602   5.049   5.990 -1.2340  1.0803 -1.1242
16187TIP3    H270053   3.511   4.955   5.914 -0.2114 -1.5676  0.8055
16188TIP3   OH270054   1.757   2.856   2.729  0.3988 -0.0119  0.1126
16188TIP3    H170055   1.739   2.932   2.674 -1.1441 -1.1646 -1.0541
16188TIP3    H270056   1.702   2.869   2.806  0.0956  0.0476 -0.1091
16189TIP3   OH270057   4.477   1.139   3.966 -0.3043  0.1893 -0.1745
16189TIP3    H170058   4.389   1.103   3.974 -0.1138 -0.4307 -0.7618
16189TIP3    H270059   4.533   1.076   4.010  0.0094 -0.1391 -1.0310
16190TIP3   OH270060   4.950   1.395   4.677  0.0072  0.1800  0.0631
16190TIP3    H170061   5.007   1.330   4.718 -0.0918  1.7667  2.9353
16190TIP3    H270062   4.980   1.479   4.710 -0.5252  1.5998 -2.7483
16191TIP3   OH270063   5.060   6.369  16.086  0.1725 -0.2938 -0.5552
16191TIP3    H170064   5.047   6.372  15.991  0.0210 -0.0575 -0.5290
16191TIP3    H270065   5.145   6.326  16.097 -0.1749 -1.0458 -0.7651
16192TIP3   OH270066   3.096   1.435  16.868 -0.1194  0.2914  0.2556
16192TIP3    H170067   3.130   1.453  16.956 -1.5418  0.2193  0.8433
16192TIP3    H270068   3.129   1.348  16.846  2.9763  1.5335 -0.6954
16193TIP3   OH270069   0.905   0.877  16.470 -0.8743  0.1737  0.1922
16193TIP3    H170070   0.885   0.788  16.499 -0.7845  0.1891  0.3029
16193TIP3    H270071   0.821   0.914  16.445 -0.7821 -0.3172 -0.9051
16194TIP3   OH270072   0.684   2.764  17.246 -0.1909  0.9326  0.1326
16194TIP3    H170073   0.602   2.743  17.201 -0.0919  3.4789 -1.4542
16194TIP3    H270074   0.708   2.683  17.290 -3.0329 -0.1956 -0.1438
16195TIP3   OH270075   3.704   0.281  11.069  0.5693  0.2390  0.5146
16195TIP3    H170076   3.609   0.284  11.079  0.6314  1.8691  0.7637
16195TIP3    H270077   3.720   0.318  10.982  1.0542  1.2181  1.0154
16196TIP3   OH270078   4.004   2.571  13.722 -0.4229  0.2695  0.3881
16196TIP3    H170079   4.072   2.600  13.661  1.2147 -3.0115  0.4825
16196TIP3    H270080   4.050   2.552  13.803 -1.9202  0.4071  1.3209
16197TIP3   OH270081   2.685   0.110   5.592 -0.1125 -0.5212 -0.4193
16197TIP3    H170082   2.767   0.105   5.642  0.3193  0.6540 -0.9638
16197TIP3    H270083   2.618   0.127   5.658  0.4678  1.1322 -0.1863
16198TIP3   OH270084   3.502   3.621   0.478  0.2292 -0.0442  0.2210
16198TIP3    H170085   3.414   3.600   0.446 -0.2507 -0.2848  1.6349
16198TIP3    H270086   3.557   3.617   0.400 -0.6131 -2.2005 -0.3295
16199TIP3   OH270087   1.979   0.471   4.802 -0.6882 -0.4947 -0.2886
16199TIP3    H170088   2.034   0.449   4.878 -3.1903 -0.3870  1.7030
16199TIP3    H270089   1.992   0.565   4.791  0.2731 -0.6394 -0.5285
16200TIP3   OH270090   4.932   0.611  12.778 -0.2460  0.2971  0.0803
16200TIP3    H170091   4.915   0.569  12.694  0.2905 -0.8470  0.5185
16200TIP3    H270092   4.883   0.558  12.842 -1.4173  1.7005  0.4048
16201TIP3   OH270093   2.849   2.482  11.944  0.0474  0.2414  0.1458
16201TIP3    H170094   2.920   2.420  11.926 -0.8797 -0.7133 -0.3306
16201TIP3    H270095   2.772   2.427  11.957 -0.6389  1.2644  0.5383
16202TIP3   OH270096   1.896   2.401  16.237  0.5599 -0.2144 -0.2383
16202TIP3    H170097   1.970   2.457  16.213  0.0293  0.5628 -0.0938
16202TIP3    H270098   1.922   2.314  16.207  0.6361  0.4146 -2.1586
16203TIP3   OH270099   6.291   4.182  16.926  0.0409  0.0583 -0.1954
16203TIP3    H170100   6.358   4.147  16.867  0.2170 -0.1075  0.0977
16203TIP3    H270101   6.233   4.233  16.869  0.7846  0.7462 -0.3470
16204TIP3   OH270102   3.113   5.224  15.967  0.2824 -0.1569 -0.4372
16204TIP3    H170103   3.167   5.300  15.986  0.6405 -0.5274  0.0685
16204TIP3    H270104   3.045   5.225  16.034 -1.3602  1.2366 -2.0530
16205TIP3   OH270105   1.373   2.366  12.446 -0.3891 -0.0866  0.5095
16205TIP3    H170106   1.379   2.286  12.498 -2.3140 -0.5943  0.0338
16205TIP3    H270107   1.361   2.436  12.511 -0.1164 -0.3660  0.8666
16206TIP3   OH270108   6.598   6.491   2.053  0.1602 -0.2186 -0.0187
16206TIP3    H170109   6.510   6.454   2.054  0.1829 -0.2539  0.9779
16206TIP3    H270110   6.587   6.583   2.073  0.2096  0.1250 -1.4716
16207TIP3   OH270111   1.084   1.184  12.159 -0.4266  0.4377  0.3109
16207TIP3    H170112   1.093   1.119  12.228  0.9909  1.0505  0.7627
16207TIP3    H270113   1.051   1.262  12.203 -1.5259  0.2320 -0.1131
16208TIP3   OH270114   4.462   4.754   2.276 -0.2348 -0.3579  0.0878
16208TIP3    H170115   4.421   4.735   2.361 -2.0301  2.4597 -0.0199
16208TIP3    H270116   4.496   4.843   2.286  1.1776 -0.6580 -1.6109
16209TIP3   OH270117   6.365   4.428   4.139  0.0129 -0.1352 -0.4035
16209TIP3    H170118   6.393   4.503   4.193 -0.1796 -0.8067  0.6473
16209TIP3    H270119   6.270   4.434   4.137 -0.0153 -0.4974 -0.1119
16210TIP3   OH270120   5.577   0.512  14.564  0.1374 -0.0370 -0.5131
16210TIP3    H170121   5.614   0.438  14.612 -0.8581 -2.3847 -3.1368
16210TIP3    H270122   5.651   0.570  14.548  2.1672 -2.9500 -2.6979
16211TIP3   OH270123   4.737   2.001   5.874 -0.2603 -0.1479  0.2964
16211TIP3    H170124   4.703   1.923   5.829 -1.1439 -0.4864  1.4889
16211TIP3    H270125   4.764   2.060   5.803 -2.5854 -0.2130 -0.7313
16212TIP3   OH270126   3.884   6.733  15.701  0.2382 -0.1583 -0.0391
16212TIP3    H170127   3.885   6.827  15.717 -0.2123  0.1281 -1.5575
16212TIP3    H270128   3.977   6.708  15.698  0.4153 -0.3755  3.3797
16213TIP3   OH270129   3.529   1.017  12.618  0.4042 -0.0301  0.0737
16213TIP3    H170130   3.606   1.014  12.561 -0.0281 -0.7752 -0.4951
16213TIP3    H270131   3.501   0.926  12.624 -0.3336  0.2144  0.4252
16214TIP3   OH270132   4.897   0.285   0.276  0.3060 -0.1795 -0.0007
16214TIP3    H170133   4.912   0.332   0.194 -0.7841 -0.9120 -0.6527
16214TIP3    H270134   4.823   0.332   0.316 -1.4688 -1.8207 -1.1351
16215TIP3   OH270135   4.481   5.302   5.469  0.0952  0.6197 -0.0052
16215TIP3    H170136   4.520   5.244   5.404  2.1377  1.7789  0.1101
16215TIP3    H270137   4.476   5.387   5.424  0.2116  1.1110  0.9046
16216TIP3   OH270138   4.332   2.593  16.742  0.3237 -0.6473 -0.3834
16216TIP3    H170139   4.418   2.609  16.703 -0.5365  2.9571 -1.1341
16216TIP3    H270140   4.270   2.599  16.670 -1.0386  3.4393  0.8356
16217TIP3   OH270141   0.549   1.136  16.761 -0.0390  0.3472 -0.0301
16217TIP3    H170142   0.461   1.155  16.729  0.7901  2.3870 -1.2790
16217TIP3    H270143   0.607   1.186  16.704  2.1176 -2.4481 -0.5172
16218TIP3   OH270144   6.535   3.371   6.854  0.0360  0.2094  0.5963
16218TIP3    H170145   6.590   3.446   6.879  0.9645 -0.0863 -0.4702
16218TIP3    H270146   6.499   3.396   6.769 -1.8297  0.5530  1.4440
16219TIP3   OH270147   6.239   1.117  15.917  0.0462 -0.0978  0.3986
16219TIP3    H170148   6.184   1.052  15.871  0.6702  0.4224 -1.1500
16219TIP3    H270149   6.289   1.159  15.847 -0.2174  1.9518  1.3826
16220TIP3   OH270150   1.599   1.348   5.215  0.5631  0.1151  0.0173
16220TIP3    H170151   1.584   1.304   5.299 -0.1087  0.1989 -0.0520
16220TIP3    H270152   1.528   1.412   5.209  1.4153  1.0798  0.0211
16221TIP3   OH270153   3.657   1.842  14.315  0.6057  1.0723  0.7227
16221TIP3    H170154   3.590   1.791  14.269 -0.0259  2.2434  0.2998
16221TIP3    H270155   3.607   1.901  14.371  1.3156  1.3385  1.0810
16222TIP3   OH270156   0.639   1.733  11.443 -0.1816 -0.2917 -0.2151
16222TIP3    H170157   0.613   1.673  11.372 -3.3383  0.0412  0.4865
16222TIP3    H270158   0.640   1.678  11.521 -3.5144  0.4343  0.5048
16223TIP3   OH270159   2.118   1.681   4.313 -0.5825  0.4060 -0.3673
16223TIP3    H170160   2.151   1.697   4.224 -0.0024  0.8353 -0.0776
16223TIP3    H270161   2.023   1.688   4.304 -0.8151 -2.7698 -1.6101
16224TIP3   OH270162   2.029   5.617   5.370 -0.4243  0.1031  0.1631
16224TIP3    H170163   2.045   5.523   5.378  0.2611  0.1575 -0.4865
16224TIP3    H270164   2.058   5.639   5.282  0.7807  1.1746  0.7851
16225TIP3   OH270165   5.138   6.375   3.025  0.1512  1.1421  0.4675
16225TIP3    H170166   5.116   6.468   3.034 -0.9973  1.0452 -0.9710
16225TIP3    H270167   5.183   6.353   3.106 -1.6654  2.3514  1.8754
16226TIP3   OH270168   1.348   5.629  14.928  0.4344 -0.1405 -0.1109
16226TIP3    H170169   1.328   5.605  14.837 -0.8382 -0.3143  0.1993
16226TIP3    H270170   1.287   5.700  14.948 -0.9204 -1.6397  1.3246
16227TIP3   OH270171   1.509   5.810   3.385 -0.8227 -0.8373 -0.5560
16227TIP3    H170172   1.563   5.737   3.357 -1.2894 -1.4899  0.2097
16227TIP3    H270173   1.570   5.872   3.425 -0.3047 -0.3915 -1.9703
16228TIP3   OH270174   6.214   6.453   1.855 -0.3991  0.5661  0.8536
16228TIP3    H170175   6.182   6.368   1.825 -0.0873  1.5956 -2.9092
16228TIP3    H270176   6.253   6.435   1.940  1.3257 -3.4861 -0.5322
16229TIP3   OH270177   5.830   4.945   7.036  0.8202  0.2508  0.4523
16229TIP3    H170178   5.912   4.979   7.001  1.1624 -1.5771 -0.6596
16229TIP3    H270179   5.766   5.014   7.019  1.9494  1.3517  0.5717
16230TIP3   OH270180   4.663   3.715  12.576 -0.2329 -0.0564  0.2298
16230TIP3    H170181   4.682   3.639  12.631  2.1448  0.8099  0.7620
16230TIP3    H270182   4.600   3.766  12.627 -1.9381 -1.6711 -0.1893
16231TIP3   OH270183   1.627   4.659  14.666  0.7239 -0.1642  0.2463
16231TIP3    H170184   1.668   4.599  14.604  1.2469 -0.2196  0.6371
16231TIP3    H270185   1.655   4.746  14.636  0.6214 -0.1644  0.1506
16232TIP3   OH270186   3.966   1.169  17.381 -0.6554 -0.2405 -0.1338
16232TIP3    H170187   3.959   1.264  17.371  1.1780 -0.1656 -1.1953
16232TIP3    H270188   4.059   1.154  17.403 -0.9593 -1.7738  0.2308
16233TIP3   OH270189   2.692   1.151  14.657 -0.4590 -0.5500  0.2363
16233TIP3    H170190   2.783   1.175  14.640 -0.0956  0.1982  2.8626
16233TIP3    H270191   2.645   1.235  14.654 -0.6505 -0.6201  1.1497
16234TIP3   OH270192   1.749   0.471  12.788  0.5430  0.5033  0.5262
16234TIP3    H170193   1.827   0.435  12.830 -1.1435 -0.9865  2.6100
16234TIP3    H270194   1.748   0.563  12.816  1.4978  0.5251  0.5340
16235TIP3   OH270195   2.848   5.218  13.288 -0.7493 -0.5206 -0.3422
16235TIP3    H170196   2.873   5.284  13.223  0.2771  2.0743  2.4390
16235TIP3    H270197   2.753   5.220  13.289 -0.7401  1.0112 -0.2997
16236TIP3   OH270198   3.290   4.553  14.890 -0.5398 -0.1070 -0.2635
16236TIP3    H170199   3.344   4.615  14.939 -1.1830  1.2829 -1.2376
16236TIP3    H270200   3.208   4.548  14.938  0.7821 -3.2723  1.9899
16237TIP3   OH270201   4.164   0.295  10.691 -0.0771 -0.1509 -0.2341
16237TIP3    H170202   4.073   0.323  10.697  0.3613  1.1618  0.6590
16237TIP3    H270203   4.175   0.233  10.764 -0.4742 -1.0433 -0.9071
16238TIP3   OH270204   0.186   2.362   1.949 -0.4192 -0.4079 -0.3277
16238TIP3    H170205   0.126   2.418   1.899 -1.0457 -1.0766 -0.3477
16238TIP3    H270206   0.227   2.305   1.883  1.0005  0.7046 -0.4428
16239TIP3   OH270207   6.571   5.271  11.600  0.2342 -0.2439  0.1549
16239TIP3    H170208   6.643   5.325  11.569 -0.7465  1.0544 -0.0014
16239TIP3    H270209   6.611   5.205  11.656  1.6194 -0.1797 -0.7334
16240TIP3   OH270210   0.483   6.590  10.536  0.2446  0.6305 -0.6888
16240TIP3    H170211   0.426   6.539  10.594  0.7174  1.2210  0.3362
16240TIP3    H270212   0.459   6.681  10.552 -0.2214  0.7643 -2.1052
16241TIP3   OH270213   4.171   1.588   0.924 -0.5585 -0.2672 -0.2104
16241TIP3    H170214   4.231   1.518   0.951  2.4866  0.5215 -3.9411
16241TIP3    H270215   4.184   1.657   0.989  2.5803 -0.2620 -0.6634
16242TIP3   OH270216   2.716   5.001  11.305  0.3129  0.2433  0.3923
16242TIP3    H170217   2.758   5.087  11.310 -1.4311  1.2546 -1.0636
16242TIP3    H270218   2.700   4.988  11.212 -2.2469 -0.2244  0.8353
16243TIP3   OH270219   4.773   5.893   2.292  0.1246 -0.0980 -0.0913
16243TIP3    H170220   4.710   5.822   2.296  1.1698 -1.0752 -0.4982
16243TIP3    H270221   4.828   5.882   2.369 -0.5092  1.0642  0.5459
16244TIP3   OH270222   1.985   0.387   0.283 -0.2498 -0.2197 -0.0291
16244TIP3    H170223   2.079   0.404   0.295 -0.3997  0.8484 -0.2606
16244TIP3    H270224   1.951   0.468   0.246 -1.3947 -0.3506  0.6937
16245TIP3   OH270225   5.948   0.228   3.039 -0.1580  0.4752  0.2148
16245TIP3    H170226   5.933   0.167   2.967  1.1881 -0.9420  1.0733
16245TIP3    H270227   5.870   0.283   3.041 -1.1788 -0.8681 -0.9374
16246TIP3   OH270228   6.044   3.658   1.593 -0.4950  0.0492 -0.0557
16246TIP3    H170229   6.098   3.663   1.514 -1.8969 -0.2898 -1.0746
16246TIP3    H270230   5.964   3.613   1.565 -0.5986 -1.0393  1.8220
16247TIP3   OH270231   3.418   2.267  12.559 -0.3512 -0.5656 -0.2586
16247TIP3    H170232   3.396   2.359  12.549 -0.3439 -0.6201 -0.8338
16247TIP3    H270233   3.404   2.248  12.652  0.9694  0.3553  0.1515
16248TIP3   OH270234   1.631   6.670  11.378 -0.1568  0.6360  0.0655
16248TIP3    H170235   1.539   6.644  11.374 -0.1390  0.3016  1.5195
16248TIP3    H270236   1.668   6.640  11.295 -1.0085 -0.6001  0.1085
16249TIP3   OH270237   6.211   3.043  15.126  0.1467  0.2503  0.6094
16249TIP3    H170238   6.132   2.992  15.107  1.4492 -1.8344  0.4797
16249TIP3    H270239   6.238   3.014  15.213  1.8326 -0.5833 -0.1394
16250TIP3   OH270240   3.374   4.447  10.627 -0.2500 -0.2026 -0.3569
16250TIP3    H170241   3.300   4.471  10.682 -0.9758 -1.2251 -0.8677
16250TIP3    H270242   3.451   4.467  10.681 -0.8748  0.9176  0.1561
16251TIP3   OH270243   5.077   3.055   2.075  0.3006  0.6616  0.1424
16251TIP3    H170244   5.044   2.969   2.099 -0.4945  0.8536 -0.2313
16251TIP3    H270245   5.173   3.046   2.080  0.4230 -1.1723 -2.8264
16252TIP3   OH270246   1.489   0.754   2.263  0.3154  0.1745  0.0390
16252TIP3    H170247   1.532   0.729   2.181 -0.1826 -2.8502  0.5812
16252TIP3    H270248   1.432   0.680   2.284  1.2847  0.2752  3.7224
16253TIP3   OH270249   5.042   2.291  16.722 -0.0283 -0.3787  0.2235
16253TIP3    H170250   5.005   2.250  16.644 -1.1087 -1.4113  1.2481
16253TIP3    H270251   5.017   2.383  16.716 -0.8829 -0.6346 -0.1898
16254TIP3   OH270252   4.121   1.297   4.271 -0.1512 -0.1477 -0.2695
16254TIP3    H170253   4.044   1.277   4.324  1.3617 -2.0221  1.4063
16254TIP3    H270254   4.139   1.216   4.222  0.9158  0.1362 -0.3928
16255TIP3   OH270255   6.528   5.051   6.552 -0.2259  0.1542  0.1828
16255TIP3    H170256   6.613   5.011   6.534  0.2398  0.2532  1.9464
16255TIP3    H270257   6.547   5.118   6.619 -1.9215 -1.1049  2.0483
16256TIP3   OH270258   6.496   4.148  12.312 -0.2100  0.6096 -0.2492
16256TIP3    H170259   6.482   4.064  12.270  3.0829 -0.0675 -0.2957
16256TIP3    H270260   6.503   4.128  12.405 -2.3158  1.3414  0.1198
16257TIP3   OH270261   0.957   4.178   5.904  1.1059  0.4547  0.7883
16257TIP3    H170262   0.979   4.169   5.811 -3.0657 -2.1956 -0.1953
16257TIP3    H270263   1.005   4.256   5.932  0.7762  2.8577 -4.1932
16258TIP3   OH270264   4.763   4.522  11.240 -0.0322 -0.2309  0.2900
16258TIP3    H170265   4.795   4.492  11.325 -1.9982  0.4719  1.3516
16258TIP3    H270266   4.767   4.444  11.184 -0.6627 -1.2811  1.6379
16259TIP3   OH270267   2.696   2.701   1.395 -0.5626  0.2620  0.0049
16259TIP3    H170268   2.666   2.700   1.304 -0.0894  0.5840 -0.1597
16259TIP3    H270269   2.762   2.631   1.399 -1.1463 -0.2856  0.3057
16260TIP3   OH270270   5.685   4.122  17.352  0.5682  0.8799  0.5126
16260TIP3    H170271   5.628   4.178  17.300  0.3882  2.2671  2.1352
16260TIP3    H270272   5.774   4.143  17.322  0.3768  0.0430 -0.7332
16261TIP3   OH270273   3.263   3.795   3.902  0.7324  0.4014  0.2122
16261TIP3    H170274   3.185   3.815   3.850  1.3849  0.6471 -0.6967
16261TIP3    H270275   3.237   3.721   3.956  0.2787 -0.4302 -1.0871
16262TIP3   OH270276   6.786   1.535  11.787  0.2334 -0.6261  0.6441
16262TIP3    H170277   6.763   1.519  11.879 -0.6104 -1.5097  0.3018
16262TIP3    H270278   6.773   1.450  11.745 -0.2205 -0.0206 -0.4543
16263TIP3   OH270279   0.204   4.743   1.399 -0.8757  0.5846 -0.3616
16263TIP3    H170280   0.211   4.741   1.495 -0.5416 -1.2430 -0.3783
16263TIP3    H270281   0.114   4.718   1.381 -0.6094 -0.3296 -0.5108
16264TIP3   OH270282   2.599   2.129   3.793  0.0587 -0.1352  0.2783
16264TIP3    H170283   2.632   2.158   3.878 -0.5695  0.2685  0.3957
16264TIP3    H270284   2.618   2.203   3.734  3.5369 -1.6498 -0.7713
16265TIP3   OH270285   3.896   6.092   3.058  0.1901  0.3922  0.0472
16265TIP3    H170286   3.953   6.017   3.039 -2.1051 -1.4685 -0.0191
16265TIP3    H270287   3.907   6.107   3.152 -0.1448 -0.8020  0.2958
16266TIP3   OH270288   1.230   6.781  15.676 -0.4242 -0.2461  0.9502
16266TIP3    H170289   1.322   6.808  15.674  0.0747 -1.8167  0.4603
16266TIP3    H270290   1.220   6.727  15.597 -1.7757 -0.0810  0.9904
16267TIP3   OH270291   2.256   3.408   2.373  0.1813  0.8427 -0.6236
16267TIP3    H170292   2.187   3.347   2.399 -0.2513  0.7879 -1.8047
16267TIP3    H270293   2.209   3.484   2.340  0.6891  2.7562  2.6690
16268TIP3   OH270294   3.287   0.351  15.296 -0.3721  0.3459 -0.3118
16268TIP3    H170295   3.201   0.322  15.327 -0.6205  0.5448 -0.8143
16268TIP3    H270296   3.281   0.346  15.201  0.8566 -1.6440 -0.3355
16269TIP3   OH270297   1.729   1.633  11.579  0.3814 -0.8675  0.1088
16269TIP3    H170298   1.763   1.559  11.528 -2.6327 -1.2230 -1.6337
16269TIP3    H270299   1.715   1.702  11.514  0.5515  0.2571  1.2411
16270TIP3   OH270300   2.406   6.736  17.300  0.2894  0.1611 -0.0540
16270TIP3    H170301   2.325   6.702  17.262  0.5789 -0.3961 -0.1734
16270TIP3    H270302   2.431   6.672  17.366  0.5249  0.4382  0.1275
16271TIP3   OH270303   5.610   3.655  14.967 -0.1591  0.1253 -0.6098
16271TIP3    H170304   5.622   3.595  14.893  0.9165 -0.7287  0.2257
16271TIP3    H270305   5.533   3.707  14.943 -0.2145 -0.5568 -2.0376
16272TIP3   OH270306   4.743   6.579   1.069  0.1559 -0.4143  0.1683
16272TIP3    H170307   4.795   6.570   1.149  0.6712 -0.8163 -0.2055
16272TIP3    H270308   4.804   6.559   0.998 -0.5504 -1.0996 -0.2692
16273TIP3   OH270309   2.676   1.626  11.563 -0.2416  0.1960 -0.6682
16273TIP3    H170310   2.615   1.609  11.635  0.3340  0.3050 -0.1444
16273TIP3    H270311   2.620   1.650  11.489 -0.8730 -0.4258 -0.4041
16274TIP3   OH270312   6.584   1.677  14.647  0.3215  0.1977  0.7453
16274TIP3    H170313   6.587   1.747  14.583  1.1150  1.2960  1.9413
16274TIP3    H270314   6.674   1.642  14.649 -0.3055 -1.6532 -0.6502
16275TIP3   OH270315   4.544   3.551  12.243 -0.6898  0.4483 -0.3333
16275TIP3    H170316   4.624   3.587  12.282 -0.4176  0.1556 -0.6168
16275TIP3    H270317   4.544   3.586  12.154 -1.0386  0.6931 -0.2403
16276TIP3   OH270318   1.264   3.125   5.625 -0.8749  0.1835 -0.1355
16276TIP3    H170319   1.268   3.211   5.584  1.6231  1.0330  1.6208
16276TIP3    H270320   1.216   3.140   5.707 -0.1720 -0.0111  0.3175
16277TIP3   OH270321   5.296   4.163  10.715  0.3679 -0.1204  0.0197
16277TIP3    H170322   5.206   4.129  10.721 -0.5913  2.3887  1.3169
16277TIP3    H270323   5.286   4.258  10.725  3.1270  0.3120 -0.6071
16278TIP3   OH270324   3.013   4.095   2.553  0.2897 -0.0976 -0.1199
16278TIP3    H170325   3.040   4.004   2.551 -2.4333 -1.0169  1.1228
16278TIP3    H270326   3.025   4.125   2.463 -0.3098 -2.1834 -0.9497
16279TIP3   OH270327   5.461   6.537   0.545 -0.4084  0.4925 -0.3960
16279TIP3    H170328   5.436   6.602   0.611 -0.7391  0.4863 -0.5129
16279TIP3    H270329   5.428   6.573   0.462 -1.4204 -0.2612 -0.3338
16280TIP3   OH270330   2.019   6.640  15.688 -0.2064  0.5621  0.4441
16280TIP3    H170331   1.938   6.592  15.706 -0.2314 -0.2137 -1.5058
16280TIP3    H270332   2.085   6.598  15.743 -0.8967  0.5483  1.2926
16281TIP3   OH270333   3.545   3.792   3.108 -0.0663 -0.7152  0.1153
16281TIP3    H170334   3.541   3.880   3.072 -2.6117 -0.6437  0.4085
16281TIP3    H270335   3.478   3.791   3.176  0.3480 -2.6980  0.5505
16282TIP3   OH270336   5.217   5.648   2.325  0.2135  0.1885 -0.4805
16282TIP3    H170337   5.147   5.604   2.373  0.9918  0.1372  0.6411
16282TIP3    H270338   5.171   5.710   2.267 -0.7948 -0.6645 -0.6264
16283TIP3   OH270339   0.118   5.773  10.678 -0.6867  0.6554  0.2309
16283TIP3    H170340   0.137   5.742  10.589 -0.0106 -0.6735  0.8144
16283TIP3    H270341   0.199   5.761  10.726 -0.5722  2.8653  0.6625
16284TIP3   OH270342   1.473   5.072   0.310 -0.0875  0.3882  0.7106
16284TIP3    H170343   1.377   5.068   0.314 -0.1622  1.2599  0.1889
16284TIP3    H270344   1.491   5.118   0.228  0.8590 -2.1701 -0.6284
16285TIP3   OH270345   5.426   3.117   4.162 -0.1891 -0.3338  0.1719
16285TIP3    H170346   5.445   3.118   4.255 -0.7365 -0.2764  0.2897
16285TIP3    H270347   5.502   3.158   4.121 -0.0795 -0.0880  0.6165
16286TIP3   OH270348   0.901   5.981   1.988 -0.0119  0.6206 -0.4989
16286TIP3    H170349   0.974   6.042   1.992 -0.6111  1.2599  1.6060
16286TIP3    H270350   0.827   6.034   1.958  0.2505  0.0355 -2.3494
16287TIP3   OH270351   5.156   5.319   6.438  0.1870 -0.4100  0.3717
16287TIP3    H170352   5.237   5.366   6.416 -1.0009  1.8860  0.5804
16287TIP3    H270353   5.152   5.324   6.533 -1.7246  2.4555  0.2680
16288TIP3   OH270354   5.008   3.547  12.574 -0.2683  0.0451  0.6762
16288TIP3    H170355   5.055   3.474  12.614  0.6705  0.4407  0.3267
16288TIP3    H270356   4.917   3.534  12.599  0.0492 -0.6609  1.4965
16289TIP3   OH270357   4.436   0.205  12.392  0.3114  0.3993  0.1825
16289TIP3    H170358   4.527   0.192  12.418  0.1463 -0.3156  0.4449
16289TIP3    H270359   4.416   0.295  12.417 -0.2587 -0.6089  4.0314
16290TIP3   OH270360   1.256   1.369   3.659  0.3761 -0.5862 -0.0964
16290TIP3    H170361   1.219   1.298   3.711  2.3967 -1.8822 -0.3241
16290TIP3    H270362   1.298   1.325   3.585 -0.6918  1.0617 -1.7876
16291TIP3   OH270363   5.155   3.068   3.649  0.2634  0.3219  0.5718
16291TIP3    H170364   5.108   3.138   3.604 -0.8901 -1.0674 -0.5055
16291TIP3    H270365   5.085   3.012   3.684  0.9606 -2.2050 -1.7015
16292TIP3   OH270366   4.266   6.236   1.330  0.1492 -0.3031 -0.2979
16292TIP3    H170367   4.243   6.196   1.414 -1.1906 -1.0584 -1.0033
16292TIP3    H270368   4.259   6.165   1.267 -1.0747  0.7232 -1.3783
16293TIP3   OH270369   4.285   1.545   4.752 -0.4524  0.2641  0.0175
16293TIP3    H170370   4.326   1.471   4.797  0.7924  0.1660 -1.2189
16293TIP3    H270371   4.346   1.567   4.682 -2.3329  0.3946 -1.6571
16294TIP3   OH270372   3.779   2.483  13.002 -0.3558  0.2430 -0.5301
16294TIP3    H170373   3.713   2.414  13.008  1.5369 -1.6598 -0.7802
16294TIP3    H270374   3.749   2.538  12.929 -2.0750 -0.0475 -0.0984
16295TIP3   OH270375   5.447   5.930  16.590 -0.3690  0.2390 -0.0088
16295TIP3    H170376   5.503   5.982  16.533 -0.2993 -1.0311 -1.1568
16295TIP3    H270377   5.479   5.949  16.679  2.6897 -1.2695 -0.6553
16296TIP3   OH270378   1.688   2.569  10.745 -0.0324  0.1095  0.3541
16296TIP3    H170379   1.652   2.483  10.727  0.3276 -0.2645  1.3365
16296TIP3    H270380   1.641   2.628  10.685  0.3333 -0.8741 -0.9430
16297TIP3   OH270381   5.723   5.066  16.131  0.1278 -0.5044 -1.0572
16297TIP3    H170382   5.669   5.006  16.080 -0.5632 -0.4486 -0.3972
16297TIP3    H270383   5.661   5.121  16.179  0.7308  0.9699 -1.8846
16298TIP3   OH270384   6.534   3.031  12.404 -0.6738  0.7801 -0.2623
16298TIP3    H170385   6.567   2.963  12.463  0.8411  2.0471  0.4212
16298TIP3    H270386   6.462   2.989  12.357  0.4545 -1.4212 -0.1644
16299TIP3   OH270387   1.969   5.432  15.194 -0.0017 -0.0266 -0.0983
16299TIP3    H170388   2.029   5.463  15.126 -0.7441 -0.1880 -0.8532
16299TIP3    H270389   1.982   5.493  15.267  1.0866 -0.0820 -0.2319
16300TIP3   OH270390   4.586   2.051  16.639 -0.4551  0.1058  0.0185
16300TIP3    H170391   4.651   2.026  16.705 -1.1330 -1.4441  0.1279
16300TIP3    H270392   4.590   2.147  16.638  0.7149  0.1060  1.1420
16301TIP3   OH270393   3.574   1.968  16.860  0.0039 -0.2211  0.4443
16301TIP3    H170394   3.643   1.963  16.794  0.9746  0.3964  1.3849
16301TIP3    H270395   3.551   2.061  16.863 -0.2067 -0.2868  0.8070
16302TIP3   OH270396   1.393   6.550   1.272  0.2966  0.1319 -0.0713
16302TIP3    H170397   1.361   6.476   1.221  2.0019  0.0755 -1.1487
16302TIP3    H270398   1.340   6.624   1.243  0.3352 -0.1700 -0.9376
16303TIP3   OH270399   3.485   3.991  14.175 -0.6107  0.1280  0.1249
16303TIP3    H170400   3.519   4.074  14.208 -2.7967  1.2180 -0.1466
16303TIP3    H270401   3.559   3.950  14.132  0.4452  2.1562 -0.1317
16304TIP3   OH270402   5.072   5.786   5.168 -0.0883  0.5582  0.1738
16304TIP3    H170403   5.011   5.826   5.229 -1.0866  0.7256 -0.9199
16304TIP3    H270404   5.101   5.706   5.213 -2.2931 -0.3517  0.1140
16305TIP3   OH270405   2.261   0.632   1.514  0.3491  0.4407 -0.3816
16305TIP3    H170406   2.261   0.564   1.447  0.7366  1.2232 -1.1926
16305TIP3    H270407   2.215   0.706   1.474 -1.0098  0.3230  0.8658
16306TIP3   OH270408   1.668   6.577   3.349 -0.5825 -0.3830 -0.3245
16306TIP3    H170409   1.692   6.644   3.285  0.0392 -0.5198 -0.2356
16306TIP3    H270410   1.572   6.580   3.352 -0.5403  1.0081  0.2166
16307TIP3   OH270411   1.890   1.327   1.454  0.1783 -0.1372 -0.3911
16307TIP3    H170412   1.960   1.300   1.514  0.0954  0.4790 -0.0135
16307TIP3    H270413   1.906   1.419   1.437 -1.6531  0.5718  1.2870
16308TIP3   OH270414   2.737   0.845   2.349  0.6259  0.2703 -0.5348
16308TIP3    H170415   2.766   0.872   2.436 -0.9848  0.4943 -0.0446
16308TIP3    H270416   2.755   0.920   2.293  0.7191  0.5057 -0.1899
16309TIP3   OH270417   1.025   0.606  11.642  0.0820  0.1843  0.3190
16309TIP3    H170418   1.039   0.697  11.617 -0.2732 -0.4314 -2.4521
16309TIP3    H270419   0.940   0.583  11.604  0.7716 -1.6732 -0.2143
16310TIP3   OH270420   5.031   5.036  15.803 -0.1193  0.1864  0.7261
16310TIP3    H170421   4.979   5.097  15.855 -1.2457  0.4199 -0.5889
16310TIP3    H270422   5.006   5.055  15.712  0.9252 -0.9495  0.1620
16311TIP3   OH270423   3.149   5.037   2.447 -0.2696 -0.2921  0.2377
16311TIP3    H170424   3.192   4.962   2.405 -1.0544 -0.3493 -0.4778
16311TIP3    H270425   3.147   5.104   2.379  2.6524  1.3356  1.5481
16312TIP3   OH270426   1.950   2.482  12.282 -0.6016  0.3301  0.2147
16312TIP3    H170427   1.937   2.397  12.240 -1.6919  0.6600 -0.1645
16312TIP3    H270428   1.919   2.469  12.372 -0.6156  0.2846  0.2035
16313TIP3   OH270429   0.475   4.850  15.736 -0.5222 -0.2139  0.2601
16313TIP3    H170430   0.458   4.848  15.830 -0.7240 -2.5595  0.2479
16313TIP3    H270431   0.411   4.790  15.699 -0.1838  0.3624 -1.3412
16314TIP3   OH270432   1.865   1.366  16.661  0.0423  0.0947 -0.1480
16314TIP3    H170433   1.831   1.405  16.581 -1.8485 -0.7312  0.1904
16314TIP3    H270434   1.959   1.384  16.659 -0.6013  4.7848  0.0867
16315TIP3   OH270435   2.869   4.355  12.460 -0.1870  0.3379 -0.1231
16315TIP3    H170436   2.934   4.409  12.415  0.1104  0.5971  0.6044
16315TIP3    H270437   2.902   4.348  12.549 -0.1185 -1.2311 -0.2548
16316TIP3   OH270438   0.054   2.698   4.111 -0.3185  0.1764  0.1418
16316TIP3    H170439   0.127   2.666   4.163 -1.3323 -1.8325  0.4373
16316TIP3    H270440  -0.018   2.706   4.173 -0.6068  1.2891 -0.3023
16317TIP3   OH270441   3.105   4.579  12.806  0.0346  0.2294 -0.3178
16317TIP3    H170442   3.154   4.593  12.724  0.7148  1.8989  0.3134
16317TIP3    H270443   3.043   4.652  12.809  0.7310  0.8056  1.1217
16318TIP3   OH270444   3.616   6.270   1.471 -0.1287 -0.5993 -0.4478
16318TIP3    H170445   3.543   6.288   1.531  0.8720  0.8272  0.4039
16318TIP3    H270446   3.641   6.180   1.490 -0.4502 -0.4795  0.5901
16319TIP3   OH270447   1.757   4.707  15.630 -0.0091 -0.3545 -0.1174
16319TIP3    H170448   1.720   4.794  15.611  1.7844  0.7742  1.1551
16319TIP3    H270449   1.727   4.652  15.558  0.5331  1.8727 -2.2076
16320TIP3   OH270450   5.516   1.321   3.136  0.7943 -0.1748  0.0283
16320TIP3    H170451   5.469   1.399   3.164 -0.0199 -0.5188 -0.3323
16320TIP3    H270452   5.608   1.343   3.146  0.5619  0.6070  0.5215
16321TIP3   OH270453   0.544   0.748   0.043  0.4692 -0.0711 -0.4543
16321TIP3    H170454   0.567   0.796  -0.037 -0.3276 -0.8984 -1.2067
16321TIP3    H270455   0.579   0.801   0.114  0.8857  0.8667 -1.3371
16322TIP3   OH270456   0.297   4.731   1.011 -0.4680 -0.1087 -0.3157
16322TIP3    H170457   0.334   4.728   1.100  0.1010 -1.6560 -0.5758
16322TIP3    H270458   0.294   4.824   0.990  0.0359  0.2479  1.0654
16323TIP3   OH270459   1.023   3.667   5.814  0.0773  0.0445  0.3839
16323TIP3    H170460   1.002   3.706   5.899 -2.6719 -0.9201  0.2580
16323TIP3    H270461   1.022   3.741   5.752 -1.1776  0.3285  0.7207
16324TIP3   OH270462   0.360   0.402  14.026  0.2439  0.6593  0.5275
16324TIP3    H170463   0.434   0.455  14.058 -0.7770  1.5894  1.4051
16324TIP3    H270464   0.294   0.409  14.095 -1.0569  0.6507 -0.6770
16325TIP3   OH270465   3.848   1.017  16.087 -0.4848 -0.0788  0.5780
16325TIP3    H170466   3.942   1.031  16.087  0.3057 -4.1893  1.1504
16325TIP3    H270467   3.828   0.988  15.997 -0.8831 -0.6330  0.8340
16326TIP3   OH270468   5.580   3.906   1.128 -0.2997 -0.4373 -0.4369
16326TIP3    H170469   5.628   3.910   1.211 -1.6606 -0.4434  0.3755
16326TIP3    H270470   5.637   3.952   1.065  1.5846 -1.9944  0.0368
16327TIP3   OH270471   1.819   0.526  11.265 -0.7232 -0.4078 -0.3378
16327TIP3    H170472   1.871   0.450  11.239  0.9429  0.9039 -1.0418
16327TIP3    H270473   1.729   0.497  11.261 -0.0911 -2.8972  1.2218
16328TIP3   OH270474   4.938   3.735  17.260  0.4075  0.0870 -0.4552
16328TIP3    H170475   5.030   3.728  17.285  1.0768  3.5672 -1.4352
16328TIP3    H270476   4.939   3.732  17.164 -0.6977 -1.0868 -0.4600
16329TIP3   OH270477   3.866   2.489   6.223 -0.0950  0.2188 -0.2195
16329TIP3    H170478   3.928   2.478   6.151  1.3004 -2.6105  1.2559
16329TIP3    H270479   3.800   2.421   6.209  0.9380 -1.3144  1.7689
16330TIP3   OH270480   4.903   3.417  10.900 -0.4873  0.2593 -0.5846
16330TIP3    H170481   4.952   3.362  10.839  1.1511  1.5869 -0.5528
16330TIP3    H270482   4.871   3.490  10.847  0.1751  0.9538 -0.0557
16331TIP3   OH270483   5.259   5.009   0.579  0.0140  0.0603 -0.1848
16331TIP3    H170484   5.318   4.964   0.639  0.9682  0.0971 -1.0661
16331TIP3    H270485   5.171   4.988   0.612  0.5046  0.4978  1.5006
16332TIP3   OH270486   5.293   3.932  16.149  0.2950  0.2054 -0.6717
16332TIP3    H170487   5.202   3.907  16.165  0.8529 -0.3432  2.1737
16332TIP3    H270488   5.338   3.848  16.135  0.9028  0.1095  1.4970
16333TIP3   OH270489   2.641   0.623  15.401 -0.2179  0.3538 -0.0940
16333TIP3    H170490   2.733   0.612  15.376 -0.6345 -0.1055 -1.5123
16333TIP3    H270491   2.644   0.679  15.478  1.1818  1.5415 -0.9553
16334TIP3   OH270492   2.319   3.096   1.000  0.2060 -0.4249  0.3168
16334TIP3    H170493   2.401   3.080   0.953 -0.1348  0.4433 -0.6175
16334TIP3    H270494   2.312   3.191   1.004 -1.0950 -0.4724 -0.2324
16335TIP3   OH270495   1.876   0.614   1.468 -0.8688  0.7211  0.1753
16335TIP3    H170496   1.936   0.638   1.538  0.4688 -2.0755  0.1318
16335TIP3    H270497   1.802   0.572   1.512 -0.7047  0.2425  0.0011
16336TIP3   OH270498   0.665   1.986   4.022  0.2273 -0.0861 -0.6737
16336TIP3    H170499   0.712   2.023   3.947 -0.0236 -0.1512 -0.8652
16336TIP3    H270500   0.651   1.894   3.998 -0.2744  0.0089 -0.7570
16337TIP3   OH270501   3.732   2.416  12.133  0.3953 -0.5516  0.7488
16337TIP3    H170502   3.772   2.350  12.076  1.5741  0.4543  0.3560
16337TIP3    H270503   3.650   2.376  12.162 -1.0808 -0.5778 -2.8569
16338TIP3   OH270504   1.558   1.163   4.756 -0.7334 -0.0194  0.1160
16338TIP3    H170505   1.577   1.250   4.793 -0.4516 -0.0002 -0.0711
16338TIP3    H270506   1.479   1.134   4.802  1.7009 -1.7010  3.6785
16339TIP3   OH270507   5.990   0.207  13.007 -0.3679 -0.1093  0.1098
16339TIP3    H170508   6.032   0.278  12.958 -0.4047 -0.4841 -0.4845
16339TIP3    H270509   6.050   0.188  13.079  1.4356 -1.8008 -1.6887
16340TIP3   OH270510   1.416   1.197  16.720 -0.0420 -0.1557 -0.0772
16340TIP3    H170511   1.424   1.191  16.625  0.7685 -1.5582  0.0509
16340TIP3    H270512   1.429   1.289  16.740 -0.1885  0.1478 -1.3180
16341TIP3   OH270513   0.963   3.751   4.615 -0.0164 -0.2192 -0.3232
16341TIP3    H170514   0.972   3.780   4.524 -2.0698  3.7952  0.5435
16341TIP3    H270515   0.875   3.715   4.620  1.4558 -4.5112 -0.6377
16342TIP3   OH270516   2.688   5.180   1.761 -0.6940  0.8182  0.1592
16342TIP3    H170517   2.619   5.198   1.697 -1.1198 -0.7950  0.1099
16342TIP3    H270518   2.651   5.113   1.818  1.4145 -1.4703 -0.9683
16343TIP3   OH270519   2.980   2.634  13.206 -0.1016  0.1668  0.3321
16343TIP3    H170520   2.905   2.686  13.237  0.1294 -0.2338  1.6302
16343TIP3    H270521   2.940   2.565  13.152 -0.9108 -1.1687  2.5125
16344TIP3   OH270522   4.539   2.853  13.049 -1.1478  0.1338 -0.2847
16344TIP3    H170523   4.473   2.855  13.119 -1.5349  1.1574 -0.6493
16344TIP3    H270524   4.569   2.763  13.046 -2.0327 -0.1954  0.3658
16345TIP3   OH270525   2.520   6.577   3.122  0.7140 -0.4486 -0.0583
16345TIP3    H170526   2.530   6.672   3.123  0.8346 -0.4163 -1.7685
16345TIP3    H270527   2.609   6.543   3.134  0.7986 -0.3376 -0.3764
16346TIP3   OH270528   6.050   3.348  13.554 -0.3046  0.2760  0.2421
16346TIP3    H170529   6.070   3.330  13.462  0.1647 -1.1872  0.6034
16346TIP3    H270530   5.985   3.418  13.551 -0.8637 -0.2675 -1.2310
16347TIP3   OH270531   1.418   5.507   2.216  0.4688 -0.1703  0.7873
16347TIP3    H170532   1.373   5.430   2.183 -0.2851  0.5968 -0.0441
16347TIP3    H270533   1.445   5.483   2.305 -1.5775 -0.6874  1.3287
16348TIP3   OH270534   4.624   3.795   3.204 -0.0128 -0.1092  0.5621
16348TIP3    H170535   4.701   3.742   3.185  0.0555  0.9353 -2.7751
16348TIP3    H270536   4.649   3.883   3.178 -1.9789  0.4525  0.4389
16349TIP3   OH270537   3.598   6.043   3.080  0.0129 -0.5963  0.6681
16349TIP3    H170538   3.686   6.076   3.058 -0.6584  1.8921  1.4072
16349TIP3    H270539   3.591   5.961   3.031  1.5725  0.6839 -1.9468
16350TIP3   OH270540   1.880   6.712   2.543 -0.1536 -0.3961  0.4380
16350TIP3    H170541   1.956   6.683   2.594 -1.0793  1.8507  3.4312
16350TIP3    H270542   1.806   6.665   2.581 -0.6607  0.1029  0.0864
16351TIP3   OH270543   1.721   3.042   4.811 -0.6928 -1.1516 -0.1735
16351TIP3    H170544   1.734   2.967   4.753 -0.7833  0.1301 -1.9532
16351TIP3    H270545   1.626   3.049   4.820 -0.6542 -2.1920  1.3495
16352TIP3   OH270546   5.796   4.856  11.652  0.4969  0.7220 -0.0338
16352TIP3    H170547   5.773   4.866  11.744 -2.8515  0.9462 -0.7726
16352TIP3    H270548   5.847   4.775  11.649 -2.5376 -1.4494  1.6359
16353TIP3   OH270549   0.262   5.110  15.552 -0.1058  0.0622  0.2168
16353TIP3    H170550   0.344   5.108  15.501  0.6654 -1.7269  1.4333
16353TIP3    H270551   0.205   5.048  15.507 -0.7110  1.0637 -0.4346
16354TIP3   OH270552   6.123   2.320   2.489 -0.0011 -0.1235 -0.0436
16354TIP3    H170553   6.118   2.387   2.558  1.0562  1.6252 -1.5837
16354TIP3    H270554   6.215   2.295   2.487 -0.6733 -3.5156  2.0791
16355TIP3   OH270555   2.603   4.723  16.664  0.6135 -0.0755  0.1043
16355TIP3    H170556   2.676   4.667  16.637  2.2041  2.1926 -0.5597
16355TIP3    H270557   2.644   4.794  16.714 -1.3836  0.2682  1.3811
16356TIP3   OH270558   5.883   2.182   3.916 -0.1548  0.0437  0.1395
16356TIP3    H170559   5.845   2.151   3.998  2.0701 -0.6538  0.9830
16356TIP3    H270560   5.952   2.243   3.942  0.2782  0.1876 -1.2290
16357TIP3   OH270561   0.483   3.278   3.927 -0.0711 -0.1864  0.1881
16357TIP3    H170562   0.394   3.276   3.890 -0.1475  2.0433  0.1280
16357TIP3    H270563   0.522   3.195   3.899 -0.4863  0.7869 -4.0301
16358TIP3   OH270564   0.602   5.081  15.870  0.4092 -0.6212  0.0674
16358TIP3    H170565   0.544   5.111  15.939  0.5411 -0.1648 -0.0142
16358TIP3    H270566   0.581   4.989  15.859  1.5023 -1.1253  1.8253
16359TIP3   OH270567   0.796   0.200  16.641 -0.5073 -0.1864 -0.6804
16359TIP3    H170568   0.740   0.127  16.614  0.6369 -1.3007 -0.1566
16359TIP3    H270569   0.848   0.164  16.713 -0.3742  1.3581  0.0206
16360TIP3   OH270570   2.851   2.356   2.812  0.4743 -0.5424 -0.3535
16360TIP3    H170571   2.802   2.436   2.796 -0.5204 -1.4133 -1.9754
16360TIP3    H270572   2.834   2.335   2.904 -3.2373 -1.3844 -1.0569
16361TIP3   OH270573   0.420   1.798  16.775  0.8345 -0.3922 -0.3674
16361TIP3    H170574   0.423   1.893  16.770 -2.4018 -0.2001 -0.8624
16361TIP3    H270575   0.509   1.772  16.797  1.9001  2.7030 -0.5929
16362TIP3   OH270576   0.933   1.564   1.356  0.1352  0.1622 -0.1884
16362TIP3    H170577   0.997   1.614   1.407 -0.0247 -0.8102  1.0208
16362TIP3    H270578   0.983   1.491   1.320 -0.4397 -1.2976  1.7655
16363TIP3   OH270579   2.200   5.167   0.842 -0.1557 -0.1427 -0.0612
16363TIP3    H170580   2.116   5.144   0.880 -1.0106  0.1004 -1.6963
16363TIP3    H270581   2.264   5.149   0.911 -1.5222 -0.4256  1.1786
16364TIP3   OH270582   6.346   4.845   6.760  0.9180 -0.1126  0.1822
16364TIP3    H170583   6.401   4.831   6.683  1.8324 -1.6928  1.0522
16364TIP3    H270584   6.360   4.766   6.814 -2.2358 -0.6218  0.4584
16365TIP3   OH270585   3.408   5.953  11.541  0.1576  0.1695  0.1340
16365TIP3    H170586   3.468   6.007  11.593 -0.8829  1.2063  0.3033
16365TIP3    H270587   3.445   5.865  11.545  1.0572  0.5740  1.1552
16366TIP3   OH270588   0.837   4.789   4.570 -0.0840 -0.4506  0.4742
16366TIP3    H170589   0.851   4.835   4.653 -0.0513 -0.9300  0.7451
16366TIP3    H270590   0.898   4.714   4.575  0.3647 -0.1449 -0.2496
16367TIP3   OH270591   3.709   3.334  17.361 -0.2782 -0.0725  0.1495
16367TIP3    H170592   3.614   3.338  17.361 -0.5844 -1.5644 -4.5421
16367TIP3    H270593   3.737   3.409  17.415 -4.0784  1.9420 -0.3721
16368TIP3   OH270594   2.403   4.080   4.344  0.3571 -0.4898  0.1536
16368TIP3    H170595   2.453   4.044   4.416  1.0330  0.0879 -0.0090
16368TIP3    H270596   2.464   4.081   4.270 -0.1088 -0.4343 -0.2404
16369TIP3   OH270597   3.365   2.079  12.350  0.2579  1.0844 -0.3031
16369TIP3    H170598   3.272   2.055  12.347  0.2778  0.9665 -0.0668
16369TIP3    H270599   3.378   2.111  12.439  0.4804  0.9466 -0.2859
16370TIP3   OH270600   1.084   5.204  14.152  0.0630 -0.1455  0.1978
16370TIP3    H170601   1.023   5.139  14.187 -0.6310  0.4664  0.1455
16370TIP3    H270602   1.090   5.185  14.059 -1.3751  0.8344 -0.1149
16371TIP3   OH270603   0.073   0.652  11.306 -0.1271 -0.1118  0.3303
16371TIP3    H170604   0.016   0.725  11.280  1.5131  0.5223 -1.7934
16371TIP3    H270605   0.137   0.692  11.365 -1.7122 -0.8139  2.6742
16372TIP3   OH270606   1.268   5.631   0.292 -0.7800  0.3133 -0.1273
16372TIP3    H170607   1.222   5.660   0.371 -1.2719 -0.2917 -0.1839
16372TIP3    H270608   1.270   5.709   0.236 -2.9277  0.0462 -0.6701
16373TIP3   OH270609   4.793   3.074  16.426 -0.1267  0.1228 -0.3502
16373TIP3    H170610   4.746   3.138  16.479 -0.8204 -0.3253 -0.4094
16373TIP3    H270611   4.868   3.049  16.480 -1.8385 -1.7575  1.3087
16374TIP3   OH270612   3.205   5.101   5.196 -0.5603 -0.1459  0.1994
16374TIP3    H170613   3.158   5.166   5.248  0.0343 -0.7737  1.5638
16374TIP3    H270614   3.144   5.028   5.189 -1.1834  0.4727 -1.2342
16375TIP3   OH270615   6.462   4.800  15.915 -0.4503  0.0253  0.7899
16375TIP3    H170616   6.487   4.708  15.922  0.0391  0.1415  0.5834
16375TIP3    H270617   6.477   4.822  15.823  1.9533  1.0284  1.3652
16376TIP3   OH270618   3.578   1.362   5.279  0.7066 -0.0244  0.1606
16376TIP3    H170619   3.567   1.368   5.374 -0.4356  0.2547  0.0331
16376TIP3    H270620   3.667   1.393   5.263  0.7496  0.3830  1.0944
16377TIP3   OH270621   2.897   2.011  11.899 -0.4549  0.3408 -0.0006
16377TIP3    H170622   2.976   1.974  11.938 -0.0694 -2.4313 -2.9124
16377TIP3    H270623   2.927   2.050  11.816 -2.0736 -1.0936 -1.3460
16378TIP3   OH270624   4.360   1.978   2.276 -0.0276  0.3143  0.0405
16378TIP3    H170625   4.427   1.928   2.323  1.7546  2.2751 -0.2653
16378TIP3    H270626   4.377   1.959   2.184  1.2591  2.0487 -0.1385
16379TIP3   OH270627   3.290   2.384  14.403  0.1131 -0.2032 -0.2197
16379TIP3    H170628   3.229   2.458  14.410 -0.5676 -0.8619  1.1371
16379TIP3    H270629   3.358   2.415  14.343 -1.4408  0.6334 -1.6512
16380TIP3   OH270630   4.201   3.595  11.315  0.2389  0.4241 -0.0006
16380TIP3    H170631   4.234   3.594  11.225  1.8306  2.0028  0.5207
16380TIP3    H270632   4.274   3.564  11.368 -0.3501  0.4706  0.8637
16381TIP3   OH270633   3.910   0.179  10.435 -0.5696 -0.6936 -0.3706
16381TIP3    H170634   3.864   0.128  10.502  0.0943 -0.6290  0.1500
16381TIP3    H270635   3.871   0.150  10.352 -1.0429 -1.1562  0.0048
16382TIP3   OH270636   1.719   0.951   3.248  0.7566  0.1389 -0.1648
16382TIP3    H170637   1.687   0.898   3.321  0.3012 -1.6217 -1.5701
16382TIP3    H270638   1.685   1.039   3.265 -1.2750 -0.7392  0.5877
16383TIP3   OH270639   5.812   0.152   3.385  0.4282 -0.0606 -0.0588
16383TIP3    H170640   5.872   0.087   3.348 -0.0980 -0.7966  0.3434
16383TIP3    H270641   5.833   0.233   3.340 -0.1562 -0.9093 -1.9504
16384TIP3   OH270642   4.653   4.188   0.994 -0.0280 -0.0256 -0.4908
16384TIP3    H170643   4.734   4.139   0.982  0.6919  1.0765 -0.3179
16384TIP3    H270644   4.633   4.178   1.087 -0.4935 -0.8921 -0.6789
16385TIP3   OH270645   3.157   3.766  11.888  0.1418 -0.0200  0.1054
16385TIP3    H170646   3.167   3.861  11.877 -1.3520  0.2402  0.8241
16385TIP3    H270647   3.068   3.748  11.857  0.6191 -1.2965 -0.5846
16386TIP3   OH270648   0.475   6.114   1.871 -0.3412 -0.1913 -0.3271
16386TIP3    H170649   0.446   6.040   1.923  2.7502 -0.0020  1.9471
16386TIP3    H270650   0.466   6.190   1.929 -0.0491  0.6235 -1.3049
16387TIP3   OH270651   6.264   2.132  14.338 -0.0058  0.4307 -0.0549
16387TIP3    H170652   6.278   2.156  14.246 -0.3095 -0.7550 -0.4165
16387TIP3    H270653   6.178   2.092  14.340  0.1256  0.1715  0.7039
16388TIP3   OH270654   4.577   1.038   2.647 -0.1145  0.5483  0.4547
16388TIP3    H170655   4.535   1.119   2.619  0.4968  1.0125  0.8584
16388TIP3    H270656   4.668   1.046   2.618 -0.3765 -0.6463 -0.8108
16389TIP3   OH270657   2.752   4.634   2.750  0.2030 -0.0631  0.5287
16389TIP3    H170658   2.756   4.681   2.833  0.6128 -1.2669  1.2189
16389TIP3    H270659   2.687   4.565   2.765 -1.3505  1.0087 -0.8762
16390TIP3   OH270660   0.854   3.427   2.541 -0.3947 -0.0770 -0.2842
16390TIP3    H170661   0.770   3.422   2.586 -1.1421 -1.1397 -1.6931
16390TIP3    H270662   0.830   3.431   2.448  1.1061  0.5717 -0.6617
16391TIP3   OH270663   0.173   1.873   0.142 -0.0599  0.3123  0.0086
16391TIP3    H170664   0.107   1.876   0.073 -0.6143 -1.3500  0.4092
16391TIP3    H270665   0.140   1.807   0.203  1.5105  0.1388  0.7136
16392TIP3   OH270666   0.713   5.066  15.108  0.5444  0.8527 -0.6625
16392TIP3    H170667   0.626   5.025  15.106  0.7541  0.3574 -0.1211
16392TIP3    H270668   0.744   5.060  15.018  0.7663 -0.6686 -0.5243
16393TIP3   OH270669   3.488   0.336  12.278  0.2879  0.0763  0.4297
16393TIP3    H170670   3.514   0.292  12.197  0.2598 -0.1304  0.5328
16393TIP3    H270671   3.481   0.428  12.254  0.9556  0.1134  0.3642
16394TIP3   OH270672   4.693   1.362  17.021 -0.1765 -0.2246  0.6323
16394TIP3    H170673   4.657   1.390  17.105 -0.7087 -2.4202  1.1724
16394TIP3    H270674   4.622   1.375  16.958  1.0758  4.2953 -0.2701
16395TIP3   OH270675   2.017   3.287   4.291 -0.5498  0.3269 -0.8093
16395TIP3    H170676   2.011   3.293   4.195 -1.5204  0.6752 -0.7342
16395TIP3    H270677   2.032   3.194   4.308  0.4082  0.3768 -1.3333
16396TIP3   OH270678   0.746   2.571   6.175 -0.4771 -0.4018 -0.2571
16396TIP3    H170679   0.756   2.481   6.203 -1.1966 -0.4524 -0.1525
16396TIP3    H270680   0.828   2.591   6.128  0.2678 -0.6573  0.8979
16397TIP3   OH270681   1.675   5.920  15.211  0.2878 -0.1710  0.2995
16397TIP3    H170682   1.642   5.989  15.153 -1.3639 -0.2301  1.1098
16397TIP3    H270683   1.644   5.944  15.298  2.4103 -0.2824  1.1596
16398TIP3   OH270684   4.162   4.997  14.843  0.6738 -1.1325 -0.0306
16398TIP3    H170685   4.249   5.033  14.825  1.5855  1.0476  6.1479
16398TIP3    H270686   4.101   5.064  14.812  1.4990 -0.5944 -0.5274
16399TIP3   OH270687   2.290   0.479  13.406 -0.5772  0.4263  0.3134
16399TIP3    H170688   2.286   0.528  13.488 -1.6833 -2.0309  1.8707
16399TIP3    H270689   2.223   0.520  13.350 -0.0466  1.9232  0.7307
16400TIP3   OH270690   0.516   5.041  11.498  0.2640  0.2946  0.1172
16400TIP3    H170691   0.563   5.123  11.516  0.8331 -0.0041  0.0138
16400TIP3    H270692   0.475   5.019  11.582  0.8482  0.2206  0.3929
16401TIP3   OH270693   2.379   4.140   2.689  0.3350 -0.3740  0.2313
16401TIP3    H170694   2.321   4.177   2.623  1.1850 -1.4243 -1.1576
16401TIP3    H270695   2.322   4.086   2.744  0.1937 -3.2619 -2.4705
16402TIP3   OH270696   0.908   5.784   1.297  0.3000  0.5983 -0.2105
16402TIP3    H170697   0.861   5.778   1.380  2.2382 -2.3340  0.8175
16402TIP3    H270698   0.846   5.752   1.232 -0.0394 -0.6479  0.6960
16403TIP3   OH270699   2.956   0.062  13.523 -0.2069 -0.0456  0.0926
16403TIP3    H170700   2.953   0.144  13.571 -0.2730  0.2927 -0.4837
16403TIP3    H270701   2.938  -0.005  13.589  2.2926  0.1607  1.0991
16404TIP3   OH270702   2.230   6.122   6.780 -0.1985  0.1012  0.6232
16404TIP3    H170703   2.295   6.167   6.835 -1.3491  1.1593  1.1667
16404TIP3    H270704   2.211   6.185   6.710 -0.7262 -0.1601  0.5307
16405TIP3   OH270705   4.254   5.224   5.206 -0.2654 -0.6074  0.3006
16405TIP3    H170706   4.319   5.156   5.219 -0.1842 -0.8351 -1.1439
16405TIP3    H270707   4.178   5.179   5.169  0.2885  0.2268 -2.0287
16406TIP3   OH270708   3.087   2.793   2.157  0.1070  0.5585 -0.1545
16406TIP3    H170709   3.027   2.744   2.101  1.8630 -0.8705 -0.8596
16406TIP3    H270710   3.064   2.766   2.246  0.3322 -0.7544 -0.4721
16407TIP3   OH270711   3.834   3.733   5.483  0.2441  0.1783 -0.0717
16407TIP3    H170712   3.817   3.639   5.488  0.6673  0.1079  0.1544
16407TIP3    H270713   3.748   3.773   5.470 -0.0317 -0.1857  0.5937
16408TIP3   OH270714   4.789   4.087   5.132  0.3006  0.5971 -0.1494
16408TIP3    H170715   4.737   4.166   5.117  0.4149  0.5852 -0.6459
16408TIP3    H270716   4.879   4.114   5.116  0.4657  0.6414  0.7990
16409TIP3   OH270717   3.676   2.621  15.010  0.4900  0.2189 -1.0188
16409TIP3    H170718   3.706   2.606  15.099  1.2311  0.9795 -1.1264
16409TIP3    H270719   3.590   2.578  15.005 -0.0576  1.0978  0.3845
16410TIP3   OH270720   1.604   0.962   1.386 -0.4807 -0.3868 -0.1830
16410TIP3    H170721   1.572   0.901   1.453 -1.4111  0.3435  0.0548
16410TIP3    H270722   1.673   0.914   1.341 -0.9861 -1.4985  0.2017
16411TIP3   OH270723   2.708   5.839  12.370 -0.5273  0.1759 -0.0741
16411TIP3    H170724   2.787   5.792  12.342 -0.0797  0.3200  0.8980
16411TIP3    H270725   2.685   5.894  12.295  0.5180  0.4057 -0.2471
16412TIP3   OH270726   6.220   2.090   2.141  0.0963  0.1914  0.6771
16412TIP3    H170727   6.278   2.124   2.210  0.3588  0.9921  0.0820
16412TIP3    H270728   6.204   1.999   2.165 -0.2933  0.6135  2.1207
16413TIP3   OH270729   1.994   4.743   2.885  0.1740 -0.8672 -0.1071
16413TIP3    H170730   1.955   4.677   2.828  0.4207 -1.3569  0.2834
16413TIP3    H270731   2.088   4.725   2.882  0.2801 -0.3024 -0.2803
16414TIP3   OH270732   2.395   6.443  14.411 -0.0800 -0.5808  1.1925
16414TIP3    H170733   2.372   6.519  14.358  2.0554  0.5993  1.8670
16414TIP3    H270734   2.380   6.368  14.354  1.8390  0.6195 -1.0081
16415TIP3   OH270735   5.452   2.257   1.368  0.4247 -1.1018 -0.1995
16415TIP3    H170736   5.377   2.212   1.329 -2.5241  2.8001  0.3138
16415TIP3    H270737   5.445   2.238   1.462 -1.3940  0.8634  0.1516
16416TIP3   OH270738   0.679   4.844   5.213  0.7872 -0.2075  0.6732
16416TIP3    H170739   0.657   4.752   5.228 -1.2749  0.3203  1.2853
16416TIP3    H270740   0.639   4.890   5.287  0.0425  1.3671 -0.6455
16417TIP3   OH270741   0.190   6.375  12.330  0.7189  0.2484 -0.9840
16417TIP3    H170742   0.102   6.353  12.301  0.2052  2.1372 -0.9828
16417TIP3    H270743   0.240   6.386  12.249  0.6899  0.1776 -1.0113
16418TIP3   OH270744   3.948   4.121   4.843 -0.6548 -0.1772  0.3258
16418TIP3    H170745   3.877   4.107   4.780  1.1739  1.0718 -2.2333
16418TIP3    H270746   4.014   4.056   4.819  1.4903  2.4395 -1.4778
16419TIP3   OH270747   5.952   6.480  15.391 -0.3222  0.0580  0.2351
16419TIP3    H170748   5.898   6.401  15.379 -0.8388 -0.0381  2.5964
16419TIP3    H270749   6.042   6.448  15.384 -0.5385 -0.5447  0.1014
16420TIP3   OH270750   1.627   4.686  13.587  0.3603  0.0637 -0.4126
16420TIP3    H170751   1.541   4.657  13.617  0.9698  1.0449  2.6958
16420TIP3    H270752   1.613   4.777  13.561  0.3451  0.0507 -0.4493
16421TIP3   OH270753   1.147   0.341   4.138  0.6381  0.4841  0.4177
16421TIP3    H170754   1.181   0.273   4.081 -0.0034  1.5388 -1.2998
16421TIP3    H270755   1.145   0.420   4.084 -1.4597  1.1877  1.3947
16422TIP3   OH270756   1.618   3.156  16.718  0.4190  0.0088 -0.2223
16422TIP3    H170757   1.611   3.085  16.782 -1.5248 -0.1986 -0.6133
16422TIP3    H270758   1.693   3.207  16.748  1.3671 -1.7273  0.5364
16423TIP3   OH270759   1.818   3.266  16.237  0.2971 -0.0565  0.1528
16423TIP3    H170760   1.809   3.187  16.291 -0.7560  0.1164  0.2456
16423TIP3    H270761   1.810   3.339  16.300 -0.2353  0.1394 -0.1400
16424TIP3   OH270762   6.031   6.580  15.155 -0.0099 -0.1134  0.0787
16424TIP3    H170763   6.032   6.487  15.134  1.7688 -0.1297  0.0970
16424TIP3    H270764   6.026   6.583  15.251 -0.1883 -0.1686  0.0728
16425TIP3   OH270765   3.043   2.346   3.122  0.0409 -0.2072 -0.6415
16425TIP3    H170766   3.057   2.266   3.173  1.3814 -0.4696 -1.3800
16425TIP3    H270767   3.072   2.324   3.034  1.5579  1.4333 -0.6074
16426TIP3   OH270768   4.579   1.271  14.954  0.4249  0.2027  0.1896
16426TIP3    H170769   4.539   1.355  14.977  0.1857  0.3689 -0.7923
16426TIP3    H270770   4.506   1.209  14.955  0.1873  0.4298 -1.2060
16427TIP3   OH270771   2.423   1.454  13.417 -0.3241 -0.2532  0.2096
16427TIP3    H170772   2.338   1.497  13.426  0.7935  1.9998  0.6928
16427TIP3    H270773   2.479   1.520  13.376  1.1766 -1.7371 -0.2240
16428TIP3   OH270774   2.524   6.495  15.368 -0.2683  0.8172 -0.0606
16428TIP3    H170775   2.432   6.515  15.383  0.0023  2.1081 -0.0061
16428TIP3    H270776   2.533   6.490  15.273 -0.2640  1.3940 -0.0940
16429TIP3   OH270777   5.642   5.444  13.932 -0.1665  0.2882  0.4413
16429TIP3    H170778   5.621   5.503  13.859  0.5289 -0.7171 -0.5930
16429TIP3    H270779   5.730   5.471  13.960  0.2018 -0.3078 -0.1100
16430TIP3   OH270780   4.988   6.214  16.336  0.2230  0.1386  0.3843
16430TIP3    H170781   4.971   6.305  16.312  0.9616  0.0675 -0.4632
16430TIP3    H270782   5.056   6.219  16.404  0.9247  0.2083 -0.2985
16431TIP3   OH270783   1.262   0.373  13.596  0.1167  0.0069 -0.4815
16431TIP3    H170784   1.324   0.343  13.663 -0.6979 -1.4664 -0.3551
16431TIP3    H270785   1.283   0.322  13.518 -1.4994 -1.2119 -0.1749
16432TIP3   OH270786   0.746   5.929   0.021 -0.2959  0.1950  0.8294
16432TIP3    H170787   0.819   5.921   0.083  0.3837 -0.5797 -0.0443
16432TIP3    H270788   0.731   5.840  -0.011 -0.9760  0.5003  0.2581
16433TIP3   OH270789   2.441   6.622   0.495 -0.2257  0.1016  0.5235
16433TIP3    H170790   2.431   6.712   0.464  2.4845  0.6040  0.8779
16433TIP3    H270791   2.401   6.568   0.427 -1.9187  1.5280  0.3111
16434TIP3   OH270792   6.494   6.290   1.630 -1.0368  0.2508 -0.0630
16434TIP3    H170793   6.475   6.229   1.559  0.9442 -1.4494  0.7406
16434TIP3    H270794   6.487   6.237   1.710  0.1083  1.2071  0.7159
16435TIP3   OH270795   5.605   3.847  15.340 -0.0735 -0.0361  0.4267
16435TIP3    H170796   5.620   3.761  15.301  0.1290  0.0801  0.2465
16435TIP3    H270797   5.568   3.828  15.427  2.8529 -0.3953  1.7014
16436TIP3   OH270798   5.358   6.678  12.327  0.4386 -0.0575 -0.6454
16436TIP3    H170799   5.380   6.595  12.286 -1.0642 -0.0506 -1.5419
16436TIP3    H270800   5.432   6.736  12.305  0.5263 -0.5761 -1.8050
16437TIP3   OH270801   2.502   4.661   3.085 -0.4599  0.2372  0.1023
16437TIP3    H170802   2.529   4.584   3.135  2.4209 -0.4441 -2.2274
16437TIP3    H270803   2.451   4.713   3.147 -1.1973 -2.7659  2.2182
16438TIP3   OH270804   6.114   5.747  16.307  0.0080 -0.3898  0.3428
16438TIP3    H170805   6.146   5.787  16.227  0.0067  1.3195  1.1584
16438TIP3    H270806   6.027   5.713  16.284 -0.1921  0.5053 -0.2520
16439TIP3   OH270807   4.756   1.928   5.041 -0.4565  0.3773  0.3089
16439TIP3    H170808   4.849   1.943   5.056  0.1040 -2.3154  0.1222
16439TIP3    H270809   4.718   1.919   5.128  0.0532 -1.2137  0.4091
16440TIP3   OH270810   0.067   1.993  16.633 -0.4882  0.0176  0.1377
16440TIP3    H170811  -0.012   1.975  16.683 -0.8892  1.0378 -0.0984
16440TIP3    H270812   0.135   2.006  16.699 -0.7629  0.2391  0.3782
16441TIP3   OH270813   5.902   4.568   6.068  0.0979  0.1363  0.8022
16441TIP3    H170814   5.969   4.628   6.035  1.4793 -0.1238  2.9664
16441TIP3    H270815   5.925   4.483   6.032  0.4153  0.2143  0.8210
16442TIP3   OH270816   6.341   0.940  13.541  0.0424 -0.1268  0.8188
16442TIP3    H170817   6.281   0.869  13.517  1.8097 -1.3686 -0.1438
16442TIP3    H270818   6.415   0.930  13.482  1.4453  1.0341  2.2864
16443TIP3   OH270819   4.941   6.769   2.044 -0.2808 -0.1066  0.5923
16443TIP3    H170820   4.870   6.833   2.054 -1.2676 -0.9538 -0.7360
16443TIP3    H270821   5.002   6.811   1.984  0.2140  0.4770  1.4640
16444TIP3   OH270822   5.840   6.756   1.220  0.4157  0.7712  0.1119
16444TIP3    H170823   5.921   6.755   1.169  0.6372 -0.2613  0.4528
16444TIP3    H270824   5.845   6.676   1.273 -0.3162  1.2622  0.9439
16445TIP3   OH270825   2.934   4.018  14.725 -0.0059  0.0083  0.1002
16445TIP3    H170826   2.965   4.069  14.650  0.3687 -0.5953 -0.1710
16445TIP3    H270827   2.907   3.934  14.686 -1.8107  0.4388  0.3564
16446TIP3   OH270828   2.108   3.586   3.729 -1.1360 -0.3924 -0.4606
16446TIP3    H170829   2.090   3.672   3.766 -0.0665 -0.5436  0.4572
16446TIP3    H270830   2.168   3.602   3.657 -0.9723 -0.3639 -0.3179
16447TIP3   OH270831   5.985   2.882  15.098  0.6787  0.1708 -0.0119
16447TIP3    H170832   5.920   2.864  15.166 -0.4554  0.2511 -1.0593
16447TIP3    H270833   6.029   2.798  15.084 -0.9011 -0.5243 -1.0365
16448TIP3   OH270834   2.995   3.424  15.710  0.0553 -0.8783  0.6673
16448TIP3    H170835   3.076   3.383  15.741  1.3744 -0.6940 -2.2392
16448TIP3    H270836   2.972   3.377  15.630 -0.9412  1.0603 -0.2879
16449TIP3   OH270837   3.498   2.778  17.129  0.0857  0.3694 -0.1151
16449TIP3    H170838   3.577   2.725  17.134 -0.6889 -0.7131  0.9620
16449TIP3    H270839   3.521   2.861  17.171  0.9726  0.4971 -0.8324
16450TIP3   OH270840   3.098   5.829   0.111  0.1033  0.0567  0.9636
16450TIP3    H170841   3.065   5.892   0.176  0.5966  1.4007 -0.0384
16450TIP3    H270842   3.188   5.812   0.138  1.0501  2.2771 -0.4525
16451TIP3   OH270843   2.997   4.862  15.880  0.1275 -0.3522  0.1818
16451TIP3    H170844   2.954   4.815  15.808  1.2486 -1.0936 -0.0426
16451TIP3    H270845   2.930   4.920  15.915 -1.1855 -1.7830  0.1455
16452TIP3   OH270846   2.157   5.308   5.130 -0.2681  0.2055  0.6436
16452TIP3    H170847   2.169   5.246   5.202  2.6751  0.5812  0.5804
16452TIP3    H270848   2.162   5.254   5.051 -3.1674 -0.1589  0.6161
16453TIP3   OH270849   3.522   4.889   0.500  0.1865 -0.2279 -0.1674
16453TIP3    H170850   3.459   4.816   0.504  0.0162 -0.0664  0.1762
16453TIP3    H270851   3.577   4.868   0.425 -0.4509 -0.2328 -0.6483
16454TIP3   OH270852   5.056   2.214   0.537 -0.6031  0.4778  0.0591
16454TIP3    H170853   5.079   2.208   0.630 -1.5537  1.2518  0.3611
16454TIP3    H270854   5.034   2.307   0.524 -0.1405  0.4453 -1.0254
16455TIP3   OH270855   4.293   2.207  15.681 -0.2930 -0.5220 -0.1692
16455TIP3    H170856   4.279   2.113  15.695 -1.3076 -0.3238  0.2291
16455TIP3    H270857   4.215   2.248  15.719 -0.9241  0.3453 -2.2473
16456TIP3   OH270858   3.321   2.627   3.311 -0.3506 -0.0315  0.0259
16456TIP3    H170859   3.391   2.601   3.251 -1.3150  0.0393 -1.1720
16456TIP3    H270860   3.364   2.685   3.374  0.9587 -1.1506  0.2172
16457TIP3   OH270861   2.684   5.531  15.538 -0.3997  0.5240  0.3674
16457TIP3    H170862   2.738   5.457  15.508 -0.6154  0.4798  0.0762
16457TIP3    H270863   2.711   5.546  15.628 -0.4147  0.0280  0.4592
16458TIP3   OH270864   6.769   5.970  13.319 -0.0682  0.2016  0.1604
16458TIP3    H170865   6.679   5.937  13.318 -0.5406  1.4003  0.6975
16458TIP3    H270866   6.823   5.894  13.298 -1.2237 -0.4804 -0.4614
16459TIP3   OH270867   4.320   4.152   2.593 -0.0275 -0.4255 -0.4494
16459TIP3    H170868   4.327   4.111   2.679 -0.4027  0.4206 -0.0083
16459TIP3    H270869   4.409   4.178   2.571 -0.1434  0.7529  0.3898
16460TIP3   OH270870   5.199   4.397  14.412  0.1838  0.2798 -0.6373
16460TIP3    H170871   5.202   4.419  14.505  2.7522  0.1015 -0.5955
16460TIP3    H270872   5.232   4.307  14.407  3.1665  1.2901 -1.8531
16461TIP3   OH270873   6.381   4.504  17.155  0.2889 -0.5358 -0.9597
16461TIP3    H170874   6.411   4.495  17.245  1.6762  0.9156 -1.2494
16461TIP3    H270875   6.307   4.564  17.160 -0.0760 -0.9918 -0.7319
16462TIP3   OH270876   5.471   4.950   1.143  0.0221 -0.0629  0.4779
16462TIP3    H170877   5.524   5.007   1.200  1.1451  1.7302 -2.1370
16462TIP3    H270878   5.534   4.886   1.110 -0.6767 -1.2379  1.3535
16463TIP3   OH270879   4.823   0.377   1.730 -0.2709  0.3562  0.3431
16463TIP3    H170880   4.784   0.336   1.653  0.8840  0.9768 -0.6124
16463TIP3    H270881   4.874   0.307   1.771  0.5751  0.4479 -0.5058
16464TIP3   OH270882   4.366   5.090   3.923 -0.1833 -0.5176 -0.3694
16464TIP3    H170883   4.384   5.156   3.990 -1.4001  0.3630 -0.8669
16464TIP3    H270884   4.333   5.140   3.848 -0.0368 -1.5931 -1.1834
16465TIP3   OH270885   4.666   1.078  15.202  1.0696 -0.1030 -0.5539
16465TIP3    H170886   4.586   1.099  15.154  2.0743  1.1642 -1.7597
16465TIP3    H270887   4.692   0.992  15.169 -0.2847 -0.9957  0.5818
16466TIP3   OH270888   4.652   4.426   1.983  0.2151 -0.1602 -0.1842
16466TIP3    H170889   4.610   4.393   2.062 -1.0030 -0.7435 -1.0497
16466TIP3    H270890   4.612   4.512   1.968 -0.5851 -0.6393 -0.9082
16467TIP3   OH270891   4.240   1.786   2.575  0.0905  0.0889  0.0433
16467TIP3    H170892   4.161   1.814   2.621 -0.1788  0.3891 -0.5833
16467TIP3    H270893   4.284   1.868   2.552  2.4719 -0.0180  3.4698
16468TIP3   OH270894   4.713   5.708  12.647  0.3514 -0.3527  0.2977
16468TIP3    H170895   4.653   5.658  12.703 -0.6018 -1.0330 -1.2527
16468TIP3    H270896   4.774   5.643  12.612  0.2442 -0.1384 -0.3041
16469TIP3   OH270897   4.521   3.263   3.006  0.1015  0.3747  0.0699
16469TIP3    H170898   4.432   3.294   2.989  0.4279  2.2810  1.3894
16469TIP3    H270899   4.569   3.283   2.926 -0.7813 -1.3443 -0.9253
16470TIP3   OH270900   3.917   1.571   0.251 -0.5019  0.6176 -0.6950
16470TIP3    H170901   3.974   1.647   0.257  0.1892  0.5373 -4.0380
16470TIP3    H270902   3.973   1.501   0.217 -1.6840 -0.6692 -0.0923
16471TIP3   OH270903   4.701   0.466   3.059 -0.4512  0.5243  1.1863
16471TIP3    H170904   4.741   0.552   3.053 -0.8038  0.6633  0.7256
16471TIP3    H270905   4.757   0.410   3.005 -1.2854  0.8842 -0.1038
16472TIP3   OH270906   0.841   1.247  14.996  0.2703  0.3200  0.0163
16472TIP3    H170907   0.900   1.196  14.941  0.6428 -0.1042  0.7911
16472TIP3    H270908   0.884   1.332  15.004 -0.6284  0.9818 -1.7440
16473TIP3   OH270909   1.768   2.571   2.855 -0.5656 -0.0804 -0.3774
16473TIP3    H170910   1.780   2.567   2.760  2.8402  0.9326 -0.1116
16473TIP3    H270911   1.775   2.479   2.883 -0.2110 -0.2507 -0.9942
16474TIP3   OH270912   0.116   2.007   2.449 -0.2947 -0.2704 -0.1231
16474TIP3    H170913   0.108   1.913   2.463 -1.1092 -0.1884  0.0358
16474TIP3    H270914   0.174   2.037   2.519 -0.6620 -0.5370  0.2978
16475TIP3   OH270915   2.304   4.782   1.190  0.4267 -0.0430  0.1689
16475TIP3    H170916   2.211   4.761   1.182  0.7381 -1.4001 -0.1519
16475TIP3    H270917   2.320   4.787   1.284 -0.2268  1.5347  0.2243
16476TIP3   OH270918   2.643   1.867   3.894  0.0826 -0.4678  0.2093
16476TIP3    H170919   2.680   1.815   3.822  0.5513 -0.2648  0.3012
16476TIP3    H270920   2.635   1.955   3.857  2.5188  0.2059  1.0961
16477TIP3   OH270921   2.203   6.591   0.638  0.4097 -0.1414  0.0428
16477TIP3    H170922   2.282   6.610   0.588  0.1600 -1.2306 -0.8438
16477TIP3    H270923   2.132   6.600   0.574 -0.1354  0.3319  0.6982
16478TIP3   OH270924   2.590   3.066  13.790  0.2862  0.6227 -0.2658
16478TIP3    H170925   2.590   3.087  13.884  1.3493 -1.1016  0.1741
16478TIP3    H270926   2.679   3.086  13.761  1.4364 -3.0147  0.2299
16479TIP3   OH270927   0.424   1.551   1.315  0.0500  0.1946 -0.0528
16479TIP3    H170928   0.337   1.542   1.278 -0.3299  0.6404  0.7200
16479TIP3    H270929   0.483   1.541   1.241 -0.6982  1.2455 -0.8097
16480TIP3   OH270930   2.531   0.614   4.037 -0.0523  0.0128  0.8271
16480TIP3    H170931   2.455   0.561   4.011 -1.1076  1.1918  1.3825
16480TIP3    H270932   2.600   0.550   4.054 -0.6506 -1.0483 -0.5014
16481TIP3   OH270933   3.470   4.525   2.871  0.1405 -0.3430  0.1356
16481TIP3    H170934   3.440   4.616   2.862 -0.8945 -0.5833  0.9407
16481TIP3    H270935   3.442   4.482   2.790  0.5258  0.0210 -0.1942
16482TIP3   OH270936   6.631   2.012   4.930  0.8208 -0.0482 -0.1556
16482TIP3    H170937   6.590   2.032   4.846 -0.4325 -0.9812  0.1929
16482TIP3    H270938   6.608   1.920   4.946 -0.5923  0.6214  2.0843
16483TIP3   OH270939   1.671   3.555  13.036 -0.4807  0.8584  0.0318
16483TIP3    H170940   1.623   3.574  13.117 -0.7160 -0.1567  0.1413
16483TIP3    H270941   1.676   3.460  13.033  0.4796  0.9144 -0.6006
16484TIP3   OH270942   4.614   1.042   3.680  0.3784  0.2314 -0.0454
16484TIP3    H170943   4.671   1.119   3.686 -0.8147  1.1255  0.0279
16484TIP3    H270944   4.627   0.996   3.764  1.0177  0.3841 -0.0506
16485TIP3   OH270945   6.082   6.031   3.338 -0.6148 -0.8718  0.0884
16485TIP3    H170946   6.088   5.944   3.300 -1.4165 -1.1653  0.6169
16485TIP3    H270947   6.117   6.021   3.427 -2.5914 -1.1314  0.8748
16486TIP3   OH270948   4.133   6.438  17.163 -0.1618 -0.3813 -0.4683
16486TIP3    H170949   4.078   6.482  17.098  0.7024  1.1986 -0.1882
16486TIP3    H270950   4.083   6.446  17.245 -0.4158 -0.7234 -0.5915
16487TIP3   OH270951   4.167   2.958   0.190 -0.2267  0.2379  0.2681
16487TIP3    H170952   4.144   2.916   0.107 -1.2101 -0.3784  0.8275
16487TIP3    H270953   4.142   3.049   0.179 -0.4491  0.1377 -0.0782
16488TIP3   OH270954   1.559   0.974   4.154 -0.2615 -0.0390 -0.0598
16488TIP3    H170955   1.484   0.938   4.107  0.9839 -0.9724 -1.4141
16488TIP3    H270956   1.619   0.900   4.166  1.1139  0.9793 -0.3651
16489TIP3   OH270957   6.289   4.858   1.615 -0.2928  0.3267 -0.2249
16489TIP3    H170958   6.381   4.880   1.601 -0.2877  0.4320 -0.0304
16489TIP3    H270959   6.279   4.772   1.575  0.1233 -0.1027  0.5722
16490TIP3   OH270960   0.822   3.955   1.191  0.2584  0.3007 -0.0571
16490TIP3    H170961   0.902   3.936   1.141  0.7566 -1.5979  1.3464
16490TIP3    H270962   0.759   3.984   1.125  1.3016 -0.7291 -1.5890
16491TIP3   OH270963   3.320   1.826  16.026 -0.7306 -0.0800 -0.2297
16491TIP3    H170964   3.306   1.869  16.110 -1.3094  0.0467 -0.3847
16491TIP3    H270965   3.383   1.882  15.981  1.0736 -1.1573  0.8525
16492TIP3   OH270966   1.407   6.610  13.391 -0.2642 -0.1909  0.3437
16492TIP3    H170967   1.352   6.535  13.365 -1.8178  0.9952  0.0460
16492TIP3    H270968   1.479   6.571  13.439  0.1500 -2.0862 -1.6434
16493TIP3   OH270969   4.039   2.546  11.106  0.3207  0.3151  0.3111
16493TIP3    H170970   3.965   2.607  11.117  0.8103  0.8565  0.6421
16493TIP3    H270971   4.042   2.532  11.011  0.6608  1.4033  0.1396
16494TIP3   OH270972   4.101   0.337   1.910 -0.5027  0.5743  0.0934
16494TIP3    H170973   4.151   0.300   1.838 -1.9527  3.0866 -2.4304
16494TIP3    H270974   4.040   0.268   1.936 -1.4690  0.2706 -2.7004
16495TIP3   OH270975   1.032   2.898  15.312 -0.2524  0.0411 -0.5917
16495TIP3    H170976   0.987   2.817  15.337 -1.3546  0.2725 -1.7619
16495TIP3    H270977   1.101   2.907  15.378 -2.0035 -0.2277  1.3875
16496TIP3   OH270978   0.504   1.643   6.411  0.1676  0.4804 -0.2279
16496TIP3    H170979   0.587   1.613   6.375 -0.5832  0.8461 -2.4069
16496TIP3    H270980   0.463   1.564   6.446 -0.1734 -0.4422 -2.5420
16497TIP3   OH270981   5.216   3.382   4.050  0.2518 -0.0771 -0.3334
16497TIP3    H170982   5.159   3.345   4.118  1.0632 -0.8834 -0.0756
16497TIP3    H270983   5.209   3.321   3.977 -1.1891  1.1672 -1.2945
16498TIP3   OH270984   6.049   5.450  16.174  0.4227  0.3471 -0.5576
16498TIP3    H170985   5.994   5.510  16.225  1.3195  0.9949 -0.3242
16498TIP3    H270986   6.038   5.365  16.217  0.3913  0.6841  0.1224
16499TIP3   OH270987   4.757   1.253   0.035  0.1407 -0.8057  0.0154
16499TIP3    H170988   4.840   1.218   0.003  0.4022 -0.4764  0.3233
16499TIP3    H270989   4.776   1.282   0.124 -0.6929 -2.1266  0.6407
16500TIP3   OH270990   4.169   0.868  14.498 -0.0713  0.7356  0.5094
16500TIP3    H170991   4.141   0.949  14.455 -1.5308  0.7650  1.4210
16500TIP3    H270992   4.264   0.870  14.496  0.0204  3.5946  2.4890
16501TIP3   OH270993   2.613   4.283   3.033 -0.3488 -0.4681 -0.8431
16501TIP3    H170994   2.531   4.324   3.062  1.1412  0.6238  2.2957
16501TIP3    H270995   2.599   4.189   3.047 -1.4109 -0.4038 -1.3805
16502TIP3   OH270996   2.214   3.890   2.233  0.0335  0.3051  0.0986
16502TIP3    H170997   2.294   3.884   2.286 -0.6353 -0.0540  1.0975
16502TIP3    H270998   2.236   3.844   2.152  1.0632  0.8327  0.0596
16503TIP3   OH270999   0.962   6.771  15.752 -0.0260  0.1837  1.0826
16503TIP3    H171000   0.952   6.866  15.762 -0.0407  0.0402  2.6843
16503TIP3    H271001   1.053   6.759  15.724 -0.1676  0.6788  0.3729
16504TIP3   OH271002   3.285   0.277  11.425 -0.1495  0.0147  0.0623
16504TIP3    H171003   3.257   0.335  11.496  2.2095  0.3139  0.8329
16504TIP3    H271004   3.280   0.189  11.462  1.6156  0.2100  0.8754
16505TIP3   OH271005   6.501   1.732  12.186 -0.2445 -0.2048  0.2278
16505TIP3    H171006   6.558   1.777  12.249  2.0488 -1.0625 -1.1053
16505TIP3    H271007   6.481   1.648  12.228  1.6062 -0.9411 -0.2549
16506TIP3   OH271008   6.258   1.411  11.173  0.1136 -0.2519 -0.0416
16506TIP3    H171009   6.263   1.405  11.078  2.7610  2.6868 -0.2298
16506TIP3    H271010   6.169   1.442  11.191  0.1959  1.0542 -1.7161
16507TIP3   OH271011   0.158   3.934  15.518 -0.3045  0.6082  0.0518
16507TIP3    H171012   0.246   3.913  15.548  0.0805  1.8113 -0.1812
16507TIP3    H271013   0.119   3.984  15.590 -0.1828  1.5437 -0.5200
16508TIP3   OH271014   4.117   2.710  16.381 -0.1097  1.5326  0.4865
16508TIP3    H171015   4.065   2.679  16.306  1.4351  3.1045 -1.3410
16508TIP3    H271016   4.174   2.636  16.402 -0.4506  1.1233  0.0124
16509TIP3   OH271017   4.698   3.883   0.693 -0.0969  0.6237 -0.0657
16509TIP3    H171018   4.726   3.841   0.774 -0.8995 -0.6602 -0.4248
16509TIP3    H271019   4.657   3.965   0.722 -1.7024 -0.4805  0.9992
16510TIP3   OH271020   1.860   1.398   1.781 -0.5769  0.3042  0.0744
16510TIP3    H171021   1.825   1.480   1.816 -2.0990 -0.6589  0.9209
16510TIP3    H271022   1.930   1.374   1.842 -0.7637  0.4847  0.3618
16511TIP3   OH271023   2.386   4.488  15.279 -0.2223  0.2099 -0.2067
16511TIP3    H171024   2.401   4.460  15.188 -1.0734  3.2819 -1.4213
16511TIP3    H271025   2.464   4.459  15.326  1.0985  0.1041 -2.3338
16512TIP3   OH271026   2.813   2.959   1.417 -0.3503 -0.2638  0.3625
16512TIP3    H171027   2.905   2.963   1.441 -0.3338 -1.6920  0.6160
16512TIP3    H271028   2.793   2.865   1.414 -1.9455  0.0266  0.9410
16513TIP3   OH271029   3.965   5.342  12.901  0.4550  0.0664  0.3966
16513TIP3    H171030   4.001   5.377  12.983 -0.7807  0.8902  0.6165
16513TIP3    H271031   3.912   5.267  12.928  1.3654 -0.6794  0.1568
16514TIP3   OH271032   0.270   3.869  14.357  0.3049 -0.4196 -0.1101
16514TIP3    H171033   0.189   3.837  14.398 -0.9836  0.7319 -1.6644
16514TIP3    H271034   0.241   3.917  14.280  2.4047  1.2579  0.0642
16515TIP3   OH271035   6.594   3.958   4.797 -0.1671  0.1798  0.2311
16515TIP3    H171036   6.500   3.944   4.811 -0.1534 -0.3703 -0.1690
16515TIP3    H271037   6.636   3.893   4.853 -0.0993 -1.5181 -1.6863
16516TIP3   OH271038   3.352   5.336   5.934 -0.2927 -0.2919  0.3968
16516TIP3    H171039   3.362   5.358   6.027  2.6212  0.9751 -0.1261
16516TIP3    H271040   3.332   5.420   5.892  4.0415  0.4023 -0.7223
16517TIP3   OH271041   5.791   2.003   6.433 -0.3673 -1.0334  0.0543
16517TIP3    H171042   5.860   2.015   6.369 -0.7839 -1.1107 -0.4132
16517TIP3    H271043   5.782   2.089   6.474 -1.6968 -0.3229 -1.6233
16518TIP3   OH271044   2.567   0.942  11.477 -0.0658 -0.0297 -0.2184
16518TIP3    H171045   2.620   0.990  11.541  0.3473 -0.1425 -0.4676
16518TIP3    H271046   2.505   0.892  11.530  0.2937 -0.1462  0.0990
16519TIP3   OH271047   0.425   6.548  13.530  0.6786 -0.1249  0.1255
16519TIP3    H171048   0.353   6.525  13.588  1.8885 -1.0649  1.3142
16519TIP3    H271049   0.396   6.520  13.443 -1.3847  1.7912  0.1134
16520TIP3   OH271050   4.578   3.389   1.367  0.2888 -0.2966  0.1133
16520TIP3    H171051   4.651   3.371   1.308  0.9599  1.1289  0.4455
16520TIP3    H271052   4.533   3.306   1.377  0.3345 -0.6486 -2.1505
16521TIP3   OH271053   4.984   1.610  14.912  0.1196 -0.4031  0.1023
16521TIP3    H171054   4.891   1.623  14.897 -0.2511 -0.8592  1.7712
16521TIP3    H271055   5.013   1.690  14.956  0.7336  0.1094 -1.1913
16522TIP3   OH271056   6.220   5.492   1.037  0.2294 -0.5607 -0.3565
16522TIP3    H171057   6.153   5.437   0.996  0.4518 -1.3217  0.2829
16522TIP3    H271058   6.171   5.551   1.094 -0.0723  0.4130 -1.5766
16523TIP3   OH271059   1.067   5.109   3.488 -0.4482  0.4615  0.1765
16523TIP3    H171060   1.159   5.106   3.513 -0.4953  0.3185  0.3336
16523TIP3    H271061   1.020   5.068   3.561 -0.4802 -0.9939 -0.6282
16524TIP3   OH271062   0.398   1.267   1.478  0.3259  0.6023 -0.0980
16524TIP3    H171063   0.476   1.214   1.498 -0.1601  0.3459  1.2017
16524TIP3    H271064   0.327   1.204   1.472 -0.0617  0.9985  0.3113
16525TIP3   OH271065   2.396   6.429  12.167 -0.0100  0.1366 -0.1462
16525TIP3    H171066   2.455   6.401  12.097  0.2857 -0.1582  0.2133
16525TIP3    H271067   2.417   6.521  12.181 -0.0403  0.1836 -0.4175
16526TIP3   OH271068   6.098   4.519   4.142 -0.5668 -0.2041 -0.1051
16526TIP3    H171069   6.031   4.484   4.202 -0.6052 -1.0888 -0.6464
16526TIP3    H271070   6.048   4.560   4.072 -0.5575 -1.1386 -0.6692
16527TIP3   OH271071   4.230   4.011  15.401 -0.0780  0.3633  0.3085
16527TIP3    H171072   4.264   4.100  15.410  1.5436 -0.3241  1.4323
16527TIP3    H271073   4.218   3.981  15.491 -2.7826  0.1909 -0.0332
16528TIP3   OH271074   4.987   0.173  12.411 -0.7339 -0.4024  0.1748
16528TIP3    H171075   5.015   0.082  12.405  1.4124  0.1772  0.4625
16528TIP3    H271076   5.027   0.215  12.334 -0.1073  0.6441  1.0456
16529TIP3   OH271077   5.794   6.762  12.509 -0.1090  0.1647  0.8180
16529TIP3    H171078   5.789   6.820  12.586  0.0771  0.5358  0.5541
16529TIP3    H271079   5.776   6.675  12.544  1.7362  0.0483  1.6107
16530TIP3   OH271080   2.143   5.389   1.466  0.2597 -0.3440 -0.0039
16530TIP3    H171081   2.089   5.438   1.405 -0.2050 -1.7374 -0.7529
16530TIP3    H271082   2.233   5.417   1.448  0.0614 -0.2799 -0.8901
16531TIP3   OH271083   0.454   2.019   0.373 -0.1822  0.2230  0.0748
16531TIP3    H171084   0.513   2.095   0.376  0.0896  0.0770 -1.0459
16531TIP3    H271085   0.421   2.011   0.463  0.7037  0.9411  0.4885
16532TIP3   OH271086   2.072   2.374   3.926  0.1883 -0.1782  0.0685
16532TIP3    H171087   2.109   2.298   3.970  1.8531  1.1871  1.1378
16532TIP3    H271088   2.094   2.361   3.834  0.1851 -1.1081  0.1857
16533TIP3   OH271089   1.540   3.931  12.417 -0.1062  0.3726  0.2568
16533TIP3    H171090   1.609   3.884  12.464  0.3938  0.3057 -0.5353
16533TIP3    H271091   1.463   3.923  12.474  0.4437  0.1462  0.9796
16534TIP3   OH271092   5.985   0.903  13.228 -0.2112  0.3134  0.5958
16534TIP3    H171093   5.992   0.997  13.247 -0.1956  0.0579  1.9416
16534TIP3    H271094   6.055   0.886  13.165 -1.7611  1.6580 -1.6613
16535TIP3   OH271095   4.354   5.030   5.960 -0.2007  0.1074 -0.0426
16535TIP3    H171096   4.400   5.090   6.018 -0.2335 -0.0412  0.1388
16535TIP3    H271097   4.270   5.014   6.004  0.3804 -1.2342  0.6660
16536TIP3   OH271098   1.028   6.552  12.168  0.3456  0.3256 -0.1430
16536TIP3    H171099   1.044   6.609  12.093 -0.6147  0.5827 -0.1623
16536TIP3    H271100   1.016   6.612  12.242 -1.0627  0.1996 -0.2365
16537TIP3   OH271101   5.325   5.884   4.781  0.2364 -0.2488  0.0439
16537TIP3    H171102   5.412   5.921   4.767  0.2023  0.6377  1.8591
16537TIP3    H271103   5.294   5.926   4.861 -1.6775 -0.9028 -0.2954
16538TIP3   OH271104   2.090   1.847   3.741  0.3812  0.5552  0.0262
16538TIP3    H171105   2.073   1.898   3.662 -0.3592  0.1906 -0.0581
16538TIP3    H271106   2.104   1.758   3.709 -0.1454  0.3632  0.3183
16539TIP3   OH271107   3.162   6.265  14.877 -0.4450 -0.0839  0.3375
16539TIP3    H171108   3.181   6.359  14.872 -0.8935  0.0531  1.1155
16539TIP3    H271109   3.242   6.223  14.846 -0.6721  0.5601 -1.2659
16540TIP3   OH271110   5.704   5.933   3.238 -0.2272  0.3696 -0.6197
16540TIP3    H171111   5.736   5.865   3.297  1.0336 -0.3024 -2.0255
16540TIP3    H271112   5.748   6.012   3.267 -0.0179  0.1551 -0.3427
16541TIP3   OH271113   4.748   4.572   1.485 -0.7628  0.2011 -0.4348
16541TIP3    H171114   4.689   4.521   1.430  0.3591 -0.3199 -1.1756
16541TIP3    H271115   4.760   4.518   1.563  0.0770 -0.4962 -1.0289
16542TIP3   OH271116   2.054   3.392  13.039 -0.2465 -0.4583  0.4675
16542TIP3    H171117   2.124   3.445  13.000  0.6442 -0.9572  1.3118
16542TIP3    H271118   2.000   3.364  12.965  1.6929 -1.8497 -0.5228
16543TIP3   OH271119   0.886   4.978  16.283 -0.6192  0.2458  0.3267
16543TIP3    H171120   0.950   5.039  16.321 -1.7396  1.6110  0.0743
16543TIP3    H271121   0.869   4.915  16.353  2.2558 -1.2303 -0.1366
16544TIP3   OH271122   4.795   3.087  13.791  0.0349 -0.3194 -0.0516
16544TIP3    H171123   4.846   3.075  13.871 -1.9307 -0.1214  1.3171
16544TIP3    H271124   4.704   3.078  13.819 -0.7153 -1.0010 -2.4277
16545TIP3   OH271125   0.871   6.151   6.039  0.0711 -0.2284  0.0525
16545TIP3    H171126   0.855   6.181   6.128 -1.0642  1.7751 -0.7557
16545TIP3    H271127   0.784   6.152   5.998  0.6144 -0.8450 -1.1678
16546TIP3   OH271128   3.877   0.420   6.430 -0.1918  0.2076 -0.1802
16546TIP3    H171129   3.942   0.361   6.466  0.2912  0.9815  0.2411
16546TIP3    H271130   3.912   0.445   6.344 -0.1094  0.3355 -0.1099
16547TIP3   OH271131   1.705   5.514  15.476 -0.2334  0.5534  0.4286
16547TIP3    H171132   1.716   5.563  15.394  0.5269 -0.6148 -0.1957
16547TIP3    H271133   1.612   5.494  15.480 -0.3590  1.0748  0.1181
16548TIP3   OH271134   4.975   5.996   3.807  0.0962 -0.4207 -0.1915
16548TIP3    H171135   5.068   6.015   3.794  0.5182 -1.3327  1.2869
16548TIP3    H271136   4.974   5.913   3.855 -1.3889  1.0028  2.4076
16549TIP3   OH271137   2.955   2.092  16.031 -0.1084 -0.7815  0.0598
16549TIP3    H171138   2.893   2.018  16.034 -0.7031 -0.2703  0.6846
16549TIP3    H271139   2.967   2.109  15.938 -0.8324 -0.9622 -0.0753
16550TIP3   OH271140   0.150   2.974  13.996 -0.1125 -0.2178 -0.3024
16550TIP3    H171141   0.168   3.027  13.919  0.9668  0.8713  0.6636
16550TIP3    H271142   0.161   2.883  13.966 -1.0824  0.1066 -1.7424
16551TIP3   OH271143   6.281   3.862  15.158  0.3992  0.2415 -0.0633
16551TIP3    H171144   6.367   3.847  15.196 -0.1430  1.2492  1.6850
16551TIP3    H271145   6.229   3.785  15.182  0.9788 -0.7753 -1.8463
16552TIP3   OH271146   4.007   1.190  12.961 -0.1726 -0.6150  0.0049
16552TIP3    H171147   3.957   1.250  12.907  0.7325 -0.0953 -0.2715
16552TIP3    H271148   4.081   1.163  12.907 -0.2080 -1.4648  0.3583
16553TIP3   OH271149   2.492   1.412   3.382  0.5806 -0.0263 -0.2147
16553TIP3    H171150   2.532   1.350   3.321 -0.2771  0.1551 -0.9723
16553TIP3    H271151   2.457   1.482   3.327  0.6960  0.6633  0.5599
16554TIP3   OH271152   0.763   0.739  14.072  0.7806 -0.3568  0.1944
16554TIP3    H171153   0.846   0.709  14.035  0.2128 -2.2436  0.3849
16554TIP3    H271154   0.758   0.831  14.046  2.4453 -0.4683 -0.6834
16555TIP3   OH271155   4.494   3.952   4.710  0.0315  0.0249 -0.1917
16555TIP3    H171156   4.568   4.003   4.743  2.1203 -0.5431 -3.5287
16555TIP3    H271157   4.497   3.871   4.760  0.4574  0.7508  1.0138
16556TIP3   OH271158   5.338   6.607  17.199  0.2553  0.0393 -0.2637
16556TIP3    H171159   5.410   6.546  17.214  0.4417  0.5792  1.1634
16556TIP3    H271160   5.375   6.693  17.218 -0.8114  0.3050  0.6945
16557TIP3   OH271161   5.563   3.180  11.870 -0.1081  0.1062 -0.0837
16557TIP3    H171162   5.624   3.242  11.831 -0.7628  0.6990 -0.2015
16557TIP3    H271163   5.494   3.169  11.804 -0.7230  0.3680  0.4989
16558TIP3   OH271164   6.090   1.263   6.370 -0.3252  0.4393  0.1807
16558TIP3    H171165   6.157   1.263   6.302 -1.4572 -0.8085 -0.9976
16558TIP3    H271166   6.085   1.354   6.399  1.7341  0.6022  0.2084
16559TIP3   OH271167   5.284   4.593  16.145 -0.2243 -0.0089  0.0174
16559TIP3    H171168   5.344   4.533  16.190  0.6492 -1.1270 -2.4422
16559TIP3    H271169   5.203   4.543  16.135 -1.0460  0.8794  1.8105
16560TIP3   OH271170   4.493   1.024   4.799  0.5225  0.0139 -0.1722
16560TIP3    H171171   4.466   1.035   4.708  1.3090 -0.0173 -0.4210
16560TIP3    H271172   4.582   1.060   4.802  0.1532  0.9147  0.8077
16561TIP3   OH271173   5.409   6.222  14.584 -0.5753  0.5918  0.1034
16561TIP3    H171174   5.327   6.271  14.594 -1.8556 -1.5612  0.9215
16561TIP3    H271175   5.401   6.178  14.499 -0.1370  0.5965  0.0554
16562TIP3   OH271176   5.050   0.585   2.595 -0.3913 -0.2708 -0.0513
16562TIP3    H171177   5.138   0.547   2.592  0.5579  1.7140  0.5869
16562TIP3    H271178   5.021   0.574   2.685 -1.6453 -2.5974 -0.6808
16563TIP3   OH271179   6.728   0.234   1.790 -0.1576  0.7320 -0.5286
16563TIP3    H171180   6.665   0.304   1.805 -0.7797 -0.0427  0.7066
16563TIP3    H271181   6.800   0.252   1.851  0.1672  0.8608 -0.9472
16564TIP3   OH271182   1.315   2.221   4.468  0.1507 -0.4888 -0.3227
16564TIP3    H171183   1.393   2.275   4.460 -0.6922  0.6512 -1.1089
16564TIP3    H271184   1.243   2.276   4.435 -0.6164 -2.3886 -2.0759
16565TIP3   OH271185   3.411   0.084   3.380 -0.4175  0.0993 -0.2114
16565TIP3    H171186   3.432  -0.008   3.368  1.4927  0.5277 -0.4897
16565TIP3    H271187   3.475   0.116   3.444 -1.2408  1.1611  0.1195
16566TIP3   OH271188   1.079   3.881  14.271 -0.1839 -0.0192  0.0299
16566TIP3    H171189   1.058   3.932  14.350 -0.3769 -1.5435  1.0046
16566TIP3    H271190   1.057   3.791  14.295 -0.4014 -0.4937 -1.8474
16567TIP3   OH271191   5.952   1.745   0.538 -0.0251  0.5153 -0.0551
16567TIP3    H171192   5.908   1.784   0.462  0.3273 -0.1330 -0.5992
16567TIP3    H271193   5.963   1.653   0.514  0.4923  0.4049  0.6023
16568TIP3   OH271194   5.108   1.835  17.174  0.0570  0.1377  0.3150
16568TIP3    H171195   5.078   1.787  17.251 -0.3603 -0.7283 -0.3681
16568TIP3    H271196   5.033   1.833  17.114  0.2070  1.2180  0.0646
16569TIP3   OH271197   0.677   2.865  14.518  0.1641  0.5155  0.0939
16569TIP3    H171198   0.683   2.899  14.608  1.2772  0.7033 -0.0392
16569TIP3    H271199   0.748   2.802  14.512  0.2555  0.6888 -0.7382
16570TIP3   OH271200   1.986   1.989  16.475 -0.0727  0.5641  0.3159
16570TIP3    H171201   2.079   2.012  16.476  0.5031 -1.4909 -0.3895
16570TIP3    H271202   1.967   1.959  16.564 -0.5226  2.4626  0.9068
16571TIP3   OH271203   0.024   0.810  11.537  0.3888 -0.3690  0.7982
16571TIP3    H171204   0.099   0.826  11.595 -0.6554  3.9666  1.3501
16571TIP3    H271205  -0.037   0.760  11.591  0.5234  1.3030  2.6502
16572TIP3   OH271206   2.126   4.992   2.805 -0.0316 -0.7384  0.1209
16572TIP3    H171207   2.092   4.916   2.852  0.5020 -1.4841 -0.6759
16572TIP3    H271208   2.210   4.963   2.770 -1.1884 -0.8136 -2.8241
16573TIP3   OH271209   1.872   2.053   1.651 -0.3638 -0.5046  0.1378
16573TIP3    H171210   1.784   2.068   1.616 -0.0366  1.0216 -0.0940
16573TIP3    H271211   1.926   2.123   1.613  0.7629 -0.9014  0.9403
16574TIP3   OH271212   6.571   2.987  13.522 -0.1064 -0.3739  0.0921
16574TIP3    H171213   6.506   2.950  13.462  0.4101 -0.0180 -0.7000
16574TIP3    H271214   6.532   3.070  13.550  0.8527  0.8747 -2.0166
16575TIP3   OH271215   0.799   3.079  15.882 -0.3334  0.2869 -0.4068
16575TIP3    H171216   0.816   3.004  15.825 -0.2036  1.3501 -1.8252
16575TIP3    H271217   0.815   3.156  15.827  0.6583  1.3966  1.3192
16576TIP3   OH271218   6.673   5.814  16.207  0.6374 -0.0189  0.0383
16576TIP3    H171219   6.749   5.871  16.220  0.7080 -0.2390  0.6204
16576TIP3    H271220   6.681   5.785  16.116  0.0641  1.6566 -0.5815
16577TIP3   OH271221   5.539   3.134   5.701  0.5269  0.1468  0.2629
16577TIP3    H171222   5.520   3.103   5.612  1.6552 -0.1547  0.1173
16577TIP3    H271223   5.623   3.094   5.723  0.7688  1.0681  1.0621
16578TIP3   OH271224   2.649   1.254   5.252 -0.3413 -0.4359 -0.6667
16578TIP3    H171225   2.712   1.317   5.286 -1.5877  0.2798  0.4177
16578TIP3    H271226   2.577   1.308   5.218 -0.1673 -1.2132 -2.3583
16579TIP3   OH271227   0.384   0.499  13.239 -0.3013  0.1268  0.2160
16579TIP3    H171228   0.407   0.408  13.221  0.1677  0.7443 -2.6945
16579TIP3    H271229   0.460   0.534  13.286 -0.8710 -1.1333  2.2293
16580TIP3   OH271230   6.549   6.070  13.059  0.0130 -0.7667  0.6456
16580TIP3    H171231   6.504   6.053  13.142 -0.0563  1.0136  1.0105
16580TIP3    H271232   6.640   6.084  13.083  0.0055 -0.3088  0.4123
16581TIP3   OH271233   2.906   0.400  15.640  0.1653  0.1767 -0.2682
16581TIP3    H171234   2.820   0.408  15.682  0.5236  0.7291  0.3636
16581TIP3    H271235   2.920   0.484  15.598  0.6375  0.2750  0.0836
16582TIP3   OH271236   5.331   4.455   0.672  0.1766  0.1670 -0.1896
16582TIP3    H171237   5.318   4.383   0.610 -0.3492  0.9588 -1.0370
16582TIP3    H271238   5.243   4.482   0.697  0.3636 -1.5977  2.7206
16583TIP3   OH271239   0.018   4.635  14.137  0.1715  0.1711 -0.1137
16583TIP3    H171240   0.013   4.604  14.227  2.5117 -0.7273 -0.2240
16583TIP3    H271241  -0.049   4.584  14.090 -0.1425 -0.3336  0.8651
16584TIP3   OH271242   1.299   1.510  12.605 -0.2622  0.1105  0.4870
16584TIP3    H171243   1.231   1.557  12.654 -0.5682 -0.5379  0.6977
16584TIP3    H271244   1.372   1.503  12.666 -0.0355  0.7348  0.2900
16585TIP3   OH271245   3.614   1.440  11.824  0.1890 -0.3531 -0.3801
16585TIP3    H171246   3.703   1.443  11.791  0.0040  1.3905 -0.8209
16585TIP3    H271247   3.588   1.531  11.833 -1.0881 -0.8070  1.0453
16586TIP3   OH271248   3.200   1.694   2.255 -0.4284 -0.9153 -0.8107
16586TIP3    H171249   3.291   1.698   2.225  0.2776  0.4026  1.2777
16586TIP3    H271250   3.172   1.785   2.257 -0.6955 -0.9893  1.5654
16587TIP3   OH271251   0.952   4.591  12.035  0.2302 -0.8036 -0.0694
16587TIP3    H171252   0.913   4.505  12.049  0.7116 -1.2518 -1.3824
16587TIP3    H271253   0.985   4.589  11.945  0.1070  0.8083 -0.1887
16588TIP3   OH271254   2.065   4.329   4.482  0.0151  0.2699  0.0487
16588TIP3    H171255   1.977   4.344   4.514 -0.3023  0.4600 -0.8730
16588TIP3    H271256   2.066   4.368   4.394  0.8271 -0.2662 -0.1981
16589TIP3   OH271257   6.188   2.963   6.242  0.2183  0.1531 -0.0949
16589TIP3    H171258   6.126   3.006   6.300  0.8698  3.8361 -1.8448
16589TIP3    H271259   6.274   2.983   6.280  0.5259 -1.5638  0.1955
16590TIP3   OH271260   0.623   2.403   6.366 -0.1299 -0.2347 -0.2301
16590TIP3    H171261   0.536   2.372   6.393 -0.9034  1.4483 -0.6601
16590TIP3    H271262   0.628   2.492   6.399  0.5407  0.4509 -2.0439
16591TIP3   OH271263   1.253   5.200   4.841 -0.2347  0.3821  0.4953
16591TIP3    H171264   1.324   5.166   4.895  1.0196  1.5589 -0.3708
16591TIP3    H271265   1.295   5.234   4.763 -1.6313  1.9946  0.3792
16592TIP3   OH271266   5.911   2.325  16.715 -0.0320  0.6560  0.1285
16592TIP3    H171267   5.947   2.237  16.699 -0.2930  0.5263  0.2516
16592TIP3    H271268   5.820   2.319  16.685 -0.0006  0.9354 -0.0260
16593TIP3   OH271269   5.303   5.617  13.907  0.2043  0.6060 -0.4259
16593TIP3    H171270   5.262   5.570  13.980 -0.8456  1.4056 -0.4839
16593TIP3    H271271   5.262   5.703  13.908  0.6291  0.8326 -1.5818
16594TIP3   OH271272   2.794   3.572  13.101  0.7447 -0.1618  0.1435
16594TIP3    H171273   2.736   3.512  13.053  1.3483 -0.7672  0.1493
16594TIP3    H271274   2.858   3.601  13.037  3.1865 -3.0294  1.0275
16595TIP3   OH271275   5.141   1.314  10.444  0.4858 -0.7219  0.5035
16595TIP3    H171276   5.235   1.326  10.430  0.1747  1.5738 -0.0233
16595TIP3    H271277   5.119   1.379  10.511 -1.0653  0.2147 -0.8584
16596TIP3   OH271278   5.496   0.593  14.924 -0.0540  0.3368  0.1965
16596TIP3    H171279   5.499   0.675  14.876  1.0807  0.9266  1.2356
16596TIP3    H271280   5.584   0.556  14.914  0.1819  0.4256  1.6879
16597TIP3   OH271281   4.826   6.405  17.121 -0.1284  0.3229 -0.0615
16597TIP3    H171282   4.882   6.394  17.198 -1.2601  0.1354  0.7583
16597TIP3    H271283   4.738   6.417  17.157 -1.2152 -2.8105 -1.3237
16598TIP3   OH271284   5.625   2.114  15.325 -0.4033  0.4805 -0.4993
16598TIP3    H171285   5.577   2.183  15.372 -2.5271  0.1432 -2.0246
16598TIP3    H271286   5.650   2.051  15.393 -0.4447  1.6052  0.5980
16599TIP3   OH271287   4.959   0.794  13.858  0.2325  0.2625  0.2953
16599TIP3    H171288   4.882   0.810  13.804 -0.0475  1.6844  1.0900
16599TIP3    H271289   5.033   0.801  13.797 -0.2052 -0.5784 -0.3598
16600TIP3   OH271290   2.488   4.135  14.503 -0.2953 -0.5184  0.9747
16600TIP3    H171291   2.536   4.054  14.486 -0.9066 -0.6571 -0.1921
16600TIP3    H271292   2.548   4.188  14.554  1.5062 -0.3033 -1.2039
16601TIP3   OH271293   1.887   0.535  15.905  0.2343  0.0660  0.1187
16601TIP3    H171294   1.902   0.537  15.811  1.5241 -1.6184  0.2379
16601TIP3    H271295   1.960   0.585  15.942 -0.0834  0.4395  0.2534
16602TIP3   OH271296   3.315   6.311   3.364 -0.1185  0.1727 -0.2148
16602TIP3    H171297   3.380   6.352   3.307 -0.1230 -0.3950 -0.6300
16602TIP3    H271298   3.334   6.217   3.360 -0.6862  0.0421  0.0114
16603TIP3   OH271299   2.996   2.030  11.460 -0.2760  0.1413 -0.5720
16603TIP3    H171300   2.997   1.939  11.489 -2.3764 -0.0327 -0.9243
16603TIP3    H271301   3.075   2.038  11.407  0.9770 -0.9028  1.0336
16604TIP3   OH271302   2.614   2.886   6.402 -0.0934  0.4348  0.3938
16604TIP3    H171303   2.605   2.960   6.462 -1.1134  0.0529  0.7309
16604TIP3    H271304   2.555   2.819   6.437  1.0330 -0.6662  0.2663
16605TIP3   OH271305   3.337   2.626  16.962 -0.2689 -0.0719 -0.2862
16605TIP3    H171306   3.376   2.649  17.046  2.0282 -0.9197 -1.0444
16605TIP3    H271307   3.279   2.552  16.982 -0.2501  0.1519  0.6319
16606TIP3   OH271308   4.860   6.008   6.464  0.5572  0.7211  0.1914
16606TIP3    H171309   4.897   6.061   6.535  4.3283  0.3802 -1.2731
16606TIP3    H271310   4.891   5.919   6.482 -0.0402  0.2733 -0.8753
16607TIP3   OH271311   1.331   3.507  15.168 -0.3148  0.2224  0.0868
16607TIP3    H171312   1.397   3.538  15.106  0.1720  1.0099  0.9782
16607TIP3    H271313   1.257   3.480  15.112 -0.2953  1.8683 -0.8150
16608TIP3   OH271314   4.808   5.981   5.057  0.2995  0.6015  0.6595
16608TIP3    H171315   4.847   6.068   5.048  0.9409  0.1538 -1.4637
16608TIP3    H271316   4.854   5.927   4.993 -1.3684 -0.8377  0.5863
16609TIP3   OH271317   2.636   0.029  15.137 -0.1125  0.2089 -0.4455
16609TIP3    H171318   2.633   0.064  15.226 -2.1576 -0.9316 -0.0049
16609TIP3    H271319   2.677   0.099  15.086  4.0000 -0.2684  1.7907
16610TIP3   OH271320   5.595   5.155  15.416  0.0779  0.6005  0.4085
16610TIP3    H171321   5.592   5.060  15.427 -0.6594  0.4805 -0.7276
16610TIP3    H271322   5.647   5.169  15.337 -1.4063  1.0313 -0.5335
16611TIP3   OH271323   2.656   6.482   1.005  0.1537 -0.0317 -0.1738
16611TIP3    H171324   2.622   6.510   1.090  1.4032 -1.7561  0.9547
16611TIP3    H271325   2.677   6.564   0.960 -1.7432  0.9465  0.6310
16612TIP3   OH271326   0.985   2.373   2.785 -1.1987  0.1129  0.0100
16612TIP3    H171327   1.043   2.442   2.817  0.8241 -0.2191 -2.5560
16612TIP3    H271328   0.945   2.410   2.706 -0.6100 -1.3723 -1.0235
16613TIP3   OH271329   2.729   2.997   3.845  0.4805  0.2671  0.0386
16613TIP3    H171330   2.809   2.946   3.829 -0.1882 -1.3746  1.6204
16613TIP3    H271331   2.761   3.083   3.872  1.7852 -0.6755  1.6966
16614TIP3   OH271332   5.861   1.616  14.390 -0.0933 -0.5233 -0.2783
16614TIP3    H171333   5.815   1.550  14.442 -0.5905 -0.3861 -0.5369
16614TIP3    H271334   5.954   1.597  14.404 -0.1815  0.0474  1.3691
16615TIP3   OH271335   2.645   4.535   0.205  0.2887 -0.5125  0.8788
16615TIP3    H171336   2.675   4.624   0.224  0.0100 -0.2275  0.0281
16615TIP3    H271337   2.573   4.546   0.143  0.6091 -1.3511  0.3371
16616TIP3   OH271338   1.224   6.705  11.537  0.5860  0.5572  0.2360
16616TIP3    H171339   1.254   6.773  11.598 -1.3259  1.0347  0.7249
16616TIP3    H271340   1.185   6.638  11.593  0.3813  0.1634 -0.3729
16617TIP3   OH271341   6.592   3.008   2.952 -0.0578 -0.4408  0.0403
16617TIP3    H171342   6.549   3.087   2.918 -1.1572 -0.6525  0.8735
16617TIP3    H271343   6.616   3.031   3.041  0.3047 -0.8043  0.0377
16618TIP3   OH271344   5.315   5.687  16.547 -0.2747 -0.1096 -0.4444
16618TIP3    H171345   5.227   5.719  16.567 -0.6613 -0.9123 -0.8238
16618TIP3    H271346   5.373   5.760  16.568 -0.9830  0.2435  0.3224
16619TIP3   OH271347   1.277   3.060   6.118 -0.0077  0.1672  0.3370
16619TIP3    H171348   1.224   3.080   6.040  1.0957  0.2412 -0.4146
16619TIP3    H271349   1.329   2.985   6.092 -1.6491 -1.6486  1.9944
16620TIP3   OH271350   2.705   5.058   3.737  0.2961  0.7078  0.1678
16620TIP3    H171351   2.679   4.971   3.769  0.7739  1.3619  2.4847
16620TIP3    H271352   2.627   5.092   3.693 -0.5760 -0.0672  1.0734
16621TIP3   OH271353   0.535   1.809   3.324 -0.0320  0.2145  0.2307
16621TIP3    H171354   0.489   1.796   3.241  2.1548  1.1766 -1.2334
16621TIP3    H271355   0.470   1.849   3.381 -1.4133  0.1999 -1.2494
16622TIP3   OH271356   0.858   0.311   6.006  0.1194 -0.1888  0.2556
16622TIP3    H171357   0.911   0.320   5.927  1.2571 -2.4570  0.6588
16622TIP3    H271358   0.916   0.340   6.077 -0.1284 -0.1522  0.4425
16623TIP3   OH271359   1.445   5.190  16.604 -0.6307 -0.3722  0.2873
16623TIP3    H171360   1.509   5.201  16.534  0.9846 -0.1257  1.7466
16623TIP3    H271361   1.445   5.096  16.622 -1.1029 -0.4461 -0.0546
16624TIP3   OH271362   1.323   1.113  14.527 -0.4689  0.1223  0.0484
16624TIP3    H171363   1.342   1.184  14.588 -2.1629  0.6481  0.0196
16624TIP3    H271364   1.372   1.038  14.561  1.3818  1.2865  0.0557
16625TIP3   OH271365   1.746   1.029  15.628  0.2024  0.0121  0.1346
16625TIP3    H171366   1.686   0.967  15.667  2.3006 -1.3110  1.4595
16625TIP3    H271367   1.718   1.114  15.662 -1.0787 -0.5138  0.4498
16626TIP3   OH271368   3.635   3.131  13.761  0.2231  0.2253  0.0072
16626TIP3    H171369   3.687   3.203  13.726  0.6028 -0.1050 -0.1259
16626TIP3    H271370   3.544   3.159  13.752  0.3916  1.0639  0.8030
16627TIP3   OH271371   5.386   4.188   5.794  0.0549 -0.2237  0.0126
16627TIP3    H171372   5.432   4.118   5.746 -0.5346 -0.3712 -0.3578
16627TIP3    H271373   5.451   4.223   5.854  1.1605  0.6789 -1.6253
16628TIP3   OH271374   0.329   0.905  11.248  0.3624  0.8536  0.1449
16628TIP3    H171375   0.416   0.916  11.209  0.6064  2.4631  1.0687
16628TIP3    H271376   0.269   0.938  11.181  0.5428  0.7039 -0.0919
16629TIP3   OH271377   6.016   2.560  12.065  0.0351 -0.1914  0.3000
16629TIP3    H171378   5.988   2.471  12.089  1.6164 -0.6113  0.6635
16629TIP3    H271379   5.966   2.580  11.986  0.6671 -1.9734 -0.6034
16630TIP3   OH271380   3.681   1.828  12.614 -0.1822  0.4030 -0.5572
16630TIP3    H171381   3.589   1.841  12.638 -0.8986  0.5816 -3.1127
16630TIP3    H271382   3.708   1.912  12.576  1.6393  0.9397  1.6933
16631TIP3   OH271383   6.772   4.226   5.846 -0.1000 -0.2276 -0.2320
16631TIP3    H171384   6.696   4.229   5.788  0.9010  0.6325 -1.5556
16631TIP3    H271385   6.742   4.179   5.923 -1.8330 -0.3150 -0.9310
16632TIP3   OH271386   1.977   5.743   4.802  0.5371  0.7771 -0.0981
16632TIP3    H171387   2.025   5.774   4.878  0.5393  2.0975 -0.6091
16632TIP3    H271388   2.042   5.744   4.731  0.2221  0.7689 -0.3878
16633TIP3   OH271389   5.087   3.515   2.031 -0.2904  0.4195 -0.3402
16633TIP3    H171390   5.009   3.571   2.028 -1.3056 -0.9717 -0.8161
16633TIP3    H271391   5.078   3.457   1.956  0.3519 -0.8490  0.5273
16634TIP3   OH271392   3.330   5.105   0.452 -0.1988  0.0042 -0.2151
16634TIP3    H171393   3.314   5.022   0.407  1.5624 -0.2728 -0.4032
16634TIP3    H271394   3.261   5.111   0.517 -1.2480 -0.8647 -1.2178
16635TIP3   OH271395   4.593   3.606  13.086 -0.4430  0.1680 -0.3235
16635TIP3    H171396   4.630   3.688  13.052 -3.2793  0.0347 -4.5137
16635TIP3    H271397   4.540   3.633  13.161  0.8765  1.6926  0.1226
16636TIP3   OH271398   1.568   5.227  13.626 -0.2284  0.0844 -0.5327
16636TIP3    H171399   1.660   5.251  13.619  0.7839 -2.9736  0.3917
16636TIP3    H271400   1.552   5.222  13.721 -2.4326  3.7666 -0.5168
16637TIP3   OH271401   2.304   0.642  12.201 -0.2110  0.4711 -0.0197
16637TIP3    H171402   2.281   0.570  12.260 -1.7437  2.8755  2.6030
16637TIP3    H271403   2.221   0.668  12.162  0.3564  0.6732 -1.1227
16638TIP3   OH271404   2.801   5.197   5.156 -0.6696 -0.6467  0.2041
16638TIP3    H171405   2.871   5.233   5.102 -0.3516 -2.0759 -0.3957
16638TIP3    H271406   2.837   5.114   5.189 -2.4386 -1.9641 -0.9988
16639TIP3   OH271407   3.173   0.088  11.792 -0.1327 -0.3236 -0.1041
16639TIP3    H171408   3.097   0.031  11.799  0.0138 -0.5455 -0.3103
16639TIP3    H271409   3.248   0.029  11.786  0.3635 -0.1699  2.7456
16640TIP3   OH271410   5.760   4.262   6.304 -0.0590 -0.1476 -0.0042
16640TIP3    H171411   5.704   4.335   6.332  3.0121  2.7797 -0.7463
16640TIP3    H271412   5.727   4.238   6.218 -0.6497  0.9653 -0.1045
16641TIP3   OH271413   2.645   2.107  15.134  0.3810 -0.9411 -0.0278
16641TIP3    H171414   2.672   2.156  15.056  0.4726 -1.5679 -0.3997
16641TIP3    H271415   2.611   2.025  15.099 -1.4337 -0.4472  0.4582
16642TIP3   OH271416   4.580   2.288   5.049  0.1416 -0.3469  0.4371
16642TIP3    H171417   4.614   2.235   4.977 -0.2825  1.2208 -1.0013
16642TIP3    H271418   4.493   2.253   5.066  0.2177 -0.6909  0.1246
16643TIP3   OH271419   0.876   1.597  16.712  0.7302 -0.8715 -0.4369
16643TIP3    H171420   0.949   1.631  16.764 -0.6449 -0.4717  1.3440
16643TIP3    H271421   0.829   1.539  16.772  0.8033 -2.9177 -2.2149
16644TIP3   OH271422   6.056   6.574   0.307 -0.2663  0.2835 -0.2572
16644TIP3    H171423   6.063   6.492   0.355  1.1519  1.7024  2.1811
16644TIP3    H271424   5.996   6.628   0.359  1.4412  1.9412  0.1126
16645TIP3   OH271425   0.530   5.959  12.481 -0.2944 -0.6844 -0.0790
16645TIP3    H171426   0.456   6.015  12.503  1.3146  2.2407 -1.4285
16645TIP3    H271427   0.504   5.871  12.508 -2.6294  0.8021  3.1017
16646TIP3   OH271428   1.408   2.797  14.550 -0.3607 -0.3312  0.3459
16646TIP3    H171429   1.449   2.837  14.474  0.3679 -0.9645  0.3901
16646TIP3    H271430   1.319   2.832  14.552  0.4765  1.9177  0.8591
16647TIP3   OH271431   4.879   5.120   5.612 -0.3974 -0.3839 -0.4918
16647TIP3    H171432   4.831   5.197   5.583  0.2861  0.5666  0.8310
16647TIP3    H271433   4.891   5.068   5.532 -0.8101  0.9013 -1.4177
16648TIP3   OH271434   4.861   2.752  14.594  0.2532  0.1683 -0.1490
16648TIP3    H171435   4.866   2.739  14.499  0.6186  0.6281 -0.1947
16648TIP3    H271436   4.935   2.702  14.629 -0.2843 -0.5729 -0.0395
16649TIP3   OH271437   1.069   4.567  16.540  0.2568  0.2758 -0.4725
16649TIP3    H171438   1.042   4.486  16.581  0.3252  0.7865  0.6084
16649TIP3    H271439   1.104   4.540  16.454  2.8312 -1.1908  0.9005
16650TIP3   OH271440   6.565   0.751   6.098  0.2068 -0.3464  0.2671
16650TIP3    H171441   6.638   0.707   6.141 -1.2856 -2.1777  1.0528
16650TIP3    H271442   6.530   0.811   6.164 -0.0507 -0.7508  0.5059
16651TIP3   OH271443   5.500   4.713  13.419  0.5573 -0.0479 -0.6111
16651TIP3    H171444   5.585   4.699  13.377  0.7903  3.5416 -1.7434
16651TIP3    H271445   5.522   4.739  13.509  0.4538 -1.4182 -0.1686
16652TIP3   OH271446   4.480   0.459  14.928  0.5307 -0.1855 -0.0665
16652TIP3    H171447   4.488   0.372  14.967 -0.1311  0.0440  0.6136
16652TIP3    H271448   4.421   0.506  14.987  1.0895  0.8072 -0.2815
16653TIP3   OH271449   4.268   3.520   2.991 -0.2037  0.0482  0.7460
16653TIP3    H171450   4.237   3.587   2.930  2.6162 -0.2128 -1.1395
16653TIP3    H271451   4.217   3.442   2.969  0.2147  0.1721 -0.7734
16654TIP3   OH271452   3.658   4.016   5.709 -0.7033 -0.1039 -0.1954
16654TIP3    H171453   3.593   3.961   5.665 -0.5256 -0.1724 -0.3773
16654TIP3    H271454   3.680   4.083   5.644  1.3473 -1.5999 -1.1784
16655TIP3   OH271455   4.079   6.543   5.778 -0.2664  0.4591 -0.7970
16655TIP3    H171456   4.063   6.629   5.739  0.2364  0.0606 -1.9139
16655TIP3    H271457   3.998   6.494   5.762  0.1814  0.0741 -1.9904
16656TIP3   OH271458   3.641   2.783  12.545 -0.2093 -0.4704  0.4183
16656TIP3    H171459   3.616   2.873  12.521 -2.4844 -0.9770  0.6960
16656TIP3    H271460   3.596   2.728  12.481  1.2734 -1.4533  0.1644
16657TIP3   OH271461   3.427   3.362   4.800 -0.4048  0.2875 -0.6292
16657TIP3    H171462   3.332   3.362   4.795 -0.3958 -0.8431 -1.1772
16657TIP3    H271463   3.455   3.432   4.741 -0.9102  1.3957  0.4152
16658TIP3   OH271464   2.702   4.305   1.133  0.1216  0.1441 -0.0509
16658TIP3    H171465   2.706   4.239   1.064  0.3092  0.4127 -0.2971
16658TIP3    H271466   2.720   4.256   1.213  0.8479 -0.0105 -0.2934
16659TIP3   OH271467   5.150   0.486  14.677 -0.4322 -0.0790 -0.0477
16659TIP3    H171468   5.130   0.578  14.692 -0.9164  0.0486 -1.3244
16659TIP3    H271469   5.211   0.462  14.747 -1.0890  0.9325  0.8843
16660TIP3   OH271470   4.729   0.394  16.080 -0.2145  0.2629 -0.3466
16660TIP3    H171471   4.793   0.364  16.015 -0.4164  0.6649 -0.7350
16660TIP3    H271472   4.776   0.461  16.130 -0.7927  1.7118 -1.6514
16661TIP3   OH271473   6.114   0.410  15.669 -0.1134  0.3880 -0.5322
16661TIP3    H171474   6.116   0.315  15.665 -1.4191  0.3637 -3.3071
16661TIP3    H271475   6.034   0.431  15.715  0.3594  0.1713  0.4046
16662TIP3   OH271476   0.409   6.397   2.949  0.4410  0.5805 -0.3127
16662TIP3    H171477   0.466   6.340   3.000 -0.1885  0.6780  0.5173
16662TIP3    H271478   0.349   6.337   2.904 -0.4314  0.5747  0.8133
16663TIP3   OH271479   6.486   2.389   6.309 -0.1741 -0.0195  0.2992
16663TIP3    H171480   6.581   2.390   6.326  0.0018 -0.1043 -0.5997
16663TIP3    H271481   6.461   2.297   6.322  0.0729 -0.2026 -0.4390
16664TIP3   OH271482   0.250   0.784   4.892 -0.0381 -0.2805 -0.0688
16664TIP3    H171483   0.263   0.808   4.984  2.5599  0.5355 -0.5645
16664TIP3    H271484   0.293   0.699   4.883 -0.0197 -0.2237 -0.5661
16665TIP3   OH271485   2.778   4.185  15.485  0.2457  0.8081 -0.5214
16665TIP3    H171486   2.770   4.150  15.396 -0.2819  1.7871 -0.8715
16665TIP3    H271487   2.865   4.157  15.513 -0.2979 -1.1108 -0.6254
16666TIP3   OH271488   1.005   5.782   3.345 -0.1861 -0.2154  0.5448
16666TIP3    H171489   0.999   5.688   3.326  0.3914 -0.2359  0.4451
16666TIP3    H271490   1.061   5.787   3.423  1.8517  0.1803 -0.8695
16667TIP3   OH271491   3.033   0.100   0.649 -0.3113  0.2779 -0.4306
16667TIP3    H171492   2.945   0.122   0.677  0.4467  2.2936  0.5029
16667TIP3    H271493   3.044   0.146   0.566  0.0356  0.4594 -0.2852
16668TIP3   OH271494   2.371   4.188   3.807 -0.3821 -0.5207  0.4405
16668TIP3    H171495   2.421   4.269   3.806 -0.4801 -0.4336  1.5014
16668TIP3    H271496   2.437   4.119   3.816 -0.4001 -0.4533  1.1036
16669TIP3   OH271497   4.531   0.947  13.489 -0.5288  0.5673  0.1176
16669TIP3    H171498   4.526   0.957  13.394 -0.8769  1.3937  0.2175
16669TIP3    H271499   4.587   1.019  13.518  4.3975 -2.7502  0.0437
16670TIP3   OH271500   4.676   2.534   5.631 -0.1383  0.3291 -0.5755
16670TIP3    H171501   4.674   2.460   5.570 -2.2397 -0.0606 -0.1056
16670TIP3    H271502   4.631   2.502   5.709  0.9639  1.3848  0.5270
16671TIP3   OH271503   1.193   0.684   1.722  0.3557 -0.7145  0.6726
16671TIP3    H171504   1.261   0.714   1.783 -0.8977 -0.3061  1.9155
16671TIP3    H271505   1.144   0.618   1.772  0.2878 -1.5659 -0.4774
16672TIP3   OH271506   3.562   2.825  12.925 -0.4374 -0.0102 -0.4819
16672TIP3    H171507   3.637   2.848  12.870  1.0334 -1.8842  0.6464
16672TIP3    H271508   3.568   2.884  13.000 -0.4927  0.2838 -0.7070
16673TIP3   OH271509   0.695   5.160   4.975  0.0914 -0.3613 -0.1335
16673TIP3    H171510   0.689   5.252   5.001  0.2340 -0.5945  0.7660
16673TIP3    H271511   0.786   5.148   4.946 -0.2046  0.0251 -1.2712
16674TIP3   OH271512   5.367   6.231   4.377  0.0780 -0.0415  0.3030
16674TIP3    H171513   5.344   6.288   4.304  0.7037  1.2277  1.0650
16674TIP3    H271514   5.372   6.289   4.452 -0.2441 -1.2726  1.3114
16675TIP3   OH271515   0.667   6.390  11.031 -0.8148  0.2306  0.2517
16675TIP3    H171516   0.604   6.371  10.961  0.5463  0.2856 -1.0237
16675TIP3    H271517   0.673   6.485  11.033 -0.6224  0.2166  0.2556
16676TIP3   OH271518   5.656   3.977  15.117 -0.7489  0.2084  0.3888
16676TIP3    H171519   5.635   3.956  15.208  1.6205 -2.0133  0.5617
16676TIP3    H271520   5.604   3.916  15.065 -1.0091  0.4730  0.3388
16677TIP3   OH271521   0.679   0.411   3.593 -0.5165 -0.3023  0.1450
16677TIP3    H171522   0.762   0.449   3.622 -0.1720 -1.0021  0.0881
16677TIP3    H271523   0.651   0.356   3.666 -0.1177 -1.3306 -0.4629
16678TIP3   OH271524   5.587   5.798  15.455 -0.2044 -0.4274 -0.2698
16678TIP3    H171525   5.560   5.740  15.384 -1.5642 -2.3716  1.6686
16678TIP3    H271526   5.507   5.811  15.507  1.1415 -0.8716  2.0505
16679TIP3   OH271527   4.049   0.487   5.027  0.3519  0.1059  0.4004
16679TIP3    H171528   4.036   0.435   4.947  0.1257  0.4432  0.2143
16679TIP3    H271529   3.981   0.457   5.086  0.2398  0.1697  0.3042
16680TIP3   OH271530   6.331   1.116  14.228 -0.1988  0.3535 -0.4511
16680TIP3    H171531   6.424   1.129  14.214 -0.2368  1.7054  0.3370
16680TIP3    H271532   6.296   1.099  14.140  0.6281  1.0026 -0.9275
16681TIP3   OH271533   4.056   6.075   4.336 -0.2973  0.2628 -0.2900
16681TIP3    H171534   4.126   6.140   4.332  0.0789 -0.2020 -1.7887
16681TIP3    H271535   4.090   6.007   4.394  0.8656 -0.3395 -1.6117
16682TIP3   OH271536   2.807   0.566  14.401  0.0045  0.2606 -0.1692
16682TIP3    H171537   2.808   0.511  14.323  0.2422  1.5510 -1.1228
16682TIP3    H271538   2.715   0.575  14.423 -0.1133  0.4111 -0.7049
16683TIP3   OH271539   0.627   6.053   4.393 -0.1610  0.1130 -0.1585
16683TIP3    H171540   0.687   6.053   4.467  2.1196  1.3375 -1.8773
16683TIP3    H271541   0.572   6.130   4.406 -0.1403  0.0161  0.5115
16684TIP3   OH271542   3.286   5.203  12.840 -0.0228 -0.1173 -0.1234
16684TIP3    H171543   3.347   5.274  12.820 -1.0101  0.8863  0.2828
16684TIP3    H271544   3.326   5.125  12.802  2.0654  0.2818  1.1299
16685TIP3   OH271545   1.012   5.156  17.356  0.0764  0.4123  0.7278
16685TIP3    H171546   0.961   5.187  17.431 -3.6127  0.5340 -1.5853
16685TIP3    H271547   1.020   5.233  17.299  1.6141 -0.0051  0.3301
16686TIP3   OH271548   5.554   6.009  17.376 -0.0728  0.1615 -0.1361
16686TIP3    H171549   5.579   5.937  17.318 -0.8063  1.0574 -1.6150
16686TIP3    H271550   5.515   5.966  17.453  0.2403 -1.0309 -0.6257
16687TIP3   OH271551   3.080   3.613   0.986 -0.2426 -0.2478  0.0336
16687TIP3    H171552   3.112   3.701   0.967  0.6054 -0.3641  0.8572
16687TIP3    H271553   3.159   3.561   1.000 -0.7657 -0.8522  0.8111
16688TIP3   OH271554   2.977   5.544   4.298 -0.0346 -0.1053 -0.2043
16688TIP3    H171555   2.891   5.532   4.341  1.0564 -1.2206  1.8264
16688TIP3    H271556   3.001   5.634   4.320 -0.0396 -0.2701  0.5196
16689TIP3   OH271557   3.764   1.137   3.258 -0.8209 -0.2296 -0.1971
16689TIP3    H171558   3.701   1.071   3.287 -0.6681 -0.3342 -0.1004
16689TIP3    H271559   3.710   1.207   3.221 -1.0216 -0.0521  0.4274
16690TIP3   OH271560   4.497   1.046  15.626 -0.1738 -0.2511  0.0687
16690TIP3    H171561   4.533   1.098  15.698 -0.2119  1.2626 -0.9685
16690TIP3    H271562   4.492   1.107  15.552 -1.9964 -1.2274 -0.6814
16691TIP3   OH271563   2.511   1.340  12.726 -0.0719 -0.2265  0.0676
16691TIP3    H171564   2.505   1.270  12.662  2.0065  1.0228 -1.6442
16691TIP3    H271565   2.603   1.340  12.753 -0.4053  0.7461  1.3180
16692TIP3   OH271566   0.446   6.418   1.970  0.4168 -0.1344  0.4773
16692TIP3    H171567   0.455   6.453   2.059  1.6909  2.5749 -0.5816
16692TIP3    H271568   0.536   6.418   1.936 -0.1639 -0.1380 -1.1356
16693TIP3   OH271569   4.280   1.956   4.741  0.6753  0.3429  0.1555
16693TIP3    H171570   4.230   1.884   4.703  1.8824  0.1350 -1.1290
16693TIP3    H271571   4.249   2.034   4.695 -0.1403  0.5613  1.0551
16694TIP3   OH271572   3.508   0.516  15.925 -0.0868  0.2886  0.1107
16694TIP3    H171573   3.576   0.468  15.972 -1.7938 -1.5607  0.8611
16694TIP3    H271574   3.522   0.493  15.833 -0.9681 -1.9558  0.4610
16695TIP3   OH271575   4.840   5.724   1.840 -1.0071 -0.2610 -0.2375
16695TIP3    H171576   4.797   5.805   1.814  0.3538  0.3939 -0.5250
16695TIP3    H271577   4.835   5.668   1.763 -1.7199 -0.3803 -0.1201
16696TIP3   OH271578   6.051   3.339  13.274 -0.5229  0.8549 -0.1747
16696TIP3    H171579   5.977   3.324  13.215  0.7075 -2.6480 -1.1081
16696TIP3    H271580   6.093   3.418  13.240 -0.6442 -0.2731 -3.2899
16697TIP3   OH271581   5.344   5.943  12.191 -0.4963  0.3689  0.2753
16697TIP3    H171582   5.399   5.953  12.114 -0.0747 -1.6323  0.2514
16697TIP3    H271583   5.368   6.017  12.247 -0.0547  1.2677 -1.0536
16698TIP3   OH271584   0.527   5.811  13.957 -0.1532  0.4612 -0.3042
16698TIP3    H171585   0.592   5.770  14.013  1.6204  1.9012 -1.1889
16698TIP3    H271586   0.529   5.903  13.981 -1.7803  0.5583 -0.4656
16699TIP3   OH271587   4.647   2.828  13.695  0.0778 -0.2718 -0.0628
16699TIP3    H171588   4.711   2.893  13.665  0.9985 -0.4664  1.3985
16699TIP3    H271589   4.695   2.745  13.697 -0.2102 -0.4292  1.0150
16700TIP3   OH271590   1.045   0.443   0.205 -0.1412 -0.2345 -0.1574
16700TIP3    H171591   1.112   0.406   0.148  0.0895  0.6561 -0.4680
16700TIP3    H271592   1.006   0.514   0.154 -1.6114 -0.9852 -0.1522
16701TIP3   OH271593   0.618   5.409   0.751  0.0900  0.2033 -0.4203
16701TIP3    H171594   0.637   5.367   0.834  1.0340 -0.1155 -0.7858
16701TIP3    H271595   0.703   5.418   0.708 -0.1765  1.8231 -0.6696
16702TIP3   OH271596   3.135   0.001  12.530 -0.4108  0.5824  0.1152
16702TIP3    H171597   3.224   0.026  12.505 -0.5053 -0.9243 -2.0227
16702TIP3    H271598   3.097   0.080  12.569  1.4070  1.6391 -0.1534
16703TIP3   OH271599   1.178   1.271   2.797  0.1282  0.0629 -0.3145
16703TIP3    H171600   1.227   1.262   2.879 -0.6432 -1.3401  0.0266
16703TIP3    H271601   1.127   1.351   2.808 -1.4703 -1.1001  1.4424
16704TIP3   OH271602   0.380   5.242   5.005  0.2700  0.3129 -0.3284
16704TIP3    H171603   0.475   5.233   5.013  0.2959 -0.7726 -1.4670
16704TIP3    H271604   0.356   5.303   5.074  1.6879 -0.0521  0.5404
16705TIP3   OH271605   5.736   6.499  13.159  0.0566 -0.0484  0.2199
16705TIP3    H171606   5.779   6.541  13.234  0.3067 -0.8146  0.5114
16705TIP3    H271607   5.717   6.410  13.189 -0.5519 -0.1195 -0.3627
16706TIP3   OH271608   1.136   1.679  16.865 -0.0742 -0.3993  0.2878
16706TIP3    H171609   1.135   1.584  16.862 -0.2431 -0.3732 -1.2310
16706TIP3    H271610   1.229   1.702  16.865 -0.0118 -0.5626  1.8460
16707TIP3   OH271611   0.933   6.164  15.652 -0.0809 -0.4186 -0.0410
16707TIP3    H171612   1.016   6.209  15.663 -0.0521 -0.6433  0.7145
16707TIP3    H271613   0.869   6.218  15.698 -0.1519 -0.8350  0.3585
16708TIP3   OH271614   3.310   2.195  14.026  0.0315  0.4290  1.1092
16708TIP3    H171615   3.332   2.236  13.942 -0.6919  0.9100  1.1498
16708TIP3    H271616   3.377   2.227  14.086 -0.4447  1.4615  1.1097
16709TIP3   OH271617   6.404   3.056  14.542  0.7191 -0.0582 -0.6057
16709TIP3    H171618   6.316   3.049  14.504  1.4408 -1.1818 -2.1567
16709TIP3    H271619   6.413   2.978  14.596  0.0245  1.1035  1.2701
16710TIP3   OH271620   4.830   4.336  13.852 -0.3395  0.0590  0.8041
16710TIP3    H171621   4.853   4.428  13.865  0.1840 -0.0799  0.8973
16710TIP3    H271622   4.822   4.301  13.941  0.8201 -0.3072  0.7831
16711TIP3   OH271623   6.591   4.365  14.911 -0.0918  0.1719 -0.5046
16711TIP3    H171624   6.682   4.377  14.940 -0.4327  0.4062  0.5162
16711TIP3    H271625   6.595   4.372  14.816  1.1802 -1.2851 -0.5971
16712TIP3   OH271626   1.329   6.332  13.340  0.1391  0.6807  0.1061
16712TIP3    H171627   1.332   6.259  13.401 -2.0695 -0.5078 -1.0485
16712TIP3    H271628   1.402   6.317  13.281  1.1523  0.7818  1.3055
16713TIP3   OH271629   2.098   1.112   2.988 -0.1402  0.5901  0.1642
16713TIP3    H171630   2.141   1.198   2.988 -0.3790  0.7105  0.7439
16713TIP3    H271631   2.092   1.089   2.895  0.1142  1.1058  0.0154
16714TIP3   OH271632   5.742   2.241  13.805  0.0121 -0.4694 -0.6184
16714TIP3    H171633   5.669   2.291  13.769 -0.3477 -1.1814 -0.9011
16714TIP3    H271634   5.724   2.151  13.780  0.8238 -0.7015 -0.4040
16715TIP3   OH271635   6.044   0.838   0.443  0.5725 -0.6167  0.2013
16715TIP3    H171636   6.072   0.930   0.442 -0.9723 -0.0764  1.6692
16715TIP3    H271637   5.979   0.832   0.372  1.3720 -0.8380 -0.5248
16716TIP3   OH271638   0.392   1.632  17.033 -0.3957 -0.2190 -0.2705
16716TIP3    H171639   0.459   1.610  16.968  0.2206 -1.1156  0.6424
16716TIP3    H271640   0.362   1.720  17.008  1.2580  0.2787 -0.5994
16717TIP3   OH271641   0.972   4.376   1.995 -0.2305 -0.0085  0.7488
16717TIP3    H171642   0.895   4.319   1.987 -0.4902  0.6236 -3.0343
16717TIP3    H271643   0.950   4.435   2.068 -3.0161 -0.3459  0.3087
16718TIP3   OH271644   6.139   4.169   3.772 -0.0092  0.1365 -0.3266
16718TIP3    H171645   6.077   4.228   3.814 -0.1917  0.1963 -0.6718
16718TIP3    H271646   6.164   4.215   3.691  0.2888 -0.0018 -0.3144
16719TIP3   OH271647   2.426   1.357  12.171 -0.0233 -0.3569  0.1703
16719TIP3    H171648   2.517   1.370  12.199  0.0643  0.8871 -0.6078
16719TIP3    H271649   2.380   1.435  12.199 -0.2843  0.1841 -1.5991
16720TIP3   OH271650   2.875   1.460  11.524  0.1526  0.1808  0.7676
16720TIP3    H171651   2.872   1.431  11.433 -1.8978 -2.2489  1.5061
16720TIP3    H271652   2.801   1.521  11.532  0.1205  0.1244  0.9021
16721TIP3   OH271653   0.417   1.955  14.792 -0.1474 -0.6036  0.1599
16721TIP3    H171654   0.343   1.895  14.794 -0.5487 -0.0954  0.7801
16721TIP3    H271655   0.379   2.040  14.769  0.4665 -0.6507 -1.0706
16722TIP3   OH271656   3.264   2.172  15.701 -0.3633 -0.0741 -0.4510
16722TIP3    H171657   3.341   2.183  15.645  0.6746 -0.2101  0.9100
16722TIP3    H271658   3.299   2.159  15.789 -1.8378 -2.6963 -0.1422
16723TIP3   OH271659   6.710   1.490   3.348 -0.3024 -0.1440 -0.6479
16723TIP3    H171660   6.727   1.582   3.325 -1.1370  0.3804  0.7199
16723TIP3    H271661   6.650   1.459   3.280  0.9612 -0.0808 -1.8331
16724TIP3   OH271662   5.239   5.048  12.732 -0.3833 -0.4072 -0.6798
16724TIP3    H171663   5.332   5.029  12.722 -0.6871 -1.8887 -0.8939
16724TIP3    H271664   5.212   4.996  12.808 -0.2850  2.8746  1.8363
16725TIP3   OH271665   1.809   1.978   3.726 -0.2850  0.0165 -0.4433
16725TIP3    H171666   1.904   1.969   3.727 -0.4463 -2.2455 -0.0827
16725TIP3    H271667   1.778   1.902   3.677 -1.8773  1.5230 -1.9255
16726TIP3   OH271668   3.686   1.997  12.297 -0.7758 -0.1067  0.2216
16726TIP3    H171669   3.600   1.954  12.294 -0.3074 -1.2014  1.4478
16726TIP3    H271670   3.685   2.047  12.378  0.2816 -1.4053  1.0846
16727TIP3   OH271671   1.420   3.504  12.031 -0.2939  0.0093 -0.1915
16727TIP3    H171672   1.362   3.466  11.965  2.4820 -2.7333 -1.3140
16727TIP3    H271673   1.463   3.578  11.986 -1.3878  0.7629 -0.0242
16728TIP3   OH271674   2.331   0.843   2.323  1.0651 -0.0494  0.1487
16728TIP3    H171675   2.404   0.888   2.365  0.5712  1.5260 -0.6357
16728TIP3    H271676   2.253   0.879   2.364  0.6434  0.1004 -0.7540
16729TIP3   OH271677   0.323   5.664  11.735 -0.4665 -0.1686 -0.5276
16729TIP3    H171678   0.352   5.659  11.826 -1.1319  0.8443 -0.2375
16729TIP3    H271679   0.335   5.756  11.711  1.2809 -0.7215 -2.0258
16730TIP3   OH271680   3.110   1.236  12.674  0.0504 -0.6684 -0.8240
16730TIP3    H171681   3.178   1.228  12.607 -0.2083 -1.4969 -0.9927
16730TIP3    H271682   3.155   1.280  12.747  0.4233 -0.0668 -1.3992
16731TIP3   OH271683   2.999   4.137   5.619 -0.3167  0.5209  0.2139
16731TIP3    H171684   2.983   4.148   5.713  1.4927  0.4989  0.5510
16731TIP3    H271685   3.090   4.163   5.607 -0.2151 -0.4518 -1.3650
16732TIP3   OH271686   5.610   6.700   3.557 -0.0894  0.0348  0.2770
16732TIP3    H171687   5.578   6.652   3.481 -0.0098  1.2324 -0.5489
16732TIP3    H271688   5.579   6.790   3.543  0.1615  0.3340  1.5258
16733TIP3   OH271689   2.701   1.289  11.929  0.0133  0.0643  0.3166
16733TIP3    H171690   2.625   1.338  11.961  0.0987  1.2932 -1.2506
16733TIP3    H271691   2.739   1.345  11.861 -0.3260 -2.4351 -2.1221
16734TIP3   OH271692   5.102   0.640   4.950 -0.0631  0.4286  0.1289
16734TIP3    H171693   5.052   0.621   4.871  0.1854  0.6647 -0.0876
16734TIP3    H271694   5.166   0.706   4.923  0.7370 -0.2721  0.2621
16735TIP3   OH271695   2.559   4.127  11.597 -0.0808 -0.0291  0.4196
16735TIP3    H171696   2.473   4.145  11.635 -0.2181  2.0987 -0.7308
16735TIP3    H271697   2.588   4.047  11.641 -2.4540 -0.5936  1.1257
16736TIP3   OH271698   0.376   5.509  15.754  0.2678  0.0584  0.4310
16736TIP3    H171699   0.313   5.442  15.727  0.1810 -0.1552  1.1307
16736TIP3    H271700   0.348   5.588  15.709 -1.1797  0.2428  1.5624
16737TIP3   OH271701   6.720   2.434  16.091  0.5729  0.1986 -0.2258
16737TIP3    H171702   6.655   2.363  16.090 -0.6565  1.2965 -0.9382
16737TIP3    H271703   6.745   2.442  16.183  0.4945 -0.9449 -0.0952
16738TIP3   OH271704   5.335   3.178   0.692 -0.1623 -0.3040  0.2838
16738TIP3    H171705   5.399   3.165   0.622 -0.8277  0.1950 -0.4221
16738TIP3    H271706   5.389   3.191   0.770  0.6057  0.0047 -0.2778
16739TIP3   OH271707   4.959   3.905  14.944  0.2569 -0.0477  0.1673
16739TIP3    H171708   4.938   3.983  14.893  1.3567 -0.2397 -0.6224
16739TIP3    H271709   5.003   3.847  14.881 -1.0388 -1.5617  0.5617
16740TIP3   OH271710   2.501   4.419   2.710 -0.0608  0.1718 -0.7163
16740TIP3    H171711   2.501   4.333   2.752  0.1281 -1.0706 -3.0721
16740TIP3    H271712   2.408   4.441   2.701 -0.3173 -1.4935 -3.1562
16741TIP3   OH271713   6.307   1.470   1.321  0.9750 -0.1315 -0.3845
16741TIP3    H171714   6.246   1.513   1.382  0.9358 -1.2314  0.3665
16741TIP3    H271715   6.358   1.542   1.285 -0.3384  0.7568 -0.5517
16742TIP3   OH271716   1.489   6.199  12.290  0.6629  0.6518  0.1587
16742TIP3    H171717   1.536   6.257  12.350  2.1068  0.0569 -0.3705
16742TIP3    H271718   1.543   6.197  12.211 -0.2186 -0.1130 -0.4429
16743TIP3   OH271719   3.310   4.218  16.249  0.1272  0.2207  0.1406
16743TIP3    H171720   3.286   4.146  16.308 -0.5067 -1.4499 -2.0408
16743TIP3    H271721   3.231   4.273  16.245 -0.1201 -0.1286  0.1824
16744TIP3   OH271722   0.160   3.050   5.939 -0.1256 -0.1653  0.4741
16744TIP3    H171723   0.076   3.085   5.912 -0.9432 -1.0103  1.8019
16744TIP3    H271724   0.198   3.014   5.859 -1.8990 -1.4933  0.1741
16745TIP3   OH271725   3.566   3.137   1.930  0.6723 -0.7790  0.3512
16745TIP3    H171726   3.533   3.073   1.867 -0.8388 -0.2460  0.5433
16745TIP3    H271727   3.573   3.088   2.012 -1.1279 -0.6016  0.6610
16746TIP3   OH271728   5.864   4.427  17.273  0.0083  0.0307  0.6472
16746TIP3    H171729   5.873   4.338  17.240 -1.7751  0.1092 -0.2027
16746TIP3    H271730   5.857   4.481  17.195 -0.7705  0.6625  1.1332
16747TIP3   OH271731   0.455   3.122  14.440  0.6164  0.1279 -0.0361
16747TIP3    H171732   0.530   3.166  14.481  0.6280 -0.4811  0.6196
16747TIP3    H271733   0.470   3.131  14.346  0.9029  1.0280  0.0890
16748TIP3   OH271734   3.246   3.004   0.801  0.1556 -0.0265  0.0903
16748TIP3    H171735   3.261   3.099   0.794  0.4247 -0.0314  0.5471
16748TIP3    H271736   3.323   2.971   0.848  0.7352 -0.6805 -1.2499
16749TIP3   OH271737   4.537   2.333  16.417 -0.1018  0.4283 -0.2303
16749TIP3    H171738   4.550   2.344  16.511 -0.9789  2.8175 -0.3166
16749TIP3    H271739   4.473   2.262  16.410  0.7772 -0.5230  0.8764
16750TIP3   OH271740   4.684   5.991   2.034 -0.2210 -0.5960 -0.7746
16750TIP3    H171741   4.619   5.929   2.000  0.2054 -0.6234 -1.5570
16750TIP3    H271742   4.751   5.935   2.073 -0.7489 -0.5627  0.2097
16751TIP3   OH271743   6.789   5.375   4.206 -0.6968  0.2464  0.0513
16751TIP3    H171744   6.841   5.306   4.246 -0.1314  1.0620  0.7587
16751TIP3    H271745   6.722   5.328   4.156 -1.4700 -0.8377  1.9647
16752TIP3   OH271746   6.733   1.245  15.339  0.1306 -0.2058  0.5604
16752TIP3    H171747   6.749   1.185  15.267  0.7054 -1.7062  1.8814
16752TIP3    H271748   6.697   1.324  15.297 -2.5403 -2.1183 -1.0685
16753TIP3   OH271749   0.937   6.670  11.232 -0.1935 -0.3557 -0.0982
16753TIP3    H171750   1.009   6.725  11.260 -0.5063 -0.1215  0.2550
16753TIP3    H271751   0.879   6.666  11.308  0.1809 -1.7717  0.1520
16754TIP3   OH271752   6.734   3.989  16.404 -0.6921 -0.5210  0.2780
16754TIP3    H171753   6.760   4.081  16.404 -1.6822 -0.2212 -0.5498
16754TIP3    H271754   6.664   3.983  16.469 -0.9585 -0.5856 -0.0126
16755TIP3   OH271755   4.330   1.420   1.919 -0.1301 -0.0475  0.4287
16755TIP3    H171756   4.308   1.494   1.862 -0.2489  0.7817  1.5005
16755TIP3    H271757   4.269   1.351   1.894 -1.4229  0.9283  0.7750
16756TIP3   OH271758   5.654   3.912   2.759  0.6003  0.1678 -0.2085
16756TIP3    H171759   5.632   3.822   2.735 -0.6456  0.3481  0.1734
16756TIP3    H271760   5.638   3.916   2.853 -1.7346  1.3862 -0.5675
16757TIP3   OH271761   3.621   1.280   0.953 -0.4551  0.5656 -0.0704
16757TIP3    H171762   3.596   1.253   0.865  0.9913 -1.5361  0.1012
16757TIP3    H271763   3.582   1.213   1.010  0.8825  0.3541  0.6307
16758TIP3   OH271764   5.103   6.132  13.169  0.5163 -0.0138  1.0757
16758TIP3    H171765   5.050   6.171  13.100 -2.3784  0.2040  3.2062
16758TIP3    H271766   5.157   6.067  13.124 -1.5965 -0.2644 -1.3436
16759TIP3   OH271767   4.393   1.882   5.919  0.6860 -0.3715  0.1063
16759TIP3    H171768   4.359   1.883   6.009 -0.6017 -1.0237 -0.3432
16759TIP3    H271769   4.424   1.792   5.906  1.0196 -0.2356 -0.0527
16760TIP3   OH271770   5.483   6.211  13.624 -0.6352 -0.0441  0.3185
16760TIP3    H171771   5.537   6.217  13.545  1.0285 -1.7445  1.2386
16760TIP3    H271772   5.536   6.252  13.692 -1.8017  0.8835  0.6989
16761TIP3   OH271773   1.825   6.106   2.821 -0.2919 -0.7095  0.3318
16761TIP3    H171774   1.808   6.074   2.909  1.8138 -2.8007  0.0812
16761TIP3    H271775   1.783   6.043   2.763  0.9360 -1.1250 -0.1501
16762TIP3   OH271776   4.578   2.622  16.631  0.0072 -0.0898  0.3314
16762TIP3    H171777   4.617   2.610  16.545  0.1650 -0.1636  0.4140
16762TIP3    H271778   4.616   2.553  16.685 -1.0473 -0.8531  0.1395
16763TIP3   OH271779   3.348   4.826   5.858 -0.5208 -0.4581  0.4177
16763TIP3    H171780   3.292   4.764   5.905  0.8029 -0.0794  2.6637
16763TIP3    H271781   3.295   4.904   5.848 -0.8331 -0.5293  1.3961
16764TIP3   OH271782   2.204   2.391  16.798  0.4147  0.3059 -0.0582
16764TIP3    H171783   2.267   2.462  16.794 -1.4252  2.0554  0.3261
16764TIP3    H271784   2.191   2.365  16.706  1.9367 -0.3778 -0.1141
16765TIP3   OH271785   5.251   0.548  17.334  0.0906  0.1723  0.0217
16765TIP3    H171786   5.159   0.522  17.339 -0.1905  1.1554 -0.0109
16765TIP3    H271787   5.266   0.566  17.241  0.1607  0.5897  0.1154
16766TIP3   OH271788   5.254   4.529   2.607 -0.3603  0.0916  0.4947
16766TIP3    H171789   5.193   4.543   2.534 -1.2163  0.6448  1.2794
16766TIP3    H271790   5.262   4.434   2.614  1.0608  0.0270 -1.3576
16767TIP3   OH271791   1.596   2.282   0.754  0.1177 -0.2932 -0.4467
16767TIP3    H171792   1.512   2.317   0.724 -0.6928 -0.3271  1.6530
16767TIP3    H271793   1.573   2.208   0.809  1.3692  0.9772  1.9111
16768TIP3   OH271794   2.155   3.469  16.850 -0.1890 -0.5070 -0.0484
16768TIP3    H171795   2.072   3.511  16.871  0.1412 -0.2903  0.8687
16768TIP3    H271796   2.221   3.529  16.885  0.4103 -0.1575 -1.6594
16769TIP3   OH271797   0.124   2.238  15.508 -0.4732 -0.2192 -0.0004
16769TIP3    H171798   0.122   2.330  15.534 -0.1453 -0.3272  0.4065
16769TIP3    H271799   0.112   2.240  15.413 -2.6862  0.1285  0.2250
16770TIP3   OH271800   4.881   1.810   3.300 -0.0372  0.3306  0.6529
16770TIP3    H171801   4.942   1.779   3.233  0.8359 -0.6039  1.8464
16770TIP3    H271802   4.825   1.734   3.317  1.8792 -0.6213  3.3413
16771TIP3   OH271803   1.413   4.437  14.594 -0.3030  0.8600  0.2279
16771TIP3    H171804   1.337   4.488  14.622 -1.1964  0.1424 -0.7783
16771TIP3    H271805   1.445   4.483  14.516 -0.4458  0.5191 -0.0385
16772TIP3   OH271806   6.145   1.775   2.602 -0.4789 -0.3449 -0.6435
16772TIP3    H171807   6.207   1.831   2.649 -0.3948 -0.1020 -1.0391
16772TIP3    H271808   6.134   1.699   2.659  0.1181 -0.3545 -0.5282
16773TIP3   OH271809   6.723   3.645   3.470 -0.0211  0.1387 -0.4189
16773TIP3    H171810   6.766   3.661   3.386  3.2115 -1.2206  0.7811
16773TIP3    H271811   6.756   3.714   3.527 -0.4175 -0.2233  0.2636
16774TIP3   OH271812   2.610   3.313  10.946 -0.7083 -0.6374 -0.3240
16774TIP3    H171813   2.656   3.395  10.932 -1.3693 -0.1545  0.2880
16774TIP3    H271814   2.540   3.314  10.880 -1.8106  0.1313  0.8132
16775TIP3   OH271815   1.072   4.698   2.513  0.2352 -0.3837 -0.1448
16775TIP3    H171816   1.005   4.759   2.544 -0.4349 -1.7528  1.2177
16775TIP3    H271817   1.022   4.623   2.480  1.0699 -1.7505  1.5559
16776TIP3   OH271818   1.435   2.368   4.946 -0.3565  0.0264 -0.3612
16776TIP3    H171819   1.377   2.301   4.983  0.0793  0.4874  1.2311
16776TIP3    H271820   1.514   2.320   4.921 -0.7905 -0.3492 -1.0355
16777TIP3   OH271821   1.364   2.817   2.480 -0.6071 -0.0059 -0.1385
16777TIP3    H171822   1.398   2.742   2.529 -0.4071  0.8868  1.1575
16777TIP3    H271823   1.315   2.867   2.545  0.5843  1.8105 -0.5523
16778TIP3   OH271824   5.950   5.335  16.646 -0.0958 -0.1312  0.3811
16778TIP3    H171825   5.971   5.242  16.642 -1.1332 -0.3731  0.0523
16778TIP3    H271826   6.034   5.380  16.638  0.2515 -1.0227 -1.3827
16779TIP3   OH271827   1.850   3.968  15.580 -0.1898 -0.0247  0.2737
16779TIP3    H171828   1.880   4.056  15.558 -2.7099  1.0641  0.8235
16779TIP3    H271829   1.792   3.945  15.507 -3.2456  0.8118  2.2630
16780TIP3   OH271830   3.616   3.645   2.887  0.3983  0.0707  0.6700
16780TIP3    H171831   3.558   3.710   2.848 -2.0581 -1.4487  1.5612
16780TIP3    H271832   3.615   3.664   2.981  2.1005  0.5521  0.6182
16781TIP3   OH271833   0.414   2.758   1.214 -0.4286 -0.0278 -0.1040
16781TIP3    H171834   0.500   2.789   1.186 -0.5885  1.6559  1.1172
16781TIP3    H271835   0.366   2.744   1.132  1.5547 -2.9789 -0.9391
16782TIP3   OH271836   1.777   4.835   3.404  0.3085  0.1499 -0.7166
16782TIP3    H171837   1.728   4.917   3.399  0.6582  0.4306  0.2222
16782TIP3    H271838   1.826   4.831   3.322  0.3012  0.8892 -0.7651
16783TIP3   OH271839   0.155   5.017   0.686 -0.8927  0.2161  0.0358
16783TIP3    H171840   0.225   5.074   0.656  0.0612 -1.1973 -0.4959
16783TIP3    H271841   0.165   4.937   0.636 -2.4946 -0.2785  0.4259
16784TIP3   OH271842   2.434   3.751   1.334  0.1075 -0.1070 -0.2636
16784TIP3    H171843   2.468   3.840   1.329  0.5419 -0.2379  0.2856
16784TIP3    H271844   2.510   3.695   1.318 -0.3010 -0.3771 -1.3202
16785TIP3   OH271845   3.886   0.301   3.017  0.0987  0.4484  0.2663
16785TIP3    H171846   3.920   0.317   2.929  0.6091 -2.8416 -0.2630
16785TIP3    H271847   3.791   0.310   3.008  0.1345 -0.0058 -0.6630
16786TIP3   OH271848   6.565   1.509   4.929 -0.1558 -0.4049 -0.3025
16786TIP3    H171849   6.489   1.458   4.956  0.1308 -0.4838  0.3622
16786TIP3    H271850   6.622   1.447   4.885 -0.0921 -0.5269 -0.0484
16787TIP3   OH271851   0.575   2.912  12.454 -0.3085 -0.1157 -0.5940
16787TIP3    H171852   0.505   2.974  12.434  0.2115  0.4078 -0.7827
16787TIP3    H271853   0.604   2.936  12.542  0.8793  0.8491 -1.2274
16788TIP3   OH271854   4.087   0.445  13.026  0.4685  0.5205 -0.2812
16788TIP3    H171855   3.999   0.458  12.990  0.9926 -0.5768 -2.0664
16788TIP3    H271856   4.145   0.484  12.962  1.3051  2.0646  1.3252
16789TIP3   OH271857   0.844   1.378  16.877 -0.1520  0.3066  0.5546
16789TIP3    H171858   0.935   1.397  16.900 -0.0475 -0.5773  0.8985
16789TIP3    H271859   0.843   1.284  16.858 -1.5316 -0.3755  3.3747
16790TIP3   OH271860   4.786   5.497   5.118  0.3048  0.3172  0.4363
16790TIP3    H171861   4.748   5.506   5.206 -1.6195 -0.4310 -0.2746
16790TIP3    H271862   4.758   5.575   5.072  0.2101  0.0766  0.0869
16791TIP3   OH271863   0.232   0.338  12.845  0.9914  0.4251  0.2666
16791TIP3    H171864   0.158   0.279  12.860  0.1226  1.7074  1.1871
16791TIP3    H271865   0.302   0.280  12.815 -0.0859 -0.9530  0.2872
16792TIP3   OH271866   6.802   0.679   3.719 -0.8442  0.7023  0.5548
16792TIP3    H171867   6.816   0.773   3.712 -0.4081  0.6086  0.0357
16792TIP3    H271868   6.891   0.642   3.724 -0.9459  0.2146 -0.8346
16793TIP3   OH271869   3.595   3.717  15.946  0.4621  0.2799 -0.3484
16793TIP3    H171870   3.540   3.771  16.003  1.1587  0.9127 -0.2671
16793TIP3    H271871   3.671   3.695  16.000  1.7511  1.9542 -1.3991
16794TIP3   OH271872   5.679   4.063  15.505  0.0057  0.2598 -0.1500
16794TIP3    H171873   5.588   4.090  15.493 -0.6254 -1.3133  0.8480
16794TIP3    H271874   5.696   4.001  15.434  1.0349  2.1290 -1.6370
16795TIP3   OH271875   6.416   5.307   1.086 -0.3858 -0.1799 -0.0452
16795TIP3    H171876   6.411   5.226   1.035 -2.5527 -0.8840  1.1475
16795TIP3    H271877   6.348   5.363   1.048  1.7703  1.6103 -1.5516
16796TIP3   OH271878   4.777   2.852  11.069 -0.0175 -0.6656  0.3050
16796TIP3    H171879   4.731   2.912  11.009  1.7955  0.2012 -0.2776
16796TIP3    H271880   4.708   2.818  11.125 -1.4740  0.1228 -0.9147
16797TIP3   OH271881   4.145   5.450  15.645 -0.5792  0.0368  0.0251
16797TIP3    H171882   4.193   5.468  15.564 -0.4061  1.1805  0.3655
16797TIP3    H271883   4.066   5.404  15.616 -0.2295 -0.1176 -0.7244
16798TIP3   OH271884   5.872   1.804   4.024  0.3413 -0.4762 -0.0381
16798TIP3    H171885   5.799   1.855   3.989  1.5887 -0.1368 -2.3480
16798TIP3    H271886   5.846   1.783   4.113 -2.1604  0.4061 -0.4772
16799TIP3   OH271887   0.868   2.624  11.542 -0.1134  0.4903  0.0362
16799TIP3    H171888   0.784   2.601  11.503 -1.0310 -0.0162  2.1779
16799TIP3    H271889   0.850   2.633  11.635  2.0421  1.2583  0.4368
16800TIP3   OH271890   4.238   5.275   2.622 -0.2618  0.4231  0.3741
16800TIP3    H171891   4.163   5.223   2.592  0.2588 -0.5363  0.6991
16800TIP3    H271892   4.198   5.356   2.656 -1.2323 -0.3964  1.2724
16801TIP3   OH271893   5.881   5.749  11.715 -0.1760 -0.0408 -0.0575
16801TIP3    H171894   5.911   5.767  11.804 -1.6597  1.4210  0.1912
16801TIP3    H271895   5.837   5.830  11.688  0.5277 -0.3360 -2.2575
16802TIP3   OH271896   0.285   5.451  16.470 -0.4939  0.6211  0.3204
16802TIP3    H171897   0.321   5.377  16.519 -0.0721 -0.2653 -1.2557
16802TIP3    H271898   0.285   5.524  16.533  0.8229 -0.2352  1.3679
16803TIP3   OH271899   5.639   2.815  16.065  0.7109  0.1202  0.1698
16803TIP3    H171900   5.685   2.777  15.990  1.6953  0.1731  0.7375
16803TIP3    H271901   5.596   2.741  16.107  0.6306  0.0061 -0.1083
16804TIP3   OH271902   2.884   4.986  16.498  0.6569  0.0326 -0.1518
16804TIP3    H171903   2.823   4.979  16.571  1.2448 -2.8261  0.2122
16804TIP3    H271904   2.968   5.007  16.539  0.6566  0.1527 -0.2118
16805TIP3   OH271905   1.986   0.280  12.002 -0.1819 -0.1088  0.0593
16805TIP3    H171906   2.030   0.222  11.940  1.8191  0.0514  1.2208
16805TIP3    H271907   2.012   0.368  11.975  1.2720 -0.0612  1.4213
16806TIP3   OH271908   2.009   3.157   4.024  0.4192  0.0054  0.3952
16806TIP3    H171909   2.039   3.153   3.934  1.6621  3.2490  0.5580
16806TIP3    H271910   1.966   3.072   4.038  1.5539 -1.2367 -2.6917
16807TIP3   OH271911   2.303   0.137   4.650  0.8860 -0.0185  0.0369
16807TIP3    H171912   2.275   0.216   4.604 -0.0539  1.6710  3.1968
16807TIP3    H271913   2.389   0.117   4.613  0.1957  1.1216 -2.4022
16808TIP3   OH271914   3.530   0.491  14.835 -0.0553 -0.0426  0.0826
16808TIP3    H171915   3.602   0.496  14.772 -0.6557  0.4548 -0.5896
16808TIP3    H271916   3.453   0.469  14.782 -0.2330 -1.5550  0.9258
16809TIP3   OH271917   1.943   4.170   2.378 -0.5798 -0.7721  0.1253
16809TIP3    H171918   1.856   4.133   2.366 -1.3702  0.2856  2.1432
16809TIP3    H271919   1.930   4.265   2.373  0.8360 -0.6224 -1.6307
16810TIP3   OH271920   6.475   3.938   2.763 -0.4430 -0.2111  0.5140
16810TIP3    H171921   6.502   3.877   2.832 -2.2856 -0.0731  1.4229
16810TIP3    H271922   6.380   3.927   2.757 -0.4145  0.2050 -1.6381
16811TIP3   OH271923   0.901   1.431  10.682  0.1457 -0.4757  0.3294
16811TIP3    H171924   0.927   1.372  10.611  1.2629 -0.2969  0.5653
16811TIP3    H271925   0.825   1.478  10.648  0.4705 -0.6191 -0.6333
16812TIP3   OH271926   3.061   6.476  14.020  0.5394  0.0469 -0.1231
16812TIP3    H171927   3.078   6.484  14.114 -2.0204 -1.5546  0.5836
16812TIP3    H271928   3.048   6.566  13.990 -1.6882  0.4513  1.7838
16813TIP3   OH271929   1.731   0.729  17.354 -0.1865 -0.0133 -0.3943
16813TIP3    H171930   1.686   0.703  17.435  1.0783  1.3202  0.8082
16813TIP3    H271931   1.824   0.733  17.379 -0.1091  4.3126 -0.7195
16814TIP3   OH271932   0.502   3.647  11.049  0.6014  0.1070 -0.2277
16814TIP3    H171933   0.445   3.670  10.976  0.5066  0.6625  0.0191
16814TIP3    H271934   0.588   3.634  11.009  0.5251  0.2982 -0.4566
16815TIP3   OH271935   1.385   3.229  16.200 -0.5713 -0.1519  0.1313
16815TIP3    H171936   1.386   3.143  16.158 -2.6739  0.1873 -0.7535
16815TIP3    H271937   1.387   3.292  16.128 -2.3263  0.4654  0.5439
16816TIP3   OH271938   2.052   0.345   5.135 -0.2919  0.1950 -0.1410
16816TIP3    H171939   2.066   0.440   5.131 -0.5533  0.5885  4.0869
16816TIP3    H271940   2.114   0.314   5.201 -2.4360 -1.9981  1.0009
16817TIP3   OH271941   2.620   6.640  14.306 -0.5185 -0.2686 -0.9939
16817TIP3    H171942   2.697   6.612  14.356 -1.4764 -0.5773  0.3800
16817TIP3    H271943   2.612   6.577  14.235  1.4173  0.7082 -2.1724
16818TIP3   OH271944   5.826   5.765  11.123 -0.0425  0.4080  0.3149
16818TIP3    H171945   5.922   5.767  11.116  0.5239 -2.1234  4.1793
16818TIP3    H271946   5.801   5.857  11.126  2.7607  1.2537  2.5639
16819TIP3   OH271947   6.763   2.004  15.102 -0.1975  0.3908 -0.0569
16819TIP3    H171948   6.844   1.955  15.110  0.2353  0.8140 -1.5650
16819TIP3    H271949   6.717   1.964  15.028 -0.2583  1.6510 -0.7280
16820TIP3   OH271950   0.535   0.572  14.931  0.2915  0.8112  0.7380
16820TIP3    H171951   0.560   0.640  14.994 -0.8097 -0.0787  2.2073
16820TIP3    H271952   0.572   0.491  14.967 -0.7934  0.2041  0.5566
16821TIP3   OH271953   2.717   1.636  12.771 -0.2358  0.4267 -0.4799
16821TIP3    H171954   2.748   1.574  12.706 -0.7777  1.2034 -1.5035
16821TIP3    H271955   2.796   1.669  12.814  0.0340 -1.2712  0.3840
16822TIP3   OH271956   3.281   6.646  15.861  0.0780 -0.1567  0.4154
16822TIP3    H171957   3.359   6.594  15.882  0.4528  0.4508  0.5589
16822TIP3    H271958   3.280   6.715  15.927 -0.1937  0.2532 -0.0117
16823TIP3   OH271959   4.075   3.194  14.917 -0.1474 -0.2762 -0.0850
16823TIP3    H171960   4.074   3.104  14.949  0.1791  0.2088  1.3674
16823TIP3    H271961   4.165   3.209  14.891  0.4753  0.4527  2.2618
16824TIP3   OH271962   4.470   0.372   2.889 -0.1843  0.1119  0.5149
16824TIP3    H171963   4.490   0.286   2.927  2.3383 -0.0141 -0.8406
16824TIP3    H271964   4.547   0.425   2.909 -0.5768  1.2611 -0.8546
16825TIP3   OH271965   6.313   2.576  15.916 -0.2602 -0.5613 -0.1000
16825TIP3    H171966   6.270   2.518  15.853  0.8236 -0.1435 -1.2747
16825TIP3    H271967   6.260   2.656  15.915 -2.4971 -1.8660  2.4591
16826TIP3   OH271968   4.070   2.383  15.236  0.0366  0.5029  0.5035
16826TIP3    H171969   4.064   2.476  15.258  0.1305  0.8239 -0.7227
16826TIP3    H271970   4.119   2.344  15.307  0.0269  1.3993  1.0191
16827TIP3   OH271971   1.728   3.836  12.591  0.4968 -0.4869 -0.1771
16827TIP3    H171972   1.817   3.869  12.577 -0.4088  1.8473 -0.8961
16827TIP3    H271973   1.719   3.830  12.686  1.5432 -1.2014 -0.0993
16828TIP3   OH271974   6.505   0.875   0.167  0.0067  0.2929  0.1607
16828TIP3    H171975   6.471   0.818   0.098 -1.5383  0.5705  0.6562
16828TIP3    H271976   6.594   0.897   0.138 -0.4055 -0.0304 -1.4716
16829TIP3   OH271977   2.813   4.350  13.264 -0.0091 -0.5069 -0.0869
16829TIP3    H171978   2.866   4.270  13.267 -0.2912 -0.6648  1.8125
16829TIP3    H271979   2.773   4.349  13.177 -0.1864 -2.5463 -0.0305
16830TIP3   OH271980   2.133   5.641  12.172  0.3196  0.6389  0.7512
16830TIP3    H171981   2.213   5.589  12.164 -0.7085 -0.8842 -0.0283
16830TIP3    H271982   2.164   5.729  12.193  2.1301 -0.2280  1.9934
16831TIP3   OH271983   5.901   4.300   0.650  0.0936 -0.0414 -0.0580
16831TIP3    H171984   5.984   4.291   0.603  0.3340  0.1875  0.3154
16831TIP3    H271985   5.922   4.354   0.726 -0.8130  1.7463 -1.0029
16832TIP3   OH271986   5.589   0.344  10.610  0.0093 -0.0871 -0.1367
16832TIP3    H171987   5.530   0.271  10.631 -0.3688 -0.7819 -3.2211
16832TIP3    H271988   5.536   0.422  10.626  0.0342 -0.4438  2.0741
16833TIP3   OH271989   4.560   2.841   4.839 -0.0146  0.3886 -0.3649
16833TIP3    H171990   4.543   2.878   4.926 -1.3372 -1.0228  0.0225
16833TIP3    H271991   4.604   2.758   4.857  1.0041  0.7417 -1.1273
16834TIP3   OH271992   2.070   6.561   1.615  0.0723 -0.2313 -0.3951
16834TIP3    H171993   2.022   6.479   1.627 -0.6221  0.0402 -1.2073
16834TIP3    H271994   2.134   6.562   1.686 -0.2066 -1.2623 -0.1129
16835TIP3   OH271995   2.293   5.871  17.341  0.2686 -0.2515  0.1843
16835TIP3    H171996   2.301   5.804  17.273  0.5283  0.2336 -0.2702
16835TIP3    H271997   2.201   5.898  17.338  0.3560  0.0048 -0.2027
16836TIP3   OH271998   0.321   5.541   5.775  0.2707  0.0835  0.3664
16836TIP3    H171999   0.243   5.542   5.830  0.3614  1.8842  0.5087
16836TIP3    H272000   0.322   5.626   5.732  1.3281 -0.4981 -0.8489
16837TIP3   OH272001   5.525   3.816   3.595 -0.2851  0.6205  0.3173
16837TIP3    H172002   5.462   3.888   3.596 -1.1053 -0.0687 -0.3148
16837TIP3    H272003   5.478   3.743   3.637  0.0156  0.0525 -0.3180
16838TIP3   OH272004   1.602   0.670   2.586  0.0247  0.2563 -0.2344
16838TIP3    H172005   1.631   0.579   2.587 -0.1182  0.1770  2.0095
16838TIP3    H272006   1.679   0.720   2.616 -0.2589  0.7488 -0.3133
16839TIP3   OH272007   4.685   6.483   4.395  0.0803  0.0752 -0.2058
16839TIP3    H172008   4.711   6.573   4.373 -1.0041  0.8486  1.4714
16839TIP3    H272009   4.739   6.462   4.471 -0.6362 -0.1656  0.2434
16840TIP3   OH272010   2.010   1.514   0.996  0.2243  0.0232 -0.0062
16840TIP3    H172011   1.958   1.465   0.932  1.6760 -1.0696 -0.4166
16840TIP3    H272012   2.000   1.605   0.971  0.3885 -0.3492 -1.5342
16841TIP3   OH272013   6.140   0.834  17.064  0.0118  0.1518  0.2320
16841TIP3    H172014   6.220   0.784  17.053 -0.3153 -0.2679 -0.2463
16841TIP3    H272015   6.142   0.900  16.995  0.2771  0.5995  0.6525
16842TIP3   OH272016   6.784   1.790   5.052  0.4898 -0.2313 -0.1836
16842TIP3    H172017   6.821   1.759   4.970  0.6109  1.5265 -0.8448
16842TIP3    H272018   6.689   1.786   5.039  0.5083  0.1515 -0.4806
16843TIP3   OH272019   0.128   0.240  14.423  0.5468 -0.3181 -0.3811
16843TIP3    H172020   0.043   0.196  14.424  1.2077 -1.6210  0.0342
16843TIP3    H272021   0.145   0.261  14.515  0.5354  0.2396 -0.5026
16844TIP3   OH272022   6.072   6.621   5.567 -0.0527  0.1319 -0.4705
16844TIP3    H172023   5.978   6.638   5.565  0.2038  1.5581 -1.1900
16844TIP3    H272024   6.113   6.703   5.541  1.6555  1.1817  4.4365
16845TIP3   OH272025   5.293   3.766  14.308 -0.4675 -0.2006 -0.2328
16845TIP3    H172026   5.212   3.780  14.259 -0.6474  0.1206  0.1572
16845TIP3    H272027   5.314   3.851  14.345 -1.6937 -0.9156  2.3382
16846TIP3   OH272028   5.120   6.131  14.194  0.5215  0.3482 -0.2999
16846TIP3    H172029   5.131   6.155  14.102  1.0731  1.6838  0.1011
16846TIP3    H272030   5.135   6.036  14.196 -0.0705  0.2137 -1.6689
16847TIP3   OH272031   0.431   4.053  11.398  0.0822  0.8587  0.3685
16847TIP3    H172032   0.450   3.966  11.431 -3.3875 -0.1007  0.2105
16847TIP3    H272033   0.468   4.054  11.309 -1.0645 -1.0119 -0.1729
16848TIP3   OH272034   3.818   6.407   5.119  0.9319  0.0107 -0.1238
16848TIP3    H172035   3.854   6.381   5.204 -0.1658 -0.0060  0.3557
16848TIP3    H272036   3.883   6.378   5.055  1.2275 -1.0177  0.6296
16849TIP3   OH272037   1.232   1.791   3.365  0.1619 -0.5345  0.0832
16849TIP3    H172038   1.205   1.786   3.457  1.3899 -1.1828  0.4205
16849TIP3    H272039   1.246   1.700   3.339  1.6969 -0.2480 -0.1740
16850TIP3   OH272040   5.890   1.334   5.584  0.0311  0.2282 -0.0333
16850TIP3    H172041   5.900   1.301   5.673  1.4449  0.7845  0.0430
16850TIP3    H272042   5.819   1.398   5.589  1.0996  1.3717  1.0438
16851TIP3   OH272043   5.162   6.593  16.316  0.2033  0.3876  0.0559
16851TIP3    H172044   5.234   6.623  16.371  1.4087  1.9390 -2.1979
16851TIP3    H272045   5.204   6.566  16.234 -1.5385 -1.3744 -0.3354
16852TIP3   OH272046   3.311   6.764  13.720 -0.7295  0.3398  0.0714
16852TIP3    H172047   3.342   6.766  13.629 -1.2213  0.1679 -0.1021
16852TIP3    H272048   3.316   6.672  13.745 -0.4798  0.4037  0.2588
16853TIP3   OH272049   1.732   4.524  14.292  0.0202 -0.0845  0.1963
16853TIP3    H172050   1.778   4.608  14.301 -0.5663  0.6073 -2.3411
16853TIP3    H272051   1.639   4.548  14.286 -0.0456 -0.6896 -2.1415
16854TIP3   OH272052   2.620   0.837  15.583  0.2690 -0.1998 -0.9195
16854TIP3    H172053   2.618   0.797  15.670 -1.1576  1.0845 -0.3053
16854TIP3    H272054   2.636   0.930  15.600  1.4409 -0.1409 -2.1574
16855TIP3   OH272055   3.136   0.116  15.913 -0.3961  0.0091 -0.0005
16855TIP3    H172056   3.163   0.207  15.918 -1.0616  0.3608 -1.8850
16855TIP3    H272057   3.053   0.118  15.865 -1.1788 -1.4733  1.2136
16856TIP3   OH272058   4.528   0.860   6.043  0.1078  0.0616  0.0834
16856TIP3    H172059   4.613   0.823   6.016 -0.9027 -0.8436 -2.0748
16856TIP3    H272060   4.517   0.938   5.989  0.2030  1.0696  1.4551
16857TIP3   OH272061   2.768   1.430   2.163 -0.4165  0.0931 -0.0613
16857TIP3    H172062   2.790   1.471   2.246  0.1493  0.9386 -0.6167
16857TIP3    H272063   2.682   1.465   2.140 -0.4186  0.1229 -0.0066
16858TIP3   OH272064   6.225   3.431   6.477 -0.5736  0.4574 -1.1195
16858TIP3    H172065   6.161   3.500   6.491  1.4148  2.2080  0.0341
16858TIP3    H272066   6.208   3.368   6.548 -0.6172  1.2329 -0.4264
16859TIP3   OH272067   3.606   6.764   2.664 -0.2799 -0.1291  0.2914
16859TIP3    H172068   3.604   6.752   2.569 -0.6180 -0.3799  0.3294
16859TIP3    H272069   3.651   6.848   2.676  0.1929 -0.3256 -0.0666
16860TIP3   OH272070   6.232   0.695  15.978 -0.0625  0.7071 -0.1995
16860TIP3    H172071   6.247   0.786  16.004 -0.1277  1.4385 -2.4339
16860TIP3    H272072   6.256   0.694  15.885 -0.6135 -1.4409 -0.3550
16861TIP3   OH272073   0.228   3.597  13.487 -0.1396  0.1487  0.0258
16861TIP3    H172074   0.215   3.521  13.431 -1.8531  0.0172  0.5527
16861TIP3    H272075   0.208   3.672  13.431  0.5643  0.1744 -0.2062
16862TIP3   OH272076   6.787   0.828   0.565  0.0929  0.0086  0.4415
16862TIP3    H172077   6.829   0.796   0.485  1.1101  1.1178  0.5074
16862TIP3    H272078   6.726   0.758   0.589  1.2544 -1.2676 -0.1561
16863TIP3   OH272079   0.052   3.362  13.529 -0.1744  0.6988 -0.1353
16863TIP3    H172080  -0.004   3.397  13.460 -0.5483  0.9155  0.2741
16863TIP3    H272081   0.034   3.268  13.530  1.2627  0.3579 -1.6341
16864TIP3   OH272082   0.265   3.755  16.036 -0.8977 -0.4497  0.0103
16864TIP3    H172083   0.328   3.709  15.980 -0.0928  0.2076  0.3373
16864TIP3    H272084   0.262   3.703  16.116  0.3209  0.2369  0.5406
16865TIP3   OH272085   1.315   4.373  13.850  0.1644 -0.1301  0.1761
16865TIP3    H172086   1.312   4.468  13.841  1.1017 -0.2722 -2.3827
16865TIP3    H272087   1.274   4.356  13.935 -0.9829  2.4615  0.2428
16866TIP3   OH272088   1.662   2.288  16.179  0.6070 -0.5680  0.5461
16866TIP3    H172089   1.639   2.239  16.258  0.3073 -1.0335  0.1813
16866TIP3    H272090   1.725   2.354  16.208  0.0665 -0.3635  1.2684
16867TIP3   OH272091   3.335   4.445   4.681 -0.5235 -0.6659  0.5581
16867TIP3    H172092   3.282   4.431   4.759  1.3060 -1.2678  1.7625
16867TIP3    H272093   3.378   4.530   4.696 -1.8430  0.3150 -0.8634
16868TIP3   OH272094   2.917   4.212   0.498 -0.3627 -0.2500  0.1529
16868TIP3    H172095   2.836   4.208   0.446  0.7270  2.9242 -2.1116
16868TIP3    H272096   2.978   4.153   0.452 -0.8859 -1.5309  1.0316
16869TIP3   OH272097   2.822   2.850  12.414  0.4736  0.2162  0.2829
16869TIP3    H172098   2.893   2.826  12.354  1.3359  1.2079  0.8631
16869TIP3    H272099   2.831   2.789  12.488 -0.8633 -1.2950 -0.7481
16870TIP3   OH272100   1.781   0.253   6.478 -0.3480 -0.0155  0.3623
16870TIP3    H172101   1.845   0.248   6.550 -0.8867  2.5837  1.1159
16870TIP3    H272102   1.817   0.319   6.419 -0.2396 -1.6677 -1.5265
16871TIP3   OH272103   2.224   3.121   2.439  0.2866 -0.3416  0.2324
16871TIP3    H172104   2.299   3.068   2.413 -0.9934 -3.0347  1.6488
16871TIP3    H272105   2.149   3.080   2.394 -1.4204 -2.7951  4.7285
16872TIP3   OH272106   2.600   4.076   0.096 -0.3839 -0.4643  0.0607
16872TIP3    H172107   2.551   4.153   0.066 -3.2197 -1.4161  1.9161
16872TIP3    H272108   2.607   4.021   0.018 -2.0407 -0.1379 -0.3567
16873TIP3   OH272109   5.791   4.275   5.650  0.2282 -0.2709  0.1735
16873TIP3    H172110   5.765   4.367   5.642 -0.7749 -0.5913 -0.5114
16873TIP3    H272111   5.887   4.278   5.657  0.1467  0.8853  1.4073
16874TIP3   OH272112   5.482   4.242  14.244 -0.1185  0.0200  0.0534
16874TIP3    H172113   5.530   4.323  14.260 -1.7979  0.8013  1.5966
16874TIP3    H272114   5.531   4.175  14.291  0.2066  0.5470  0.4798
16875TIP3   OH272115   5.105   5.478  17.310 -0.2954 -0.4128 -0.1778
16875TIP3    H172116   5.026   5.518  17.275 -0.5693 -1.7042 -1.0945
16875TIP3    H272117   5.074   5.407  17.366  0.2144 -0.7202 -0.2759
16876TIP3   OH272118   6.420   0.640  14.764 -0.0640 -0.0923  0.1835
16876TIP3    H172119   6.334   0.682  14.760  0.7160  1.5309 -1.5948
16876TIP3    H272120   6.470   0.684  14.694  0.5559 -4.7024 -2.6705
16877TIP3   OH272121   6.163   1.255  16.707 -0.2917 -0.3772 -0.0458
16877TIP3    H172122   6.077   1.217  16.691 -0.7529  0.7645 -0.3504
16877TIP3    H272123   6.204   1.260  16.621 -0.1940 -0.2756  0.0066
16878TIP3   OH272124   4.810   5.268   4.934 -0.3219 -0.4167 -0.6956
16878TIP3    H172125   4.738   5.273   4.871  1.1593 -0.9744 -2.5642
16878TIP3    H272126   4.804   5.349   4.984 -1.9855 -0.2661 -1.0764
16879TIP3   OH272127   4.095   0.921   4.413  0.8237 -0.2732 -0.0683
16879TIP3    H172128   4.109   0.943   4.321  0.9610 -0.0208  0.0116
16879TIP3    H272129   4.060   0.832   4.411  1.0108 -0.3441 -0.3534
16880TIP3   OH272130   6.285   2.977   1.227 -0.3680 -0.1613 -0.0482
16880TIP3    H172131   6.292   2.884   1.247  1.2751 -0.4561 -1.6630
16880TIP3    H272132   6.365   3.015   1.264 -1.5730  0.8566  1.6250
16881TIP3   OH272133   5.184   5.974  13.446  0.0102  0.2865 -0.1762
16881TIP3    H172134   5.260   5.981  13.388  0.4198 -0.0040  0.3118
16881TIP3    H272135   5.200   6.040  13.514  0.1521 -0.2060  0.2789
16882TIP3   OH272136   6.002   5.831   2.953 -0.5176  0.0625  0.0703
16882TIP3    H172137   6.059   5.766   2.912 -0.4741  0.0482  0.1523
16882TIP3    H272138   6.004   5.906   2.893 -1.2655 -0.3363 -0.4638
16883TIP3   OH272139   2.971   3.837  16.098 -0.4983 -0.2653 -0.8330
16883TIP3    H172140   3.015   3.921  16.083  1.1062 -0.4751  1.9971
16883TIP3    H272141   2.948   3.837  16.190 -1.1291 -2.6539 -0.9113
16884TIP3   OH272142   2.020   2.295   1.523 -0.5311  0.5751  0.4870
16884TIP3    H172143   2.037   2.387   1.508 -0.3072  0.3541 -0.7212
16884TIP3    H272144   1.958   2.270   1.454  0.1226 -0.3876  0.2177
16885TIP3   OH272145   1.251   1.997   1.461  0.1059 -0.5709  0.6315
16885TIP3    H172146   1.291   1.951   1.535 -0.7187  0.1928  1.5896
16885TIP3    H272147   1.172   2.036   1.497  0.3536  0.9174 -0.3177
16886TIP3   OH272148   0.687   3.744   3.480  0.1404 -0.1948 -0.1292
16886TIP3    H172149   0.774   3.727   3.516  0.5859  1.7452 -0.1650
16886TIP3    H272150   0.648   3.806   3.542 -1.1039 -0.7900 -0.2917
16887TIP3   OH272151   3.900   2.035  11.727  0.4188  0.2998  0.2708
16887TIP3    H172152   3.837   2.080  11.783 -1.1847  0.6598 -1.7139
16887TIP3    H272153   3.857   1.953  11.702  0.8784  0.3713 -0.8142
16888TIP3   OH272154   4.653   6.314  12.483 -0.3876  0.5211  0.6331
16888TIP3    H172155   4.579   6.373  12.497 -2.1797 -1.8204  1.7059
16888TIP3    H272156   4.614   6.227  12.477  2.2614 -0.7921  0.8908
16889TIP3   OH272157   3.695   6.000  14.893  0.0115 -0.1647 -0.5557
16889TIP3    H172158   3.739   6.068  14.946  0.7278  0.0248 -1.3661
16889TIP3    H272159   3.737   5.919  14.919  1.6993  0.1422 -2.1259
16890TIP3   OH272160   4.780   2.014   2.756  0.2428  0.1860 -0.4254
16890TIP3    H172161   4.689   1.986   2.766  0.5976 -3.1036 -4.1524
16890TIP3    H272162   4.829   1.959   2.817 -0.0122 -0.2682 -0.6271
16891TIP3   OH272163   2.282   6.475  10.892 -0.6555 -0.2340 -0.4086
16891TIP3    H172164   2.244   6.389  10.874 -0.4125 -0.4334  0.0223
16891TIP3    H272165   2.220   6.516  10.953 -0.5951 -0.2357 -0.3466
16892TIP3   OH272166   1.346   2.312  12.186  0.1285 -0.4449  0.3239
16892TIP3    H172167   1.337   2.343  12.276  0.8506 -1.6930  0.8361
16892TIP3    H272168   1.436   2.280  12.180 -0.6198 -2.6374 -0.0920
16893TIP3   OH272169   3.051   0.655   4.321 -0.1950  0.5202 -0.9360
16893TIP3    H172170   2.958   0.678   4.313 -0.0576  2.5538  1.6966
16893TIP3    H272171   3.096   0.739   4.323  1.6458 -0.4044 -1.3376
16894TIP3   OH272172   0.776   1.216  14.196 -0.0958  0.5779  0.1450
16894TIP3    H172173   0.793   1.250  14.109  0.3022 -0.8604 -0.3802
16894TIP3    H272174   0.713   1.145  14.182 -0.7319  0.9265  1.1466
16895TIP3   OH272175   3.986   0.927   3.689  0.2202  0.8238  0.7878
16895TIP3    H172176   3.912   0.973   3.728 -0.2431 -0.2848  1.2509
16895TIP3    H272177   3.994   0.965   3.601 -1.8003  0.0327  0.1999
16896TIP3   OH272178   5.257   4.817  12.931  0.3227 -0.1088  0.2059
16896TIP3    H172179   5.337   4.765  12.926 -0.4440 -1.3155  0.1481
16896TIP3    H272180   5.209   4.782  13.006  0.8993  2.2018  1.7767
16897TIP3   OH272181   5.732   2.650  13.985 -0.4494  0.6696  0.0821
16897TIP3    H172182   5.650   2.697  14.000 -0.9965 -0.0705 -0.4692
16897TIP3    H272183   5.733   2.581  14.052  0.5460  1.6917  1.1498
16898TIP3   OH272184   0.660   0.271   2.572  0.0514  0.5429 -0.0233
16898TIP3    H172185   0.621   0.353   2.604  1.5910  1.6442 -0.8653
16898TIP3    H272186   0.586   0.211   2.566 -1.0910  1.7879  0.8258
16899TIP3   OH272187   5.638   0.344  14.213 -0.3277 -0.0271  0.0790
16899TIP3    H172188   5.667   0.257  14.239 -0.7585  0.0773  0.9333
16899TIP3    H272189   5.561   0.329  14.159 -0.4562 -0.1775  0.3016
16900TIP3   OH272190   5.436   5.544  15.595 -0.1927  0.5301 -0.1053
16900TIP3    H172191   5.525   5.526  15.565 -0.4501  0.5866 -0.9216
16900TIP3    H272192   5.423   5.638  15.578 -1.3127  0.0089 -2.4858
16901TIP3   OH272193   0.196   0.085   2.590  0.3677 -0.3560 -0.0828
16901TIP3    H172194   0.108   0.111   2.618 -0.0086  0.3979 -1.8595
16901TIP3    H272195   0.255   0.130   2.650 -0.4339 -0.4509  0.7915
16902TIP3   OH272196   4.575   0.446  13.313 -0.0610 -0.0250 -0.1357
16902TIP3    H172197   4.614   0.366  13.347  0.1236 -0.1198 -0.5582
16902TIP3    H272198   4.530   0.485  13.388  0.0235 -0.4159  0.1219
16903TIP3   OH272199   6.280   0.450   1.373 -0.0341 -0.0328  0.1387
16903TIP3    H172200   6.249   0.502   1.298  0.5360 -0.6277 -0.5188
16903TIP3    H272201   6.206   0.452   1.434 -1.2093 -0.9714 -1.1652
16904TIP3   OH272202   0.794   1.124  12.417  0.0067 -0.5249 -0.5119
16904TIP3    H172203   0.766   1.211  12.446 -1.9823 -1.2812  0.0408
16904TIP3    H272204   0.832   1.084  12.496  0.3956 -0.3674 -0.6169
16905TIP3   OH272205   6.513   1.052  11.537 -0.0012 -0.3311  0.0535
16905TIP3    H172206   6.512   0.962  11.569 -0.1099  0.4041  2.3657
16905TIP3    H272207   6.541   1.046  11.446 -0.9589 -2.7583 -0.1406
16906TIP3   OH272208   5.246   1.770  14.815 -0.2352  0.5629 -0.0763
16906TIP3    H172209   5.213   1.687  14.780  4.9254 -1.4593 -1.0155
16906TIP3    H272210   5.209   1.836  14.757 -1.5942 -1.4664 -1.7026
16907TIP3   OH272211   1.324   2.226  12.956 -0.6945  0.6530 -0.7451
16907TIP3    H172212   1.366   2.282  12.891 -1.3379  2.4366  0.2757
16907TIP3    H272213   1.368   2.248  13.038  0.0439 -1.4814 -0.5087
16908TIP3   OH272214   4.749   2.616  12.582 -0.2233  0.1983 -0.8983
16908TIP3    H172215   4.681   2.591  12.520 -2.2981  0.8173  1.0016
16908TIP3    H272216   4.794   2.689  12.541 -1.1312  0.2040 -1.9167
16909TIP3   OH272217   0.383   5.176   0.664  0.1194  0.1600 -0.5656
16909TIP3    H172218   0.465   5.126   0.659  1.0248  1.6326 -1.1299
16909TIP3    H272219   0.406   5.251   0.718 -0.8894  0.5705 -0.7049
16910TIP3   OH272220   5.529   3.643   6.852  0.3618  0.2614  0.3487
16910TIP3    H172221   5.584   3.676   6.781  0.4419  1.1791  0.8178
16910TIP3    H272222   5.587   3.588   6.904  0.4695  0.1189  0.0817
16911TIP3   OH272223   5.339   2.629  10.730 -0.0057  0.2534 -0.2795
16911TIP3    H172224   5.431   2.647  10.752  0.1158  1.0524 -1.3585
16911TIP3    H272225   5.341   2.543  10.687  0.0183 -0.4087  1.0095
16912TIP3   OH272226   0.587   1.545  13.576  0.3377  0.1710 -0.5758
16912TIP3    H172227   0.558   1.472  13.631  0.3394  0.6655  0.0965
16912TIP3    H272228   0.580   1.512  13.486 -2.7541  0.3601 -0.5367
16913TIP3   OH272229   5.396   4.740  15.559  0.3019 -0.1938 -0.7122
16913TIP3    H172230   5.358   4.814  15.606  0.4588  0.1425 -1.1136
16913TIP3    H272231   5.325   4.710  15.502 -0.7209 -2.0983  1.3778
16914TIP3   OH272232   6.198   1.823   5.631  0.7030  0.9312 -0.1161
16914TIP3    H172233   6.149   1.741   5.628  1.8083  0.2781 -0.9491
16914TIP3    H272234   6.202   1.845   5.725 -0.3503  0.5189  0.0375
16915TIP3   OH272235   2.271   3.696   3.232  0.0036 -0.1050  0.1530
16915TIP3    H172236   2.344   3.756   3.215 -1.3196  1.3630 -0.7136
16915TIP3    H272237   2.198   3.733   3.181 -1.3529 -1.4901  1.0060
16916TIP3   OH272238   3.274   5.387   5.488  0.0649 -0.3519 -0.1630
16916TIP3    H172239   3.354   5.342   5.461 -0.7437 -1.2241 -1.2035
16916TIP3    H272240   3.239   5.425   5.408 -0.5910 -0.0065  0.2735
16917TIP3   OH272241   2.784   1.731  15.048 -0.4351  0.0555  0.3108
16917TIP3    H172242   2.852   1.764  15.107 -3.3473  1.0703  3.4230
16917TIP3    H272243   2.787   1.636  15.060  1.0761 -0.0177 -0.4401
16918TIP3   OH272244   0.755   0.185   5.616 -0.5517  0.3139  0.3541
16918TIP3    H172245   0.714   0.242   5.681  0.0195  0.9842  0.1435
16918TIP3    H272246   0.816   0.131   5.667  0.1505  1.0807  0.3383
16919TIP3   OH272247   5.152   3.415   0.734 -0.4694  0.3218  0.2543
16919TIP3    H172248   5.165   3.506   0.707 -2.3037  0.3331 -0.7510
16919TIP3    H272249   5.213   3.365   0.680 -2.2169  0.6209 -2.1530
16920TIP3   OH272250   1.311   2.837  13.871  0.2211  0.3345 -1.0910
16920TIP3    H172251   1.280   2.927  13.884  0.3858  0.3560 -0.8393
16920TIP3    H272252   1.312   2.825  13.776  1.6111  1.1015 -1.1975
16921TIP3   OH272253   1.902   2.549  13.355  0.5429 -0.4897 -0.1802
16921TIP3    H172254   1.875   2.639  13.335 -1.4339 -1.0354 -0.2035
16921TIP3    H272255   1.959   2.557  13.431  1.3705  0.8732 -0.9019
16922TIP3   OH272256   0.502   2.111  13.604  0.4147  0.2183 -0.3878
16922TIP3    H172257   0.596   2.126  13.605  0.1346  2.3448  1.5090
16922TIP3    H272258   0.491   2.023  13.642  1.5997  0.1382 -0.2193
16923TIP3   OH272259   4.783   3.243  12.597  0.0570  0.3561  0.6577
16923TIP3    H172260   4.857   3.182  12.601 -0.4450 -0.2579  0.7950
16923TIP3    H272261   4.718   3.198  12.542  0.1954  1.3438 -0.3575
16924TIP3   OH272262   0.542   3.377  11.244 -0.3451  0.1805  0.3289
16924TIP3    H172263   0.630   3.385  11.281 -1.1555  0.4492  2.3225
16924TIP3    H272264   0.516   3.286  11.261 -0.9498  0.4642  0.9843
16925TIP3   OH272265   0.289   2.228   5.997  0.5208 -0.2778 -0.2748
16925TIP3    H172266   0.292   2.191   6.085  0.0126 -0.2187 -0.2288
16925TIP3    H272267   0.208   2.192   5.959  1.6732 -1.8312 -1.4045
16926TIP3   OH272268   4.248   4.144   6.316  0.0826 -0.1330 -0.1718
16926TIP3    H172269   4.209   4.123   6.401  1.1517 -2.6837 -0.2262
16926TIP3    H272270   4.204   4.085   6.255  1.1355 -0.1660 -0.9242
16927TIP3   OH272271   2.335   1.189  16.863 -0.3610 -0.3458 -0.1686
16927TIP3    H172272   2.324   1.094  16.868  1.1061 -0.4777  1.1787
16927TIP3    H272273   2.429   1.202  16.853 -0.7605  0.9235 -3.4091
16928TIP3   OH272274   6.798   4.189  12.916 -0.4147  0.1980 -0.1420
16928TIP3    H172275   6.786   4.212  12.824 -0.7217  2.0410  0.3136
16928TIP3    H272276   6.742   4.250  12.964  0.0333 -0.4592  1.2960
16929TIP3   OH272277   2.090   5.847  16.852  0.1346  0.2081  0.6014
16929TIP3    H172278   2.117   5.766  16.808  1.6126  0.6240  0.6918
16929TIP3    H272279   2.061   5.905  16.782  0.7630  0.2290  0.3587
16930TIP3   OH272280   5.306   5.572   2.937 -0.0626  0.3315  0.1849
16930TIP3    H172281   5.294   5.650   2.992  2.0139  0.5186  0.4422
16930TIP3    H272282   5.368   5.518   2.985  0.2452 -0.4439 -1.0369
16931TIP3   OH272283   2.819   2.512  15.097  0.5905 -0.2134  0.6517
16931TIP3    H172284   2.739   2.533  15.146  1.9330  0.2513  2.7378
16931TIP3    H272285   2.805   2.423  15.065 -0.8221 -0.0823  0.8335
16932TIP3   OH272286   0.503   0.030  11.695  0.3481  0.2635 -0.3739
16932TIP3    H172287   0.423  -0.013  11.666 -0.1699  1.1785 -0.3611
16932TIP3    H272288   0.555  -0.039  11.735 -1.3589  0.0161  1.5680
16933TIP3   OH272289   5.504   0.509   5.834 -0.1501 -0.8276 -0.0724
16933TIP3    H172290   5.589   0.534   5.869 -1.1021 -0.7647  2.3628
16933TIP3    H272291   5.471   0.443   5.895 -1.3859 -1.7038 -1.5963
16934TIP3   OH272292   2.421   0.268  11.066 -0.7831 -0.2039 -0.2362
16934TIP3    H172293   2.386   0.257  10.978  2.5057  1.0504 -1.8262
16934TIP3    H272294   2.437   0.362  11.075 -2.1244 -0.1172  2.2245
16935TIP3   OH272295   4.623   1.127   0.378  0.3259 -0.2249  0.3796
16935TIP3    H172296   4.692   1.099   0.439  0.6153  1.1937  0.7369
16935TIP3    H272297   4.664   1.194   0.324 -0.5442  0.0408  0.0324
16936TIP3   OH272298   5.978   5.671   0.484  0.2917  0.3251  1.2440
16936TIP3    H172299   5.934   5.587   0.497  2.5120 -1.3117 -1.0404
16936TIP3    H272300   5.915   5.724   0.435 -0.7678 -0.3168  1.8748
16937TIP3   OH272301   0.650   6.056  14.473 -1.0471  0.1740  0.1520
16937TIP3    H172302   0.624   6.082  14.562  0.5682 -1.9329  1.3397
16937TIP3    H272303   0.567   6.033  14.430 -1.8815  1.4157  1.0083
16938TIP3   OH272304   3.414   5.206  15.475 -0.2897  0.2130  0.5246
16938TIP3    H172305   3.385   5.147  15.545  0.6779  0.5550  1.2476
16938TIP3    H272306   3.408   5.154  15.395 -1.2102 -0.2560  0.8822
16939TIP3   OH272307   6.308   1.506   3.569  0.2023  0.7183  0.2940
16939TIP3    H172308   6.250   1.445   3.523  1.0968  0.2196 -0.2026
16939TIP3    H272309   6.285   1.496   3.661  0.3185 -0.3677  0.2234
16940TIP3   OH272310   2.694   5.318   4.688 -0.5126  0.1042  0.3558
16940TIP3    H172311   2.644   5.237   4.702  0.9792 -0.8095  0.5346
16940TIP3    H272312   2.780   5.289   4.660  0.6349  1.5677  2.1358
16941TIP3   OH272313   0.741   2.907   5.308  0.1459  0.1874  0.1653
16941TIP3    H172314   0.791   2.840   5.262 -0.9532 -1.6030  1.4313
16941TIP3    H272315   0.713   2.968   5.239  0.5024 -1.0928 -1.1637
16942TIP3   OH272316   4.498   5.728  16.678  0.0312  0.2806 -0.1951
16942TIP3    H172317   4.587   5.729  16.713 -0.6869  1.6581  1.7501
16942TIP3    H272318   4.510   5.736  16.583  1.9817 -0.8737 -0.1027
16943TIP3   OH272319   5.107   3.369  15.037  0.3691 -0.3754  0.2092
16943TIP3    H172320   5.142   3.429  15.102 -0.6758 -0.5575  0.9664
16943TIP3    H272321   5.116   3.415  14.953 -1.0734  1.1826  0.8386
16944TIP3   OH272322   5.686   5.991   6.016 -1.0145 -0.4462  0.7450
16944TIP3    H172323   5.733   6.074   6.008 -1.1735 -0.4330 -0.2507
16944TIP3    H272324   5.602   6.014   6.055 -0.8466 -0.2246  0.9809
16945TIP3   OH272325   1.371   5.240  14.301 -0.1641 -0.1401  0.1578
16945TIP3    H172326   1.309   5.207  14.235 -0.0651 -0.1186  0.0545
16945TIP3    H272327   1.338   5.205  14.384  0.7351 -1.6938 -0.1027
16946TIP3   OH272328   4.586   4.654  15.500 -0.5794 -0.4677 -0.1929
16946TIP3    H172329   4.523   4.585  15.521 -0.6461 -0.5176 -0.5401
16946TIP3    H272330   4.657   4.641  15.562 -0.5022 -0.9746 -0.3780
16947TIP3   OH272331   1.815   3.324  16.807  0.0101  0.4435  0.3305
16947TIP3    H172332   1.843   3.329  16.898  0.7299  3.2876  0.0610
16947TIP3    H272333   1.780   3.412  16.788  2.3312  0.8683 -2.8421
16948TIP3   OH272334   5.262   6.107   4.163  0.4629 -0.0046 -0.7323
16948TIP3    H172335   5.276   6.118   4.257 -0.6929 -0.5821 -0.4723
16948TIP3    H272336   5.200   6.177   4.140  0.6023  0.0229 -1.0287
16949TIP3   OH272337   0.347   5.252   4.569 -0.6089 -0.3061 -0.4689
16949TIP3    H172338   0.432   5.239   4.612 -1.6063  0.1071  1.7327
16949TIP3    H272339   0.292   5.292   4.636 -2.7075 -1.0081 -1.6935
16950TIP3   OH272340   6.750   6.029  17.362 -0.1845 -0.2389 -0.3389
16950TIP3    H172341   6.725   6.117  17.332  0.3518  0.0397  0.0054
16950TIP3    H272342   6.689   5.970  17.319 -2.7050  0.5324  1.9137
16951TIP3   OH272343   4.475   2.844  16.240  0.0636 -0.1185  0.0279
16951TIP3    H172344   4.471   2.772  16.177  0.0226 -0.4248  0.3783
16951TIP3    H272345   4.498   2.921  16.187 -3.6498  0.4464 -1.0672
16952TIP3   OH272346   0.016   4.144  15.136 -0.0619 -0.1905  0.2645
16952TIP3    H172347  -0.007   4.058  15.101  0.0703 -0.1859  0.1646
16952TIP3    H272348   0.079   4.125  15.206  2.4367 -0.0204 -1.8035
16953TIP3   OH272349   6.249   0.198  12.232 -0.5898  0.5817  0.4109
16953TIP3    H172350   6.169   0.186  12.180  0.6856 -1.0413 -1.3190
16953TIP3    H272351   6.317   0.213  12.167  0.7946  0.2844  1.7392
16954TIP3   OH272352   2.753   5.931   3.020 -0.3978 -0.5294 -0.3251
16954TIP3    H172353   2.736   6.016   3.060  0.4254 -0.5720  0.1369
16954TIP3    H272354   2.682   5.875   3.051 -0.2627 -0.3251  0.3649
16955TIP3   OH272355   2.948   5.296  13.542  0.0082 -0.7713 -0.3194
16955TIP3    H172356   2.907   5.249  13.469 -0.8442 -0.7501  0.1355
16955TIP3    H272357   2.904   5.381  13.543  3.2684  1.2176 -2.7972
16956TIP3   OH272358   5.042   4.093   4.986 -0.4550 -0.3673  0.1157
16956TIP3    H172359   5.083   4.024   5.039  1.7875  1.1636  0.4961
16956TIP3    H272360   5.064   4.069   4.896  0.9866  0.2239  0.2933
16957TIP3   OH272361   6.098   2.497   0.281 -0.2179 -0.1339  0.2291
16957TIP3    H172362   6.073   2.439   0.209  1.8511 -0.6225 -0.1616
16957TIP3    H272363   6.063   2.454   0.359 -0.1774 -1.0134 -0.2274
16958TIP3   OH272364   0.224   2.778  14.856 -0.8805 -0.0885  0.3112
16958TIP3    H172365   0.299   2.727  14.885  0.6702  1.4441 -0.8016
16958TIP3    H272366   0.262   2.854  14.812 -3.0891  1.1271  0.3561
16959TIP3   OH272367   5.354   5.371  13.092 -0.1745 -0.2173 -0.0436
16959TIP3    H172368   5.346   5.395  13.184  2.5674 -2.4244  0.9185
16959TIP3    H272369   5.359   5.276  13.092 -1.7589 -0.3912 -2.7008
16960TIP3   OH272370   0.184   5.734   1.676 -0.1614  0.5076  0.9502
16960TIP3    H172371   0.121   5.779   1.733 -0.5717  0.7463  0.3174
16960TIP3    H272372   0.164   5.641   1.687 -0.8805  0.5996  0.4665
16961TIP3   OH272373   5.568   0.885  13.987  0.4535  0.4096 -0.4291
16961TIP3    H172374   5.640   0.878  14.048  2.8396  0.7236 -3.0083
16961TIP3    H272375   5.491   0.899  14.042  2.6649  2.7023  2.3946
16962TIP3   OH272376   3.910   5.874   4.996 -0.2455  0.6427 -0.6701
16962TIP3    H172377   3.922   5.877   4.901 -1.5290 -1.2132 -0.9586
16962TIP3    H272378   3.955   5.794   5.023 -1.6277  0.0422 -0.0560
16963TIP3   OH272379   4.196   3.336  15.539  0.0296 -0.0891  0.2896
16963TIP3    H172380   4.241   3.421  15.534 -0.3262  0.2471  2.1928
16963TIP3    H272381   4.248   3.285  15.600 -0.0165 -1.1141 -0.5009
16964TIP3   OH272382   2.315   5.700  13.048 -0.1058  0.1660 -0.6289
16964TIP3    H172383   2.389   5.731  13.100 -1.2308 -0.0498  1.1883
16964TIP3    H272384   2.265   5.778  13.028 -0.5037  0.0682 -0.0243
16965TIP3   OH272385   5.104   1.257  13.740 -0.3316 -0.6145  0.1607
16965TIP3    H172386   5.147   1.213  13.667  1.5995  0.9613  0.2697
16965TIP3    H272387   5.059   1.332  13.700 -2.0610 -1.5717  0.2124
16966TIP3   OH272388   1.617   6.373   5.814  0.4436  0.2468 -0.3187
16966TIP3    H172389   1.578   6.294   5.851  0.4178  0.4476  0.0815
16966TIP3    H272390   1.666   6.412   5.886 -0.2484  1.0481 -0.2703
16967TIP3   OH272391   4.185   0.878  17.327  0.0498  0.4490  0.5104
16967TIP3    H172392   4.230   0.795  17.346  2.1125  0.7520 -2.3852
16967TIP3    H272393   4.100   0.869  17.369  0.9514 -2.2974  2.0057
16968TIP3   OH272394   3.901   6.526   0.293 -0.0620  0.0036 -0.2463
16968TIP3    H172395   3.889   6.562   0.205  1.6517  0.6384 -0.2594
16968TIP3    H272396   3.931   6.436   0.279 -1.4979 -0.5058 -0.2505
16969TIP3   OH272397   1.634   2.566  16.462  0.3643  0.0907  0.3734
16969TIP3    H172398   1.554   2.612  16.490  1.1741  2.1592 -0.5381
16969TIP3    H272399   1.665   2.615  16.386  1.1953 -2.1442 -0.8183
16970TIP3   OH272400   2.417   4.046  15.408 -0.4565 -0.5078  0.1838
16970TIP3    H172401   2.461   4.043  15.493 -0.7100 -0.4936  0.3164
16970TIP3    H272402   2.458   3.976  15.358 -1.2529 -1.4407  0.7836
16971TIP3   OH272403   5.196   5.290  14.631  0.1310 -0.6116 -0.2538
16971TIP3    H172404   5.108   5.308  14.596 -0.0024 -0.2953  0.2271
16971TIP3    H272405   5.237   5.234  14.565  0.1384  0.5167 -1.2567
16972TIP3   OH272406   1.726   6.322   2.492 -0.0172  0.1920  0.1059
16972TIP3    H172407   1.762   6.254   2.436 -0.7509 -1.3717  1.4416
16972TIP3    H272408   1.803   6.368   2.526  0.4837  0.1255 -0.8949
16973TIP3   OH272409   1.697   1.667   5.009 -0.1527 -0.3635  0.1747
16973TIP3    H172410   1.690   1.761   5.026 -2.1517 -0.8067  2.5190
16973TIP3    H272411   1.748   1.660   4.929  1.3268  2.6439  0.7122
16974TIP3   OH272412   5.674   5.228  11.403 -0.2219 -0.6574  0.6616
16974TIP3    H172413   5.750   5.192  11.357 -0.3039 -2.5691  1.8975
16974TIP3    H272414   5.711   5.292  11.463  0.4099 -1.3257  1.0129
16975TIP3   OH272415   2.810   4.631  12.754 -0.4887 -0.0956 -0.1099
16975TIP3    H172416   2.842   4.554  12.705  1.4873  0.1204  0.7575
16975TIP3    H272417   2.794   4.697  12.686 -0.9265 -0.8297 -0.7433
16976TIP3   OH272418   2.045   3.945   0.281 -0.2395  0.4055  0.5287
16976TIP3    H172419   2.015   4.035   0.283  0.5883  0.6972  2.7997
16976TIP3    H272420   2.005   3.905   0.359  0.1523 -0.9421  0.0695
16977TIP3   OH272421   2.942   4.166   5.880  0.0316  1.2192  0.6216
16977TIP3    H172422   2.961   4.110   5.955  2.3660  0.4647 -0.4467
16977TIP3    H272423   2.847   4.162   5.871 -0.0408 -1.0369  1.7369
16978TIP3   OH272424   2.637   0.500  12.254  0.1677 -0.2726 -0.3699
16978TIP3    H172425   2.582   0.541  12.320 -0.6717 -0.0184 -1.2119
16978TIP3    H272426   2.698   0.569  12.227 -0.0035 -0.1454 -0.4307
16979TIP3   OH272427   6.335   5.537   2.258  0.8065  0.0526 -0.4332
16979TIP3    H172428   6.359   5.622   2.220 -0.6338  0.6170 -0.1474
16979TIP3    H272429   6.400   5.476   2.223  0.8127  0.9491 -2.0679
16980TIP3   OH272430   5.068   2.752   0.961 -0.4403 -0.3178 -0.1791
16980TIP3    H172431   5.075   2.797   1.045 -4.2594  0.0017  0.1576
16980TIP3    H272432   5.118   2.808   0.900  0.4197  0.7360  1.4138
16981TIP3   OH272433   3.140   5.728  14.261  0.4267  0.1317 -0.5681
16981TIP3    H172434   3.165   5.817  14.287 -0.3663  0.0733  0.4081
16981TIP3    H272435   3.131   5.733  14.165 -2.0944  1.7745 -0.3399
16982TIP3   OH272436   2.243   3.101   0.012 -0.0448 -0.4122  0.0809
16982TIP3    H172437   2.220   3.067  -0.074  0.6342  0.0592 -0.2987
16982TIP3    H272438   2.276   3.025   0.060  0.5892 -0.4727 -0.4443
16983TIP3   OH272439   2.782   3.057  16.938 -0.4622 -0.5304 -0.3589
16983TIP3    H172440   2.694   3.093  16.951  0.3566  1.3990  0.2143
16983TIP3    H272441   2.772   3.000  16.862 -2.1868 -0.2613 -0.3937
16984TIP3   OH272442   4.693   0.761   3.413 -0.0171 -0.0913  0.2958
16984TIP3    H172443   4.600   0.743   3.398 -0.2112  1.3622 -0.4817
16984TIP3    H272444   4.735   0.676   3.413 -1.3937 -0.7993  0.9672
16985TIP3   OH272445   3.636   1.351  12.610 -0.0032 -0.6123  0.3897
16985TIP3    H172446   3.587   1.383  12.534 -0.6755 -0.8647  0.7102
16985TIP3    H272447   3.580   1.282  12.647  0.3624 -0.5503  1.0650
16986TIP3   OH272448   5.828   2.348   4.769 -0.5101  0.8310 -0.4806
16986TIP3    H172449   5.907   2.297   4.751  1.3266  3.4708 -0.4937
16986TIP3    H272450   5.793   2.370   4.683 -0.5156  0.7396 -0.5018
16987TIP3   OH272451   2.890   3.388  11.246  0.8683 -1.0882 -0.0504
16987TIP3    H172452   2.800   3.359  11.230  0.1734  1.2408 -0.6367
16987TIP3    H272453   2.883   3.481  11.265  2.9202 -1.3337  2.4718
16988TIP3   OH272454   4.647   3.042   6.063 -0.2704  0.0207 -0.1149
16988TIP3    H172455   4.672   2.963   6.015 -0.9991 -0.8856  0.9479
16988TIP3    H272456   4.606   3.009   6.143 -0.5475  1.4851  0.3689
16989TIP3   OH272457   2.497   4.395   2.166  0.0333  0.0617  0.3014
16989TIP3    H172458   2.476   4.453   2.093 -1.2796 -0.8520 -0.0806
16989TIP3    H272459   2.436   4.420   2.235 -0.1862 -0.5114  0.3193
16990TIP3   OH272460   1.101   6.193  17.180 -0.4052 -0.1437 -0.3048
16990TIP3    H172461   1.120   6.229  17.266  0.8278  0.9681 -1.0041
16990TIP3    H272462   1.018   6.147  17.191 -0.8648  0.9672  1.2010
16991TIP3   OH272463   1.125   5.089   1.342 -0.0530 -0.2297  0.1938
16991TIP3    H172464   1.123   5.090   1.438 -0.2687 -0.3370  0.1914
16991TIP3    H272465   1.035   5.110   1.317 -0.0641 -0.4877  0.0171
16992TIP3   OH272466   5.014   5.644  12.161  0.6943  0.0365  0.6322
16992TIP3    H172467   5.109   5.633  12.155  0.6077 -0.1361 -0.7521
16992TIP3    H272468   4.978   5.559  12.138  0.1977  0.0904  1.1894
16993TIP3   OH272469   1.771   3.980  12.258 -0.0168  0.4051  0.0761
16993TIP3    H172470   1.686   3.978  12.303  1.2174  1.0458  2.6453
16993TIP3    H272471   1.815   3.900  12.288 -0.1352 -0.6623 -2.3240
16994TIP3   OH272472   6.552   4.371  12.182 -0.4279 -0.3681  0.3251
16994TIP3    H172473   6.471   4.406  12.219 -0.7635  0.5801 -1.2211
16994TIP3    H272474   6.568   4.291  12.231 -0.2810  1.2755  3.1991
16995TIP3   OH272475   1.337   3.599   3.371 -0.8927  0.1523 -0.3321
16995TIP3    H172476   1.392   3.627   3.298 -1.0164  1.2261 -0.0291
16995TIP3    H272477   1.304   3.513   3.345  0.9599 -0.5603 -0.4997
16996TIP3   OH272478   1.413   0.693   0.882  0.7762  0.4232  0.6289
16996TIP3    H172479   1.451   0.701   0.969  0.1349  2.3599  0.7757
16996TIP3    H272480   1.452   0.764   0.831 -0.5999  0.7868  0.0314
16997TIP3   OH272481   6.653   0.092   1.558  0.1021  0.0412 -0.2756
16997TIP3    H172482   6.580   0.154   1.554 -1.3545 -1.6028 -0.3994
16997TIP3    H272483   6.671   0.082   1.652  0.7153  1.0142 -0.2710
16998TIP3   OH272484   5.817   6.163   3.315 -0.3491  0.3637 -0.4520
16998TIP3    H172485   5.891   6.125   3.362  1.1163  1.8674 -1.4375
16998TIP3    H272486   5.854   6.197   3.234 -2.6988 -1.8033 -2.6455
16999TIP3   OH272487   0.898   6.585   0.210  0.3945 -0.2945  0.7477
16999TIP3    H172488   0.854   6.569   0.127  0.0784 -2.2842  1.2531
16999TIP3    H272489   0.838   6.644   0.257 -0.3542 -0.6813  0.3054
17000TIP3   OH272490   1.034   2.508  17.290 -0.3403 -0.0905  1.0733
17000TIP3    H172491   1.017   2.598  17.315  0.2180  0.4693 -0.4557
17000TIP3    H272492   1.104   2.479  17.349  1.8512  1.6073 -0.5098
17001TIP3   OH272493   2.349   5.888   3.829  0.0578 -0.2294 -0.4811
17001TIP3    H172494   2.336   5.813   3.888 -0.9860  1.1669  1.1664
17001TIP3    H272495   2.262   5.927   3.821  0.8264  1.6998 -0.0256
17002TIP3   OH272496   0.538   2.774  15.539  0.3062  0.1902  0.2319
17002TIP3    H172497   0.477   2.801  15.609  0.6554  0.3320  0.4828
17002TIP3    H272498   0.482   2.727  15.477 -0.0381  0.1852  0.5339
17003TIP3   OH272499   3.534   4.195  16.476 -0.4601  0.2097  0.2863
17003TIP3    H172500   3.458   4.160  16.523  0.1215  0.0372  1.1204
17003TIP3    H272501   3.509   4.191  16.384 -1.3620 -0.0891  0.5305
17004TIP3   OH272502   6.761   6.522   3.855  0.2322 -0.4744  0.2448
17004TIP3    H172503   6.771   6.575   3.775 -1.0301 -3.2742 -1.9306
17004TIP3    H272504   6.667   6.517   3.869  0.4080 -0.7911  1.3985
17005TIP3   OH272505   2.854   2.218   0.139 -0.0895  0.0285  0.1751
17005TIP3    H172506   2.760   2.201   0.130 -0.0113 -0.0650 -0.5302
17005TIP3    H272507   2.868   2.223   0.233 -0.6097 -1.1068  0.3344
17006TIP3   OH272508   2.614   4.122   0.571  0.0433  0.0533 -0.4877
17006TIP3    H172509   2.647   4.170   0.495  0.6188 -0.3792 -0.5119
17006TIP3    H272510   2.519   4.121   0.558 -0.3065  3.3903  0.7814
17007TIP3   OH272511   2.582   1.144   5.674 -0.4335  0.8652  0.2983
17007TIP3    H172512   2.641   1.202   5.626 -2.2063  1.8625 -0.7807
17007TIP3    H272513   2.498   1.151   5.628 -0.7357 -2.7360 -0.0339
17008TIP3   OH272514   3.761   1.603   2.708  0.4851  0.6681  0.1889
17008TIP3    H172515   3.675   1.641   2.688 -0.0542 -1.4169 -1.8774
17008TIP3    H272516   3.742   1.513   2.734  1.8778  1.0642  2.9782
17009TIP3   OH272517   4.818   2.077  12.567  0.2227  0.3928 -0.6378
17009TIP3    H172518   4.825   2.126  12.650 -0.7927 -3.4056  1.9456
17009TIP3    H272519   4.724   2.061  12.557  0.5546 -1.5519 -0.9762
17010TIP3   OH272520   4.774   6.218   1.074  0.1376 -0.1592 -0.5667
17010TIP3    H172521   4.826   6.292   1.043  0.4707  0.1305  0.6622
17010TIP3    H272522   4.728   6.251   1.151  0.9180 -1.4455  0.4974
17011TIP3   OH272523   0.404   2.868   2.219 -0.0754  0.0045  0.6702
17011TIP3    H172524   0.449   2.906   2.143  1.3377 -0.4334  1.2461
17011TIP3    H272525   0.427   2.775   2.216 -0.1783 -0.0550  1.4992
17012TIP3   OH272526   0.944   1.244   1.411  0.0399  0.4823  0.4232
17012TIP3    H172527   0.868   1.282   1.368 -0.1802 -0.2544  0.1531
17012TIP3    H272528   0.999   1.212   1.340  0.9172  1.5613  0.5820
17013TIP3   OH272529   4.094   1.257  12.143  0.3945  0.2832 -0.0556
17013TIP3    H172530   4.149   1.315  12.089 -2.2912  2.9397 -0.1822
17013TIP3    H272531   4.157   1.207  12.196  2.9495  3.0865 -0.1628
17014TIP3   OH272532   4.438   0.547  10.435  0.1651  0.0433 -0.2601
17014TIP3    H172533   4.380   0.575  10.505  0.0973 -0.3610 -0.1488
17014TIP3    H272534   4.466   0.628  10.392 -0.2955  0.2568 -0.1657
17015TIP3   OH272535   0.472   0.561  16.838  0.4310  0.0631 -0.2196
17015TIP3    H172536   0.555   0.609  16.834  1.0807 -0.9540  0.4682
17015TIP3    H272537   0.445   0.566  16.930 -1.5162  2.3552 -0.8230
17016TIP3   OH272538   0.931   5.272   0.731  0.5745 -0.5977 -0.7696
17016TIP3    H172539   0.907   5.189   0.689 -0.0718 -0.8048 -0.0185
17016TIP3    H272540   1.026   5.275   0.725  0.5839 -1.2282 -1.1048
17017TIP3   OH272541   6.532   3.763  13.037 -0.2362  0.5249  0.5895
17017TIP3    H172542   6.503   3.736  12.949 -1.6705  0.9717  0.8958
17017TIP3    H272543   6.616   3.718  13.049 -0.5443 -0.4281 -0.5711
17018TIP3   OH272544   1.625   5.326  11.797 -0.0462 -0.1171  0.3532
17018TIP3    H172545   1.551   5.355  11.744 -0.8874  0.0874  1.6104
17018TIP3    H272546   1.670   5.261  11.742  0.5693  1.8320 -1.5840
17019TIP3   OH272547   5.308   4.318   3.241 -0.3885  0.3821 -0.4518
17019TIP3    H172548   5.262   4.386   3.290 -1.3281 -0.6346  0.1288
17019TIP3    H272549   5.382   4.295   3.297 -1.3087 -0.5892  0.4075
17020TIP3   OH272550   6.076   3.043  16.494 -0.3395  0.7336 -0.0319
17020TIP3    H172551   6.160   3.086  16.483  1.2904 -2.0651  0.4018
17020TIP3    H272552   6.047   3.021  16.405 -0.6602  1.7448 -0.1831
17021TIP3   OH272553   6.801   2.886  15.734  0.0355 -0.3318 -0.2126
17021TIP3    H172554   6.745   2.845  15.668 -0.9333 -1.2799  1.1333
17021TIP3    H272555   6.889   2.855  15.713 -0.3406 -1.0926 -0.7241
17022TIP3   OH272556   6.480   5.196   3.449 -0.4515  0.5142 -0.4125
17022TIP3    H172557   6.560   5.235   3.413 -0.4169  1.3607  0.5514
17022TIP3    H272558   6.498   5.102   3.454  0.1529  0.5954 -1.0184
17023TIP3   OH272559   4.940   2.026  16.585 -0.2272 -0.0632 -0.3063
17023TIP3    H172560   5.013   2.001  16.641 -2.3385 -1.3913  2.0449
17023TIP3    H272561   4.937   1.958  16.517  2.1995  1.4227 -2.0424
17024TIP3   OH272562   0.989   6.689   4.069  0.4087  0.0518  0.1609
17024TIP3    H172563   0.994   6.670   4.163  1.6842 -0.3238  0.0410
17024TIP3    H272564   0.975   6.784   4.064  3.1649  0.5853  0.7706
17025TIP3   OH272565   0.949   1.611   4.509  0.6871 -0.3954 -0.3009
17025TIP3    H172566   0.856   1.622   4.489  0.5689 -0.8930 -0.0448
17025TIP3    H272567   0.992   1.687   4.470  0.2315 -0.4177 -0.8515
17026TIP3   OH272568   1.702   3.976   4.026  0.4176 -0.0732  0.1066
17026TIP3    H172569   1.786   3.977   4.074  0.6961  0.1730 -0.3778
17026TIP3    H272570   1.636   3.986   4.094  0.8484  1.1297  0.3777
17027TIP3   OH272571   2.408   1.658   0.776 -0.0742  0.3038  0.3222
17027TIP3    H172572   2.372   1.719   0.841 -0.6829 -0.6033  0.8579
17027TIP3    H272573   2.383   1.572   0.808  1.3774 -0.2863 -0.0372
17028TIP3   OH272574   3.866   2.245  11.487 -0.3649  0.2797  0.3473
17028TIP3    H172575   3.906   2.255  11.401  0.3231 -1.2188  0.4633
17028TIP3    H272576   3.782   2.202  11.470  1.3347 -3.5182  0.6012
17029TIP3   OH272577   1.799   3.004  15.882  0.5693 -0.1991  0.4475
17029TIP3    H172578   1.767   2.933  15.938 -1.5445 -0.8359 -1.4606
17029TIP3    H272579   1.756   3.083  15.916 -1.1575 -0.6673 -0.5409
17030TIP3   OH272580   0.209   4.921   4.258 -0.9343 -0.5354  0.9395
17030TIP3    H172581   0.170   4.871   4.330  0.5551  0.0822  2.2383
17030TIP3    H272582   0.296   4.883   4.247 -1.1042 -0.5522 -0.4952
17031TIP3   OH272583   5.795   1.338  12.305  0.5114  0.0948  0.1675
17031TIP3    H172584   5.754   1.424  12.321 -1.8962 -0.7355 -1.0369
17031TIP3    H272585   5.878   1.342  12.353  0.7216  3.2630 -0.2458
17032TIP3   OH272586   4.486   3.651   5.395  0.6557  0.4692 -0.1475
17032TIP3    H172587   4.446   3.658   5.308  1.7839 -1.3069 -0.8517
17032TIP3    H272588   4.535   3.569   5.393 -0.1518 -0.1668  2.5422
17033TIP3   OH272589   2.925   3.592  16.791 -0.3095  0.5459  0.5395
17033TIP3    H172590   2.850   3.650  16.778 -2.2869 -2.0430 -0.5734
17033TIP3    H272591   2.889   3.517  16.839  1.2397 -1.2719 -0.9456
17034TIP3   OH272592   2.930   1.775  11.549 -0.2418  0.0471  0.3906
17034TIP3    H172593   3.013   1.737  11.521 -0.5604  0.3722 -1.1151
17034TIP3    H272594   2.864   1.711  11.522 -0.4865 -0.2185  1.5950
17035TIP3   OH272595   1.147   6.134  11.066 -0.2256 -0.8026 -0.1049
17035TIP3    H172596   1.140   6.179  10.982 -1.3231  0.0128  0.3982
17035TIP3    H272597   1.233   6.091  11.063 -1.1220 -2.6044 -2.4935
17036TIP3   OH272598   5.941   5.076  13.674  0.1343  0.6059 -0.4818
17036TIP3    H172599   5.930   5.127  13.754 -1.4892 -0.3711 -0.0268
17036TIP3    H272600   5.853   5.043  13.654  0.3918  1.1946 -2.9455
17037TIP3   OH272601   1.836   2.105  12.875 -0.0712  0.0768  0.3283
17037TIP3    H172602   1.810   2.197  12.869  0.3021  0.1366 -0.4643
17037TIP3    H272603   1.798   2.064  12.797  0.4381 -0.2717  0.2601
17038TIP3   OH272604   3.185   4.343   2.792 -0.6359 -0.1787 -0.7525
17038TIP3    H172605   3.170   4.352   2.887 -0.4894 -2.8303 -0.4191
17038TIP3    H272606   3.113   4.287   2.762 -0.3358  0.1449 -2.1174
17039TIP3   OH272607   1.034   2.339  15.786 -0.1205  0.5730  0.5867
17039TIP3    H172608   1.114   2.302  15.824  0.0005 -0.8045 -0.8721
17039TIP3    H272609   0.988   2.379  15.860  1.5070  0.6523  1.6045
17040TIP3   OH272610   3.976   6.738   5.609 -0.0064  0.1639  0.6094
17040TIP3    H172611   3.998   6.739   5.516  0.6806  1.7994  0.7677
17040TIP3    H272612   3.880   6.732   5.610  0.0288 -0.8630 -0.1670
17041TIP3   OH272613   5.326   5.279   3.497 -0.1764  0.6047  0.1142
17041TIP3    H172614   5.255   5.342   3.506 -0.2187  0.4379  1.1482
17041TIP3    H272615   5.327   5.256   3.404 -0.0982  2.1776 -0.3021
17042TIP3   OH272616   3.982   0.392   2.355  0.4116 -0.2800 -0.0677
17042TIP3    H172617   3.955   0.469   2.406 -0.9820 -0.0985 -1.0239
17042TIP3    H272618   3.934   0.319   2.396  2.3799 -0.8313  1.3783
17043TIP3   OH272619   4.659   4.828   1.523  0.1370  0.6143  0.3007
17043TIP3    H172620   4.696   4.740   1.532  0.8593  0.8838  0.0690
17043TIP3    H272621   4.728   4.886   1.555  0.0278  1.1496 -0.4043
17044TIP3   OH272622   2.388   2.616  14.024  0.8112  0.4342 -0.0141
17044TIP3    H172623   2.460   2.634  13.963  1.0688  2.1349  0.7363
17044TIP3    H272624   2.387   2.691  14.083 -0.6668 -0.2522  0.8971
17045TIP3   OH272625   4.928   5.189   0.835 -0.0111 -0.4444  0.8625
17045TIP3    H172626   4.960   5.129   0.902  1.6853  2.3506  2.7857
17045TIP3    H272627   4.999   5.195   0.771  0.3973  0.4049  1.3691
17046TIP3   OH272628   2.736   2.658   3.308  0.6173  0.4898  0.1062
17046TIP3    H172629   2.808   2.641   3.246  2.0009 -1.9190  2.1741
17046TIP3    H272630   2.771   2.724   3.367  0.4452  0.6183  0.0635
17047TIP3   OH272631   1.825   3.875   5.868  0.5416 -0.2218 -0.0432
17047TIP3    H172632   1.768   3.928   5.813 -2.6241 -3.2259 -0.0400
17047TIP3    H272633   1.828   3.921   5.952  0.3788  1.3686 -0.8849
17048TIP3   OH272634   4.395   1.567  13.585  0.2604  0.4118 -0.5103
17048TIP3    H172635   4.444   1.501  13.634 -0.3205  0.6074  0.3625
17048TIP3    H272636   4.340   1.609  13.651 -1.7212 -0.3735 -1.5736
17049TIP3   OH272637   1.068   4.863   4.977 -0.2758  0.5903 -0.4816
17049TIP3    H172638   0.979   4.836   5.001 -0.1769  0.7185  0.0541
17049TIP3    H272639   1.063   4.882   4.883 -0.4732 -0.7621 -0.7610
17050TIP3   OH272640   5.316   5.071  13.094  0.1047 -0.0891  0.0632
17050TIP3    H172641   5.274   5.036  13.172 -0.6137 -1.3901 -0.8772
17050TIP3    H272642   5.398   5.023  13.087  0.0711 -0.1239 -0.1010
17051TIP3   OH272643   5.342   3.684   3.088  0.0576 -0.2546  0.0854
17051TIP3    H172644   5.300   3.654   3.008 -0.8954 -2.6477  1.3988
17051TIP3    H272645   5.407   3.617   3.108 -0.4386 -0.2471  1.8487
17052TIP3   OH272646   3.268   2.886  15.435 -0.3798 -0.1749 -0.3156
17052TIP3    H172647   3.213   2.819  15.396 -0.8242  1.0673 -1.9576
17052TIP3    H272648   3.289   2.945  15.362  0.4799  1.1283  0.9333
17053TIP3   OH272649   0.721   5.450  15.977  0.2565  0.1398  0.1936
17053TIP3    H172650   0.728   5.364  15.935  0.2654  0.5258 -0.6113
17053TIP3    H272651   0.790   5.503  15.936  1.8784 -0.1186  2.3629
17054TIP3   OH272652   1.721   6.714  11.645  0.2338  0.1972  0.0141
17054TIP3    H172653   1.671   6.706  11.564 -0.0202  1.3550  0.0451
17054TIP3    H272654   1.702   6.803  11.677  3.2765  1.1838 -0.6235
17055TIP3   OH272655   2.846   3.375  16.947 -0.6373  0.4350  0.1614
17055TIP3    H172656   2.835   3.293  16.899  0.6078 -0.4220  1.2720
17055TIP3    H272657   2.779   3.373  17.016  0.1421 -0.2283  0.9194
17056TIP3   OH272658   2.187   6.254   1.430 -0.3653  0.2697  0.6939
17056TIP3    H172659   2.269   6.291   1.464  0.0234  0.9734 -0.8854
17056TIP3    H272660   2.212   6.168   1.395 -0.0089  0.9480 -0.8140
17057TIP3   OH272661   1.905   1.760   1.620 -0.0019 -0.2145 -0.5422
17057TIP3    H172662   1.886   1.844   1.661  0.4710  0.2036 -1.1625
17057TIP3    H272663   1.952   1.711   1.687 -1.4348 -0.4978  0.2860
17058TIP3   OH272664   5.003   0.627  14.095 -0.0906 -0.6545  0.1313
17058TIP3    H172665   5.085   0.581  14.080  0.7099  0.4272  1.0080
17058TIP3    H272666   4.984   0.670  14.012 -1.1391 -2.9069 -0.8777
17059TIP3   OH272667   5.718   3.497  14.006  0.1244 -0.4762 -0.0111
17059TIP3    H172668   5.681   3.464  14.088 -0.2162  1.8943  0.8431
17059TIP3    H272669   5.793   3.550  14.032  0.5042 -0.3307 -1.3044
17060TIP3   OH272670   5.864   1.752  16.802  0.6534 -0.1571  0.3301
17060TIP3    H172671   5.944   1.707  16.775  0.6479 -1.0341  1.6873
17060TIP3    H272672   5.829   1.789  16.721  1.7361 -0.8731 -0.4958
17061TIP3   OH272673   1.947   3.643  14.522  0.1124  0.4846 -0.0408
17061TIP3    H172674   1.930   3.556  14.486  0.8634  0.5624 -0.6036
17061TIP3    H272675   1.920   3.636  14.613 -0.8153 -0.0314 -0.3377
17062TIP3   OH272676   4.736   2.795   1.583 -0.4700  1.0017  0.3143
17062TIP3    H172677   4.823   2.809   1.545 -0.6455  0.1156 -0.4599
17062TIP3    H272678   4.729   2.700   1.592 -1.2629  1.0790  0.5930
17063TIP3   OH272679   5.219   6.785   0.406  0.0786 -0.0447  0.5785
17063TIP3    H172680   5.173   6.715   0.452 -0.7657  1.0101  1.3690
17063TIP3    H272681   5.166   6.863   0.421  0.1557  0.4947 -1.5730
17064TIP3   OH272682   0.894   4.480   0.253 -0.2327  0.3862 -0.1235
17064TIP3    H172683   0.837   4.547   0.291  0.2929  1.0056 -0.4070
17064TIP3    H272684   0.867   4.399   0.296 -0.2053  0.9350  0.9761
17065TIP3   OH272685   5.909   4.015   4.735  0.3892 -0.3111 -0.4559
17065TIP3    H172686   5.918   3.922   4.754  0.0615 -0.2822 -0.1575
17065TIP3    H272687   5.815   4.028   4.722  0.4547 -0.0572 -0.6735
17066TIP3   OH272688   5.555   4.991  11.467 -0.4131  0.3264  0.1785
17066TIP3    H172689   5.589   5.080  11.461 -0.8735  0.4167 -1.7942
17066TIP3    H272690   5.619   4.944  11.520 -0.5129  1.9543  1.8545
17067TIP3   OH272691   2.753   0.418  15.895  0.2170  0.2966  0.1575
17067TIP3    H172692   2.825   0.476  15.919 -0.3151  0.2048  2.0780
17067TIP3    H272693   2.704   0.404  15.976 -0.5306 -1.6614 -0.5683
17068TIP3   OH272694   6.251   4.740  10.485 -0.0645  0.3833  0.4001
17068TIP3    H172695   6.251   4.689  10.566 -0.4149  1.0950  0.8495
17068TIP3    H272696   6.231   4.675  10.417 -0.1965 -0.1356  0.9241
17069TIP3   OH272697   3.981   4.571   6.378  0.5599  0.1319 -0.6875
17069TIP3    H172698   3.896   4.530   6.393  0.8221 -0.6505 -1.2576
17069TIP3    H272699   3.961   4.664   6.363 -0.2226 -0.0900 -1.0622
17070TIP3   OH272700   4.560   2.015  16.373 -0.4325 -0.0024  0.1811
17070TIP3    H172701   4.570   2.022  16.468  0.7607 -1.2104  0.1860
17070TIP3    H272702   4.613   2.086  16.337 -0.7847  0.3794  0.4175
17071TIP3   OH272703   2.177   1.700   5.710 -0.2001 -0.2720  0.1391
17071TIP3    H172704   2.118   1.766   5.673 -0.6079 -0.6101  0.1655
17071TIP3    H272705   2.233   1.748   5.771 -0.0540  0.1547 -0.3299
17072TIP3   OH272706   4.742   5.464  13.000  0.3598 -0.2778 -0.5420
17072TIP3    H172707   4.737   5.442  13.093  0.1823 -4.9586 -1.4464
17072TIP3    H272708   4.835   5.483  12.985  0.7772 -1.5721  0.2496
17073TIP3   OH272709   5.861   6.581   1.460  0.4189  0.2886 -0.1195
17073TIP3    H172710   5.792   6.550   1.401  0.5305  2.2870 -1.4208
17073TIP3    H272711   5.818   6.594   1.544 -1.0561  2.2013 -1.0878
17074TIP3   OH272712   0.274   6.717  11.825 -0.2401 -0.4617  0.1132
17074TIP3    H172713   0.340   6.784  11.841 -1.5843  1.1402 -0.6424
17074TIP3    H272714   0.195   6.751  11.866 -0.8709 -1.8001  0.0691
17075TIP3   OH272715   5.222   3.668  15.466 -0.3213 -0.4808 -0.6667
17075TIP3    H172716   5.304   3.620  15.455  0.8315  0.2612  3.1880
17075TIP3    H272717   5.242   3.757  15.440  0.0906 -0.3254  0.1617
17076TIP3   OH272718   4.034   4.538  16.893  0.4821 -0.2098 -0.2540
17076TIP3    H172719   4.073   4.600  16.831  2.6926  1.0881  2.2442
17076TIP3    H272720   4.101   4.472  16.908  0.1251 -0.3058  1.0099
17077TIP3   OH272721   5.332   0.286  15.363 -0.0277 -0.1749  0.7468
17077TIP3    H172722   5.323   0.278  15.268  0.1062 -0.2832  0.7428
17077TIP3    H272723   5.370   0.203  15.391 -0.2762 -0.2293  0.9249
17078TIP3   OH272724   5.206   1.550  15.132 -0.4320  0.4288  0.0410
17078TIP3    H172725   5.115   1.553  15.105 -0.4245 -2.2783 -0.5836
17078TIP3    H272726   5.252   1.511  15.058  0.8905 -0.1393  1.1122
17079TIP3   OH272727   4.203   1.740   1.145 -0.4446 -0.1152 -0.4295
17079TIP3    H172728   4.116   1.778   1.133 -0.6152  0.3555  1.7526
17079TIP3    H272729   4.257   1.813   1.176 -0.1579 -1.0418  1.4371
17080TIP3   OH272730   0.395   2.237   1.063  0.0897  0.5785  0.9044
17080TIP3    H172731   0.490   2.230   1.069  0.1389  0.0635 -0.2166
17080TIP3    H272732   0.362   2.161   1.111  0.2804  0.2445  0.5164
17081TIP3   OH272733   5.786   4.416   5.344  0.2639 -0.3302  0.3207
17081TIP3    H172734   5.836   4.437   5.265  0.1663  1.5993  0.7304
17081TIP3    H272735   5.805   4.323   5.361 -1.1882 -1.3864 -3.0090
17082TIP3   OH272736   5.593   1.697   2.343 -0.6133  0.2132 -0.3298
17082TIP3    H172737   5.569   1.772   2.287  0.3906  1.4833  0.8843
17082TIP3    H272738   5.509   1.658   2.367 -1.1580  0.9048 -1.0417
17083TIP3   OH272739   4.606   1.855   0.699  0.0991  0.6125  0.4027
17083TIP3    H172740   4.690   1.899   0.715  0.8135 -0.2346 -0.8709
17083TIP3    H272741   4.599   1.790   0.770 -0.3617  1.8541  1.5503
17084TIP3   OH272742   5.683   6.582  17.006 -0.2426  0.1799 -0.5588
17084TIP3    H172743   5.636   6.567  17.088  1.8425 -0.3625  0.5963
17084TIP3    H272744   5.679   6.677  16.993 -1.3457  0.1793 -0.3400
17085TIP3   OH272745   6.353   2.596   4.360 -0.3474 -0.3776 -0.2764
17085TIP3    H172746   6.349   2.505   4.332 -0.2218 -0.8544  1.1578
17085TIP3    H272747   6.262   2.620   4.375 -0.2822 -0.7978  0.8883
17086TIP3   OH272748   2.987   6.012   0.271 -0.0995 -0.1646  0.2128
17086TIP3    H172749   2.892   6.011   0.258 -0.0460 -0.5735 -0.1951
17086TIP3    H272750   3.014   6.098   0.238 -0.2781 -0.2099 -0.0575
17087TIP3   OH272751   1.568   6.726  12.679  0.2287  0.0799  0.2960
17087TIP3    H172752   1.653   6.682  12.675  0.0342 -0.4589  1.6221
17087TIP3    H272753   1.523   6.683  12.752 -0.7520  1.1258  0.3187
17088TIP3   OH272754   5.896   5.533  10.882 -0.2587  0.1791 -0.0729
17088TIP3    H172755   5.855   5.480  10.815 -0.7086 -0.3633  0.6161
17088TIP3    H272756   5.990   5.524  10.866 -0.3666  0.6593 -1.0684
17089TIP3   OH272757   5.478   2.572   4.318 -0.0277  0.5779  0.0176
17089TIP3    H172758   5.572   2.586   4.307 -0.3747  1.8028 -1.9431
17089TIP3    H272759   5.439   2.605   4.236 -2.1248 -0.3136  0.5890
17090TIP3   OH272760   6.353   6.180  15.480 -0.3386  0.3946 -0.3331
17090TIP3    H172761   6.305   6.098  15.491 -1.2634  0.7576 -1.3897
17090TIP3    H272762   6.404   6.167  15.400  0.2406  0.5196  0.0133
17091TIP3   OH272763   4.298   6.775   4.997  0.2600  0.5243  0.4868
17091TIP3    H172764   4.351   6.714   4.945 -1.3187 -1.5364  1.2033
17091TIP3    H272765   4.289   6.852   4.940 -1.2032 -1.5362 -2.3049
17092TIP3   OH272766   5.284   4.421  15.861 -0.3623 -0.1537  0.6336
17092TIP3    H172767   5.325   4.457  15.783 -1.1297 -0.7266 -0.0414
17092TIP3    H272768   5.197   4.460  15.864 -0.1759  0.2316  1.4746
17093TIP3   OH272769   0.949   0.242   1.199  0.0887  0.1793  0.1368
17093TIP3    H172770   0.857   0.229   1.176  0.5325 -1.6963 -0.8009
17093TIP3    H272771   0.959   0.196   1.282  0.1474  0.4973  0.3047
17094TIP3   OH272772   5.249   0.034   1.302 -0.7077  0.1228  0.0951
17094TIP3    H172773   5.315   0.103   1.294 -2.2256  1.4514 -2.3983
17094TIP3    H272774   5.172   0.080   1.336 -0.7849 -1.1188  1.6995
17095TIP3   OH272775   1.920   5.676   0.200  0.6531  0.1119  0.0473
17095TIP3    H172776   1.929   5.589   0.161 -0.0080 -0.7708  1.7138
17095TIP3    H272777   1.989   5.679   0.266  0.5158  0.7512  0.1637
17096TIP3   OH272778   2.799   0.746  12.356  0.1196  0.3786 -0.0100
17096TIP3    H172779   2.788   0.829  12.404 -1.7148  0.2110 -0.0473
17096TIP3    H272780   2.789   0.679  12.424  0.6947  0.1805 -0.1243
17097TIP3   OH272781   1.233   1.643  16.151 -0.1203  0.2584  0.2985
17097TIP3    H172782   1.173   1.581  16.111 -1.8372  2.0348 -0.0369
17097TIP3    H272783   1.240   1.615  16.242 -0.9830 -0.3319  0.1933
17098TIP3   OH272784   2.011   3.554  15.857  0.5041 -0.2981 -0.0829
17098TIP3    H172785   1.967   3.531  15.775  0.2628  0.7429 -0.2644
17098TIP3    H272786   1.992   3.482  15.916 -2.8680  0.8033  0.3842
17099TIP3   OH272787   3.368   5.253  15.107  0.0016 -0.6535 -0.3144
17099TIP3    H172788   3.358   5.228  15.015 -0.2363  0.2706 -0.5470
17099TIP3    H272789   3.394   5.172  15.151 -1.1253 -1.3997 -0.9726
17100TIP3   OH272790   2.002   4.823   2.551  0.1496 -0.5152 -0.3518
17100TIP3    H172791   1.931   4.875   2.514  0.4488 -0.4842 -0.9016
17100TIP3    H272792   2.066   4.888   2.580 -2.0078 -0.1898  4.6321
17101TIP3   OH272793   3.339   6.403   5.504 -0.4568 -0.5440 -0.0336
17101TIP3    H172794   3.327   6.329   5.445  2.3616  0.0928 -1.5981
17101TIP3    H272795   3.411   6.377   5.561  1.3834  1.2970 -1.3656
17102TIP3   OH272796   6.376   3.261   2.273 -0.2230 -0.3008 -0.5674
17102TIP3    H172797   6.376   3.174   2.312  1.2398  0.1904  0.6432
17102TIP3    H272798   6.299   3.304   2.310 -0.4918 -0.8084 -0.5298
17103TIP3   OH272799   4.683   6.284   1.314  0.5265 -0.2657  0.2615
17103TIP3    H172800   4.620   6.273   1.385 -0.9918 -1.0331 -1.1460
17103TIP3    H272801   4.703   6.378   1.313 -0.7206  0.0142  0.6323
17104TIP3   OH272802   2.606   2.515   5.674  0.1403  0.1579 -0.2745
17104TIP3    H172803   2.621   2.609   5.668  0.1345  0.1508 -0.4016
17104TIP3    H272804   2.518   2.507   5.712  0.9522  0.1995  1.7300
17105TIP3   OH272805   4.606   6.517   1.866  1.1717 -0.1811 -0.3957
17105TIP3    H172806   4.654   6.515   1.949  1.6684  0.7810 -0.6534
17105TIP3    H272807   4.548   6.441   1.871 -0.6952  1.2316  1.9588
17106TIP3   OH272808   3.421   0.582  11.417 -0.1482 -0.0034 -0.5033
17106TIP3    H172809   3.491   0.647  11.429 -0.5089 -0.0427  2.6749
17106TIP3    H272810   3.458   0.501  11.453 -2.2135  0.3524  2.8984
17107TIP3   OH272811   1.228   4.573   2.182 -0.7317  0.1920 -0.7889
17107TIP3    H172812   1.237   4.650   2.126  1.2353  0.1121 -0.6560
17107TIP3    H272813   1.293   4.587   2.251  0.5727 -2.1183 -1.4368
17108TIP3   OH272814   0.612   6.747  12.525  0.4400 -0.9836 -0.6912
17108TIP3    H172815   0.675   6.817  12.542 -0.1669 -0.2637 -1.3553
17108TIP3    H272816   0.639   6.676  12.584  3.0230 -1.4350 -2.2519
17109TIP3   OH272817   2.670   0.171  15.413  0.2512  0.4834 -0.0359
17109TIP3    H172818   2.755   0.130  15.428 -0.3137 -0.4808  0.6090
17109TIP3    H272819   2.628   0.172  15.499 -0.6652  0.3192 -0.4679
17110TIP3   OH272820   5.209   4.349  12.886 -0.1494  0.5185 -0.3709
17110TIP3    H172821   5.302   4.352  12.866 -0.0469  1.4030  0.2035
17110TIP3    H272822   5.167   4.330  12.802  0.6049 -1.0204 -0.4308
17111TIP3   OH272823   5.265   2.089  12.362 -0.0048  0.0037  0.1325
17111TIP3    H172824   5.360   2.099  12.355 -0.1491  1.1494 -0.6374
17111TIP3    H272825   5.246   2.007  12.318  0.5758  0.0789 -0.2697
17112TIP3   OH272826   2.766   5.710   3.577  0.1208 -0.2016 -0.2414
17112TIP3    H172827   2.815   5.724   3.496  0.6805  0.1623  0.1562
17112TIP3    H272828   2.831   5.677   3.640 -0.3957 -0.8959 -0.0546
17113TIP3   OH272829   3.602   6.527   3.570  0.6181  0.2134 -0.1708
17113TIP3    H172830   3.630   6.611   3.608 -0.2447  0.8947 -0.9849
17113TIP3    H272831   3.684   6.481   3.552  1.1938  1.5056 -1.0574
17114TIP3   OH272832   0.750   0.516   4.304 -1.0582 -0.5416  0.1859
17114TIP3    H172833   0.710   0.603   4.304  0.6481  0.2783 -0.5170
17114TIP3    H272834   0.801   0.513   4.385 -0.1472 -0.4189 -0.3791
17115TIP3   OH272835   6.130   5.793   6.374 -0.8239 -0.1240 -0.2186
17115TIP3    H172836   6.166   5.824   6.291 -0.9291 -1.1629 -0.6749
17115TIP3    H272837   6.200   5.809   6.438 -0.5653  0.2717 -0.5919
17116TIP3   OH272838   5.882   1.900  16.559 -0.2314 -0.3559 -0.2942
17116TIP3    H172839   5.809   1.880  16.499 -0.0484  0.2926 -0.7501
17116TIP3    H272840   5.916   1.983  16.527 -2.1369  1.7200  2.5982
17117TIP3   OH272841   6.791   5.477  16.719 -0.2568  0.7024 -0.1519
17117TIP3    H172842   6.756   5.400  16.675 -1.4647  2.1361 -1.8483
17117TIP3    H272843   6.798   5.543  16.650 -1.7793  2.9289  1.6643
17118TIP3   OH272844   1.818   1.085  15.353 -0.6072  0.3389  0.4138
17118TIP3    H172845   1.773   1.161  15.315  0.8550 -0.0728 -2.3589
17118TIP3    H272846   1.770   1.068  15.434 -2.9983  2.2331 -0.4623
17119TIP3   OH272847   6.134   3.751  13.822  0.0009 -0.7367 -0.3256
17119TIP3    H172848   6.087   3.790  13.896 -2.4935 -1.6351 -1.3093
17119TIP3    H272849   6.121   3.657  13.832  1.0380 -0.9671 -1.0255
17120TIP3   OH272850   2.470   4.295  15.545  0.1156 -0.1208 -0.0873
17120TIP3    H172851   2.516   4.227  15.496 -1.3299 -0.7938 -0.5505
17120TIP3    H272852   2.392   4.314  15.493 -0.3087  0.7707  0.8286
17121TIP3   OH272853   2.157   0.937   3.820 -0.0666 -0.1344  0.1780
17121TIP3    H172854   2.188   0.995   3.751  1.1916 -1.1827 -0.1804
17121TIP3    H272855   2.099   0.876   3.776  0.7375 -0.8041  0.0143
17122TIP3   OH272856   2.051   3.972   2.522  0.0058  0.1562 -0.1729
17122TIP3    H172857   2.088   3.897   2.477  0.3365 -0.1803  0.6339
17122TIP3    H272858   2.029   4.034   2.453  0.5060 -0.3404 -0.7832
17123TIP3   OH272859   0.980   5.262  11.989  0.1626 -0.2407 -0.6523
17123TIP3    H172860   0.914   5.197  12.012  2.2248 -2.0668  0.4668
17123TIP3    H272861   0.965   5.280  11.896 -0.8422 -1.8804 -0.8454
17124TIP3   OH272862   5.109   3.733   4.784  0.2647  0.0928  0.1733
17124TIP3    H172863   5.033   3.751   4.840 -1.6516 -1.6846 -1.6936
17124TIP3    H272864   5.158   3.666   4.831 -0.3552 -0.1179  0.5382
17125TIP3   OH272865   5.039   0.866   2.584  0.5410 -0.1946 -0.2147
17125TIP3    H172866   5.111   0.873   2.647  0.9100  1.3990 -0.7849
17125TIP3    H272867   5.037   0.773   2.561  0.9538 -0.6656  1.4692
17126TIP3   OH272868   3.019   3.721   3.492 -0.2335 -0.1250 -0.0656
17126TIP3    H172869   2.968   3.648   3.459  0.2396  1.1451 -4.2156
17126TIP3    H272870   2.956   3.792   3.503 -0.2630 -0.3142  1.0061
17127TIP3   OH272871   1.891   3.752  17.270  0.0317 -0.1430 -0.2251
17127TIP3    H172872   1.834   3.702  17.328  0.3235 -0.4071 -0.1627
17127TIP3    H272873   1.900   3.838  17.313 -0.7992  0.1148 -0.5336
17128TIP3   OH272874   5.713   2.073  12.613  0.0902 -0.6919 -0.6933
17128TIP3    H172875   5.802   2.077  12.579  0.3565 -2.0771 -0.2216
17128TIP3    H272876   5.659   2.108  12.542  0.9737  0.0373 -1.0360
17129TIP3   OH272877   3.731   3.312  15.385  0.4106 -0.1974 -0.0808
17129TIP3    H172878   3.799   3.348  15.441  0.2210  0.6647 -0.3770
17129TIP3    H272879   3.687   3.247  15.439  1.5446 -0.8596  0.0664
17130TIP3   OH272880   5.879   6.222  14.003 -0.1526  0.9167 -0.0521
17130TIP3    H172881   5.863   6.192  14.092  1.7633  0.2118  0.1022
17130TIP3    H272882   5.951   6.285  14.011  0.1041  0.7789 -1.1039
17131TIP3   OH272883   3.196   6.272   4.273  0.0927  0.1087 -0.4673
17131TIP3    H172884   3.279   6.264   4.226  0.0107  0.0038 -0.5969
17131TIP3    H272885   3.136   6.312   4.209  0.3127  1.1371 -0.0458
17132TIP3   OH272886   2.314   3.825   0.926 -0.0964 -0.1372 -0.6447
17132TIP3    H172887   2.324   3.881   1.002  1.0633 -1.9401  0.6066
17132TIP3    H272888   2.392   3.841   0.873  1.8052 -2.5914  1.1893
17133TIP3   OH272889   3.561   2.419   3.548  0.4078 -0.0658 -0.3731
17133TIP3    H172890   3.501   2.394   3.618  1.2672 -0.7592  0.1513
17133TIP3    H272891   3.565   2.514   3.552 -0.0319 -0.0620  0.1139
17134TIP3   OH272892   1.477   2.831   0.006 -0.0119 -0.3263 -0.2971
17134TIP3    H172893   1.454   2.769  -0.063 -1.2634  0.3146 -0.4757
17134TIP3    H272894   1.424   2.908  -0.012  0.2690  0.1694  0.9012
17135TIP3   OH272895   0.998   3.030  13.616 -0.2214 -0.1731 -0.3325
17135TIP3    H172896   1.022   2.940  13.595  0.2543 -0.0080 -0.5013
17135TIP3    H272897   0.920   3.022  13.671 -0.2830 -0.6795 -0.4914
17136TIP3   OH272898   4.995   5.855  14.991 -0.1677  0.3366 -0.1529
17136TIP3    H172899   5.049   5.780  14.965 -0.8340 -0.1811 -0.0915
17136TIP3    H272900   4.932   5.818  15.054 -0.5366  0.9343 -0.1657
17137TIP3   OH272901   1.128   2.974   4.907  0.8471  0.0387 -0.4301
17137TIP3    H172902   1.107   2.883   4.886  0.5127 -0.0116  0.1085
17137TIP3    H272903   1.132   2.977   5.003  1.1237  0.5324 -0.4520
17138TIP3   OH272904   6.150   3.204   3.349  0.0794  0.6425 -0.3301
17138TIP3    H172905   6.135   3.298   3.334  0.0089  0.2490 -3.2513
17138TIP3    H272906   6.066   3.164   3.327  0.6932 -0.2532 -1.0817
17139TIP3   OH272907   3.223   4.831   6.171  0.0812 -0.1107  0.1302
17139TIP3    H172908   3.135   4.835   6.207  0.2339  0.5452  0.4684
17139TIP3    H272909   3.222   4.759   6.109 -0.8000  0.1492 -0.1636
17140TIP3   OH272910   2.479   5.196   1.563  0.2798 -0.2567  0.0448
17140TIP3    H172911   2.395   5.160   1.591  0.7031 -1.6755 -0.4625
17140TIP3    H272912   2.490   5.164   1.473  1.6167 -0.5625  0.3061
17141TIP3   OH272913   5.905   1.334   1.347 -0.2647  0.0415  0.6451
17141TIP3    H172914   5.935   1.398   1.412  0.5374 -0.5169  0.8454
17141TIP3    H272915   5.827   1.294   1.385 -1.2760  1.4743  0.1511
17142TIP3   OH272916   4.391   5.942  15.616  0.0733 -0.0792  0.3291
17142TIP3    H172917   4.463   6.000  15.642 -0.9950  1.2560  0.4048
17142TIP3    H272918   4.314   5.978  15.660 -0.6296 -1.6105  0.4362
17143TIP3   OH272919   6.448   1.258   3.933  0.1329  0.2933  0.0940
17143TIP3    H172920   6.448   1.281   3.840  0.8761 -0.1663 -0.0294
17143TIP3    H272921   6.393   1.180   3.938 -0.9751  1.0642  0.2498
17144TIP3   OH272922   0.036   0.772  15.077 -0.0088  0.7661 -0.3863
17144TIP3    H172923  -0.048   0.791  15.037 -0.7079  1.8959  1.4635
17144TIP3    H272924   0.014   0.738  15.164  1.4098 -2.4028 -1.1123
17145TIP3   OH272925   6.655   6.275   1.099 -0.5978 -0.3550 -0.3831
17145TIP3    H172926   6.631   6.223   1.176  1.9255 -0.2325  0.6020
17145TIP3    H272927   6.599   6.352   1.103 -0.9007 -0.6213  1.0488
17146TIP3   OH272928   6.276   0.601   3.628 -0.0080 -0.2484 -0.0346
17146TIP3    H172929   6.315   0.652   3.699 -0.6088 -0.8343  0.7283
17146TIP3    H272930   6.283   0.510   3.657 -1.3323 -0.4085 -0.1803
17147TIP3   OH272931   3.851   3.757  15.260  0.4868  0.4236 -0.0329
17147TIP3    H172932   3.768   3.752  15.307  1.1514  0.6541  1.2171
17147TIP3    H272933   3.835   3.710  15.179 -0.6948 -0.0268  0.4325
17148TIP3   OH272934   5.067   2.831   5.457  0.2345  0.3702  0.9653
17148TIP3    H172935   5.065   2.853   5.550  2.8396 -1.2095  1.4866
17148TIP3    H272936   5.046   2.737   5.454  1.5652  0.0744  0.1367
17149TIP3   OH272937   5.407   0.055   6.299 -0.0400 -0.4001  0.5363
17149TIP3    H172938   5.357   0.092   6.226  1.0220  1.1365  0.5342
17149TIP3    H272939   5.346   0.053   6.372 -1.5691 -3.2910 -0.6438
17150TIP3   OH272940   6.357   2.823   4.808 -0.1393  0.3611  0.1777
17150TIP3    H172941   6.373   2.730   4.796 -2.5516 -0.2723  1.2607
17150TIP3    H272942   6.430   2.866   4.763 -0.2356 -1.9846 -2.5003
17151TIP3   OH272943   0.525   5.555   2.917 -0.2986  0.0591  0.2188
17151TIP3    H172944   0.528   5.463   2.891  0.2139 -0.1042  0.8424
17151TIP3    H272945   0.433   5.572   2.935 -0.3801 -0.3587  0.2039
17152TIP3   OH272946   4.465   5.604  13.248 -0.5039 -0.5226  0.0519
17152TIP3    H172947   4.406   5.646  13.184 -0.3221  0.0422  0.2432
17152TIP3    H272948   4.544   5.584  13.198 -0.8039 -1.1543 -0.1734
17153TIP3   OH272949   1.523   5.016   4.825  0.0858  0.1294  0.4829
17153TIP3    H172950   1.542   5.021   4.918  1.6113 -0.5197  0.2334
17153TIP3    H272951   1.608   5.006   4.783 -0.6779 -1.2889 -0.8600
17154TIP3   OH272952   5.740   3.128   1.961  0.0784  0.2640  0.2543
17154TIP3    H172953   5.789   3.207   1.986  1.6952 -0.2804 -1.0683
17154TIP3    H272954   5.740   3.074   2.040 -0.5332  1.2809  0.9962
17155TIP3   OH272955   3.474   0.852  13.582 -0.3116  0.4806  0.2151
17155TIP3    H172956   3.406   0.820  13.523  1.2776  0.0654 -1.4565
17155TIP3    H272957   3.499   0.774  13.633 -0.0171  0.2630 -0.2563
17156TIP3   OH272958   5.854   2.517   2.257 -0.7513  0.2052  0.0758
17156TIP3    H172959   5.760   2.527   2.239 -0.3076  1.3460 -1.8970
17156TIP3    H272960   5.875   2.593   2.312 -1.0154 -0.2190  0.7823
17157TIP3   OH272961   3.219   1.853  13.948 -0.6423  0.4303 -0.1446
17157TIP3    H172962   3.243   1.932  13.900 -0.4072 -0.2055 -1.1102
17157TIP3    H272963   3.254   1.781  13.895  0.0725 -0.2865  1.2384
17158TIP3   OH272964   5.746   4.287  12.908  0.4401 -0.3387 -0.3647
17158TIP3    H172965   5.671   4.248  12.953  0.3940  1.2808  1.0750
17158TIP3    H272966   5.810   4.216  12.901 -1.9214 -2.4759 -3.7004
17159TIP3   OH272967   0.903   0.702   0.636 -0.0212 -0.0275  0.0331
17159TIP3    H172968   0.996   0.718   0.652 -0.1588  0.8846 -0.0413
17159TIP3    H272969   0.893   0.717   0.542 -0.2994  0.1967  0.0969
17160TIP3   OH272970   1.297   1.333  14.730 -0.1514 -0.4948 -0.4015
17160TIP3    H172971   1.230   1.396  14.704  1.2155  0.3797 -1.9823
17160TIP3    H272972   1.343   1.375  14.803 -0.2064 -0.3303 -0.4617
17161TIP3   OH272973   6.458   2.061   3.299  0.3229  0.2142  0.7000
17161TIP3    H172974   6.394   2.060   3.227  0.4227 -0.9150  0.6078
17161TIP3    H272975   6.526   2.122   3.270  0.0401  0.2658  0.1313
17162TIP3   OH272976   4.838   6.164   0.687 -0.6137  0.1212 -0.5872
17162TIP3    H172977   4.908   6.106   0.656 -2.0296 -0.8208 -2.1769
17162TIP3    H272978   4.806   6.207   0.607 -0.9137  1.6373  0.3070
17163TIP3   OH272979   5.168   0.813  13.650 -0.6221  0.1116 -0.0701
17163TIP3    H172980   5.180   0.748  13.581  1.9765  0.2296  0.1761
17163TIP3    H272981   5.219   0.779  13.724 -1.9662  0.8183  1.2267
17164TIP3   OH272982   2.528   1.168   0.811  0.4015 -0.2804  0.2934
17164TIP3    H172983   2.489   1.114   0.743 -0.8688  0.3977  0.4473
17164TIP3    H272984   2.512   1.119   0.892  2.1827 -1.2363  0.1203
17165TIP3   OH272985   1.784   3.750   3.838 -0.0475 -0.6244  0.0218
17165TIP3    H172986   1.757   3.737   3.929  1.4358 -1.1448  0.4094
17165TIP3    H272987   1.854   3.815   3.843 -0.0141 -0.5950 -0.7513
17166TIP3   OH272988   0.694   4.444   1.908 -0.0610 -0.7165  0.0402
17166TIP3    H172989   0.767   4.462   1.850 -2.0567  0.1536 -2.3470
17166TIP3    H272990   0.670   4.353   1.889  1.3546 -1.5955  2.0628
17167TIP3   OH272991   4.989   4.457   3.608 -0.4275  0.3022 -0.1741
17167TIP3    H172992   4.940   4.520   3.554 -0.9510  0.8034  0.8605
17167TIP3    H272993   5.057   4.510   3.650 -0.2886 -0.0027 -0.0181
17168TIP3   OH272994   4.833   1.337  15.083 -0.0073 -0.0357 -0.3378
17168TIP3    H172995   4.738   1.344  15.083  0.0170  0.3458 -0.4695
17168TIP3    H272996   4.859   1.348  14.992  0.2186  0.8204 -0.1816
17169TIP3   OH272997   5.954   4.253  13.648 -0.3544 -0.5342 -0.2690
17169TIP3    H172998   5.903   4.334  13.648 -0.1578 -0.3888  1.0649
17169TIP3    H272999   6.038   4.278  13.686  0.0812 -1.1534 -0.8116
17170TIP3   OH273000   5.692   2.143   4.145  0.4033  0.0068 -0.2267
17170TIP3    H173001   5.632   2.096   4.087 -0.1778  0.4417  0.0078
17170TIP3    H273002   5.681   2.100   4.230  0.4063  0.0956 -0.1807
17171TIP3   OH273003   6.325   5.804   1.612 -0.4525 -0.2962  0.1889
17171TIP3    H173004   6.411   5.815   1.654 -0.8069  0.0676  0.8383
17171TIP3    H273005   6.302   5.713   1.629  0.3419 -0.7648 -1.0562
17172TIP3   OH273006   1.531   1.816   4.690  0.3362  0.3008 -0.6018
17172TIP3    H173007   1.544   1.910   4.702 -0.3908  0.2902  0.3976
17172TIP3    H273008   1.482   1.809   4.608 -0.7092  0.8950 -0.0507
17173TIP3   OH273009   1.331   5.527  14.311 -0.8316 -0.7894  0.2581
17173TIP3    H173010   1.343   5.441  14.271  1.4431 -0.5784  0.3774
17173TIP3    H273011   1.333   5.511  14.406 -0.5894 -0.6236  0.2822
17174TIP3   OH273012   5.611   4.195   2.092  0.6103  0.5200 -0.3721
17174TIP3    H173013   5.650   4.108   2.104  2.3662  1.5432  2.5327
17174TIP3    H273014   5.518   4.178   2.080  0.9531 -1.7723 -0.2598
17175TIP3   OH273015   0.654   2.920   3.130  0.6516  0.1752 -0.2876
17175TIP3    H173016   0.682   3.001   3.174  0.4278  0.9174 -1.4611
17175TIP3    H273017   0.630   2.948   3.041  0.9311 -1.2392 -0.8419
17176TIP3   OH273018   6.061   6.423  14.465  0.1392  0.3330  0.3096
17176TIP3    H173019   5.982   6.400  14.513 -2.3487  0.5479 -3.2448
17176TIP3    H273020   6.101   6.339  14.442 -1.4353 -0.0377 -1.2936
17177TIP3   OH273021   3.496   2.860   5.158  0.7392  0.2028  0.2334
17177TIP3    H173022   3.564   2.800   5.189  1.1310  0.9358  0.8434
17177TIP3    H273023   3.526   2.885   5.070  0.4003 -0.7330 -0.1605
17178TIP3   OH273024   0.069   4.261  12.157 -0.2905 -0.4230 -0.0964
17178TIP3    H173025  -0.014   4.277  12.112 -0.5373 -0.7130  0.2475
17178TIP3    H273026   0.134   4.309  12.107 -1.0144  1.8309  1.0117
17179TIP3   OH273027   6.711   6.452   1.574 -0.2974 -0.4013  0.5960
17179TIP3    H173028   6.628   6.409   1.594 -1.2333  0.0856 -1.8640
17179TIP3    H273029   6.718   6.522   1.639 -2.3919  0.2266  0.2174
17180TIP3   OH273030   1.951   5.665  15.398  0.6428  0.6585  0.1357
17180TIP3    H173031   1.954   5.595  15.463 -0.3812 -1.6804 -2.1515
17180TIP3    H273032   1.868   5.710  15.415  0.4714  0.1864  0.5643
17181TIP3   OH273033   1.880   6.130   1.274  0.7578  0.4022 -0.0494
17181TIP3    H173034   1.810   6.147   1.211  0.9944  1.0356 -0.1518
17181TIP3    H273035   1.946   6.082   1.224  0.8811  0.7768 -0.2513
17182TIP3   OH273036   2.874   4.747  15.664  0.3557  0.3528 -0.1612
17182TIP3    H173037   2.904   4.778  15.578  2.2133 -2.0956 -0.5135
17182TIP3    H273038   2.812   4.677  15.643  0.3309  0.1708  0.5041
17183TIP3   OH273039   4.686   1.743   4.382 -0.7039  0.0659 -0.5441
17183TIP3    H173040   4.635   1.809   4.335 -2.2416  0.0971  1.0843
17183TIP3    H273041   4.731   1.793   4.450  0.6593 -0.1413 -1.2521
17184TIP3   OH273042   0.508   0.278  15.363 -0.1354  0.0717 -0.2194
17184TIP3    H173043   0.557   0.359  15.354 -1.1247  0.6344 -0.6800
17184TIP3    H273044   0.470   0.283  15.451  0.1065 -0.0627 -0.1069
17185TIP3   OH273045   5.141   5.603   3.817 -0.5696  0.0787  0.6520
17185TIP3    H173046   5.148   5.521   3.768 -1.1564  1.0183 -1.0988
17185TIP3    H273047   5.166   5.670   3.754  1.4311  1.1649  2.5076
17186TIP3   OH273048   0.841   0.750  13.215  0.3230  0.0923  0.1307
17186TIP3    H173049   0.795   0.833  13.206  0.0894 -0.1487 -1.0587
17186TIP3    H273050   0.794   0.690  13.158  0.8969 -0.6910  0.4549
17187TIP3   OH273051   6.320   5.859  11.462 -0.4063  0.1311  0.1704
17187TIP3    H173052   6.386   5.833  11.526 -1.3592 -0.7952  0.8186
17187TIP3    H273053   6.370   5.883  11.384  0.8891  2.7712  1.6863
17188TIP3   OH273054   2.098   2.667  11.526 -0.1692  0.3579 -0.5395
17188TIP3    H173055   2.026   2.704  11.474 -0.2805  0.4053 -0.3533
17188TIP3    H273056   2.084   2.572  11.521 -0.1092  0.3561 -0.6959
17189TIP3   OH273057   3.285   5.523   5.247  0.7884  0.1760 -0.2608
17189TIP3    H173058   3.325   5.591   5.301  0.4873  1.0732 -1.1434
17189TIP3    H273059   3.239   5.570   5.178 -1.1091 -0.8623  0.2265
17190TIP3   OH273060   0.402   6.651   5.550 -0.0143 -1.0751  0.5325
17190TIP3    H173061   0.363   6.589   5.489 -1.4742 -2.7865  3.0262
17190TIP3    H273062   0.454   6.598   5.610  2.3131  0.6583  0.1804
17191TIP3   OH273063   1.336   1.210  13.152 -0.0252  0.0536 -0.0321
17191TIP3    H173064   1.406   1.230  13.091 -0.8335  0.7381 -0.7689
17191TIP3    H273065   1.324   1.289  13.203 -0.9559  0.3264 -0.6387
17192TIP3   OH273066   6.675   1.236   1.134  0.1478  0.2407  0.1110
17192TIP3    H173067   6.622   1.162   1.164 -0.4648  0.1285 -1.1943
17192TIP3    H273068   6.657   1.305   1.198  0.0616 -0.4500  0.8595
17193TIP3   OH273069   4.662   0.759  15.702  0.4340  0.3441  0.1759
17193TIP3    H173070   4.697   0.678  15.666 -1.5754 -0.6539  0.3810
17193TIP3    H273071   4.736   0.820  15.699  1.2398 -0.6436 -2.5805
17194TIP3   OH273072   6.725   4.060   1.209  0.3389 -0.1154  0.3601
17194TIP3    H173073   6.659   4.127   1.225 -0.0060  0.5781 -3.1949
17194TIP3    H273074   6.779   4.060   1.288 -1.7147  1.8777  1.8792
17195TIP3   OH273075   1.894   3.981  16.595 -0.3425 -0.0157 -0.4147
17195TIP3    H173076   1.972   4.011  16.548 -0.0626 -0.8881 -0.5095
17195TIP3    H273077   1.834   3.952  16.526 -0.3791 -0.2327 -0.2925
17196TIP3   OH273078   4.712   0.185  14.729 -0.2939 -0.0601 -0.0422
17196TIP3    H173079   4.774   0.257  14.713 -0.5747  0.1487 -0.1933
17196TIP3    H273080   4.634   0.227  14.765 -0.3122 -0.3369  0.2443
17197TIP3   OH273081   2.383   4.003   4.063  0.4138  0.1068 -0.4053
17197TIP3    H173082   2.473   4.019   4.091 -0.1511  2.5737  0.2566
17197TIP3    H273083   2.329   4.038   4.134 -1.0767 -0.0524 -1.4092
17198TIP3   OH273084   5.064   0.882   4.434  0.5665  0.2308  0.1982
17198TIP3    H173085   5.061   0.794   4.397 -0.9487 -0.5357  2.0027
17198TIP3    H273086   5.117   0.932   4.372  0.6462 -1.6938 -1.3832
17199TIP3   OH273087   5.619   1.416  12.837  0.2515  0.1503  0.6300
17199TIP3    H173088   5.536   1.370  12.844  0.4559 -0.6440 -1.3469
17199TIP3    H273089   5.660   1.406  12.922 -0.6012 -1.6036  0.8743
17200TIP3   OH273090   2.611   6.606   1.636 -0.0353 -0.3973  0.1400
17200TIP3    H173091   2.594   6.683   1.582 -1.1557 -1.7895 -1.6025
17200TIP3    H273092   2.602   6.532   1.576  2.2401 -1.8577  1.4571
17201TIP3   OH273093   3.282   1.502   1.583 -0.0737 -0.0519 -0.1117
17201TIP3    H173094   3.336   1.570   1.543 -1.0073  1.2101  0.6778
17201TIP3    H273095   3.336   1.468   1.654  0.7787 -0.8535 -1.1121
17202TIP3   OH273096   3.871   3.684   0.728 -0.4017  0.3586 -0.1251
17202TIP3    H173097   3.930   3.612   0.704  0.1518  0.3110  1.2729
17202TIP3    H273098   3.902   3.758   0.676  0.2590  0.0770 -0.1426
17203TIP3   OH273099   6.176   0.877  11.183 -0.5944  0.3752 -0.2360
17203TIP3    H173100   6.198   0.959  11.227  0.2218  0.1016 -0.1136
17203TIP3    H273101   6.083   0.863  11.203 -0.4971  0.7805  0.5388
17204TIP3   OH273102   4.614   3.256   5.162  0.1376 -0.4383 -0.2752
17204TIP3    H173103   4.688   3.214   5.120 -0.9123 -0.1348 -2.5937
17204TIP3    H273104   4.574   3.309   5.093 -1.6701  0.1503  1.1383
17205TIP3   OH273105   1.830   1.811   4.476  0.1374  0.2376  0.4141
17205TIP3    H173106   1.826   1.737   4.416  1.1955 -0.0926  0.7312
17205TIP3    H273107   1.783   1.881   4.430 -0.4952 -0.4900 -0.0717
17206TIP3   OH273108   2.116   2.341  16.514 -0.1700 -0.3617  0.3472
17206TIP3    H173109   2.123   2.256  16.471  0.5470 -1.4137  2.4397
17206TIP3    H273110   2.157   2.402  16.452  2.4742 -2.0865  0.2140
17207TIP3   OH273111   6.770   3.700  16.987 -0.4514  0.0618  0.2077
17207TIP3    H173112   6.726   3.620  17.017  1.8827 -0.8252  1.5834
17207TIP3    H273113   6.728   3.721  16.904 -1.4793 -2.3248  0.0384
17208TIP3   OH273114   1.484   3.595  17.019  0.3525  0.1546 -0.6126
17208TIP3    H173115   1.453   3.585  16.929 -0.5431 -0.7333 -0.2258
17208TIP3    H273116   1.528   3.512  17.039  0.7705  0.4434 -0.3067
17209TIP3   OH273117   3.368   2.878  16.345  0.3486 -0.8194  0.2092
17209TIP3    H173118   3.407   2.818  16.409  1.7309  0.0957  0.2585
17209TIP3    H273119   3.286   2.906  16.386 -0.6697 -3.1217 -0.0877
17210TIP3   OH273120   1.485   1.616   0.212  0.3193  0.5006 -0.1973
17210TIP3    H173121   1.399   1.594   0.177 -0.0021  0.2818  0.7021
17210TIP3    H273122   1.546   1.559   0.164 -0.2119 -0.4543  0.2222
17211TIP3   OH273123   2.374   6.317  14.900 -0.0857 -0.4735 -0.3124
17211TIP3    H173124   2.293   6.267  14.902  0.1030 -0.7973 -0.4891
17211TIP3    H273125   2.356   6.390  14.841 -0.3581 -0.3443 -0.0688
17212TIP3   OH273126   3.382   0.980  11.374  0.1581 -0.5269  0.0595
17212TIP3    H173127   3.314   1.032  11.416  0.3928 -0.1761  0.0070
17212TIP3    H273128   3.450   1.043  11.351 -0.4444 -0.4906 -1.8640
17213TIP3   OH273129   1.743   5.357   0.271 -0.0161  0.2507 -0.2734
17213TIP3    H173130   1.697   5.289   0.222 -3.0002  1.8113  0.1274
17213TIP3    H273131   1.816   5.382   0.215 -0.4648 -1.3686 -1.6590
17214TIP3   OH273132   2.460   0.364  13.025 -0.0973  0.8971 -0.4301
17214TIP3    H173133   2.460   0.376  13.120  2.7801  0.9607 -0.3486
17214TIP3    H273134   2.494   0.446  12.990 -1.5690  1.0543 -1.6178
17215TIP3   OH273135   0.378   2.819   5.993  0.6541  0.5234 -0.1041
17215TIP3    H173136   0.413   2.767   5.920 -1.0892  0.9196 -1.2667
17215TIP3    H273137   0.413   2.776   6.071  0.8675 -1.1965 -1.0912
17216TIP3   OH273138   4.486   3.365  17.241 -0.1549 -0.1452  0.4261
17216TIP3    H173139   4.415   3.367  17.177  0.8229 -2.1572 -0.8298
17216TIP3    H273140   4.547   3.433  17.213  0.7767 -1.6699 -1.5364
17217TIP3   OH273141   1.183   0.625   6.027  0.1813 -0.9248 -0.3858
17217TIP3    H173142   1.141   0.584   6.103 -1.0818 -0.4023 -0.7801
17217TIP3    H273143   1.122   0.692   5.998  1.8407  0.7250 -0.2571
17218TIP3   OH273144   5.801   2.545   0.020 -0.5276  0.4658  0.2144
17218TIP3    H173145   5.837   2.578  -0.062 -0.9628  0.3417 -0.0318
17218TIP3    H273146   5.848   2.462   0.034 -0.3324  0.5690  0.1775
17219TIP3   OH273147   2.065   3.251   0.141 -0.4383 -0.6521  0.3609
17219TIP3    H173148   2.139   3.219   0.090 -0.1173  0.2316  0.2521
17219TIP3    H273149   2.061   3.345   0.121 -0.8038 -0.4468  1.3302
17220TIP3   OH273150   0.747   2.328   2.066  0.5860  0.6717  0.5529
17220TIP3    H173151   0.725   2.328   2.160  0.4674  1.7017  0.5384
17220TIP3    H273152   0.816   2.262   2.058 -0.1784 -0.2293  1.1695
17221TIP3   OH273153   0.665   2.222   0.344 -0.5304 -0.1029  0.0286
17221TIP3    H173154   0.685   2.256   0.257  0.6764  0.5972  0.5544
17221TIP3    H273155   0.749   2.221   0.390 -0.9690 -1.4492  0.8606
17222TIP3   OH273156   3.798   3.193   2.791  0.4378 -0.2030  0.2474
17222TIP3    H173157   3.758   3.222   2.873  1.9181  0.5743  0.7402
17222TIP3    H273158   3.800   3.272   2.736  1.0627 -0.2825  0.1488
17223TIP3   OH273159   4.236   5.755  14.654 -0.7061  0.6238 -0.2750
17223TIP3    H173160   4.172   5.807  14.606 -0.9918  1.2512  0.7506
17223TIP3    H273161   4.314   5.810  14.659 -0.9604  0.9098  0.6935
17224TIP3   OH273162   6.171   6.610   3.399 -0.8087  0.0951 -0.6665
17224TIP3    H173163   6.155   6.522   3.365 -2.3008  0.0904 -0.0327
17224TIP3    H273164   6.185   6.663   3.320  0.3040 -0.7149 -1.0452
17225TIP3   OH273165   1.627   6.348  17.059  0.2317 -0.1667  0.2203
17225TIP3    H173166   1.714   6.309  17.052  0.1867 -0.1875 -0.2648
17225TIP3    H273167   1.569   6.287  17.013  0.1442  0.4044 -0.4405
17226TIP3   OH273168   2.529   1.309  14.969 -0.3039 -0.6479 -0.0455
17226TIP3    H173169   2.453   1.329  14.915  0.7902  0.2094 -1.3415
17226TIP3    H273170   2.560   1.224  14.938 -0.2086 -0.5752 -0.1519
17227TIP3   OH273171   5.038   2.273  12.443  0.0940 -0.3012  0.6071
17227TIP3    H173172   4.991   2.211  12.499 -3.1011  0.3679 -1.0510
17227TIP3    H273173   5.083   2.217  12.379  0.2075 -0.9638  1.2485
17228TIP3   OH273174   1.551   5.961  14.361 -0.1842 -0.3027 -0.3448
17228TIP3    H173175   1.603   5.887  14.328 -0.5606 -1.0972  0.7960
17228TIP3    H273176   1.477   5.920  14.407 -2.0064  0.7936 -2.1320
17229TIP3   OH273177   5.946   4.860  10.554  0.0508  0.3403 -0.0188
17229TIP3    H173178   6.033   4.873  10.518 -0.3354  1.5124 -0.5637
17229TIP3    H273179   5.907   4.791  10.500  1.9106 -3.0134  2.5313
17230TIP3   OH273180   3.642   5.883  16.878 -0.4783 -0.7097 -0.1614
17230TIP3    H173181   3.622   5.801  16.833  0.4418 -0.2501 -1.4899
17230TIP3    H273182   3.699   5.930  16.817  0.9870 -0.1135  1.5623
17231TIP3   OH273183   5.937   2.819  11.654  0.8998 -0.1613  0.3320
17231TIP3    H173184   5.930   2.868  11.572  0.3870  0.0410  0.4963
17231TIP3    H273185   6.006   2.864  11.703  0.2772  0.5353  0.5753
17232TIP3   OH273186   5.918   2.220   0.759  0.6991  0.7476 -0.0546
17232TIP3    H173187   5.961   2.158   0.699  1.5321  2.2521 -1.0758
17232TIP3    H273188   5.831   2.233   0.721 -0.4572 -1.6092  1.5225
17233TIP3   OH273189   0.798   2.995   1.897 -0.6572 -0.0251 -0.1221
17233TIP3    H173190   0.737   3.039   1.956 -1.0384  0.7396 -1.0616
17233TIP3    H273191   0.854   3.065   1.864 -0.7703 -0.3657 -1.0403
17234TIP3   OH273192   3.888   4.340   0.267 -0.4135  0.6999 -0.0664
17234TIP3    H173193   3.805   4.323   0.223  0.5544 -0.9132 -1.3877
17234TIP3    H273194   3.955   4.321   0.201  1.0925 -1.0349  1.8158
17235TIP3   OH273195   4.797   0.003   5.299  0.5985 -0.3303  0.4450
17235TIP3    H173196   4.765   0.083   5.257  1.6737  0.0005  0.2344
17235TIP3    H273197   4.800   0.024   5.392 -2.6111 -1.3384  0.9101
17236TIP3   OH273198   5.741   3.651  17.288 -0.4940  0.3900  0.1075
17236TIP3    H173199   5.749   3.580  17.224  1.2560  0.0109  0.6841
17236TIP3    H273200   5.818   3.705  17.273  0.5429 -0.2927  2.5248
17237TIP3   OH273201   3.545   2.267  14.177  0.1110 -0.6392  0.1767
17237TIP3    H173202   3.558   2.225  14.262  1.2823 -0.9459 -0.1415
17237TIP3    H273203   3.532   2.360  14.198  1.4329 -0.5437  0.6390
17238TIP3   OH273204   6.179   3.499   3.418  0.3691  0.3086 -0.5146
17238TIP3    H173205   6.228   3.479   3.498  0.3515  2.1202  0.0070
17238TIP3    H273206   6.168   3.595   3.420 -0.2278  0.3196 -2.3513
17239TIP3   OH273207   6.648   5.379  14.010  0.0620 -0.3251 -0.1802
17239TIP3    H173208   6.628   5.455  13.956 -0.4530 -1.2410 -1.3200
17239TIP3    H273209   6.664   5.415  14.098  2.2993  1.3430 -1.1884
17240TIP3   OH273210   0.278   3.199   1.369  0.2642 -0.0624 -0.8202
17240TIP3    H173211   0.220   3.258   1.322 -2.1986 -0.8335  1.0114
17240TIP3    H273212   0.266   3.222   1.461  2.0839 -0.9876 -0.3161
17241TIP3   OH273213   5.328   5.618  14.230 -0.2835  0.2908 -0.0810
17241TIP3    H173214   5.421   5.638  14.233 -0.0677 -0.3307 -1.6233
17241TIP3    H273215   5.321   5.530  14.267 -0.1602  0.0893 -0.5247
17242TIP3   OH273216   2.445   0.627   5.743  0.3423  0.2099  1.0711
17242TIP3    H173217   2.482   0.558   5.688 -0.0928  1.8930 -1.5037
17242TIP3    H273218   2.520   0.681   5.767  0.2798  0.6176  0.3716
17243TIP3   OH273219   2.511   2.521  13.317 -0.1221  0.1860 -0.1743
17243TIP3    H173220   2.433   2.530  13.372  0.6090 -1.8234  1.3260
17243TIP3    H273221   2.557   2.445  13.353  3.2010  2.0165 -0.1918
17244TIP3   OH273222   0.661   4.733  12.049 -0.3204  0.2925  0.6566
17244TIP3    H173223   0.741   4.696  12.085 -0.5360 -0.0532  0.7889
17244TIP3    H273224   0.690   4.790  11.979  0.0371  0.1231  0.6668
17245TIP3   OH273225   1.978   1.050  17.081 -0.1797  0.6641  0.1635
17245TIP3    H173226   1.992   0.999  17.001  0.2943 -0.2934  0.8348
17245TIP3    H273227   1.972   1.141  17.051 -1.2960  0.2113 -1.0922
17246TIP3   OH273228   3.635   0.219   2.992 -0.0179  0.0333 -0.0293
17246TIP3    H173229   3.627   0.131   3.029 -1.7976  0.7250  1.3899
17246TIP3    H273230   3.576   0.218   2.916  0.0100 -0.0052 -0.0506
17247TIP3   OH273231   4.518   6.699   0.624 -0.3751  0.0842 -0.7169
17247TIP3    H173232   4.573   6.622   0.611 -2.3451 -1.6432  0.4559
17247TIP3    H273233   4.518   6.713   0.719 -0.2758  1.3736 -0.8893
17248TIP3   OH273234   6.479   3.303  11.307 -1.2759 -0.2718  0.1695
17248TIP3    H173235   6.465   3.320  11.214 -1.2562 -0.8739  0.0555
17248TIP3    H273236   6.521   3.383  11.339  1.6436 -1.1593 -1.0156
17249TIP3   OH273237   2.804   5.804   5.558 -0.2781  0.1537 -0.4313
17249TIP3    H173238   2.831   5.792   5.467 -0.2820 -0.5334 -0.3469
17249TIP3    H273239   2.731   5.743   5.569  1.0795 -1.3719  0.6302
17250TIP3   OH273240   4.262   0.220  11.618 -0.2378  0.3425  0.2785
17250TIP3    H173241   4.185   0.217  11.675  1.6370 -0.6026  2.9539
17250TIP3    H273242   4.262   0.309  11.583 -2.3366  0.4738  0.5094
17251TIP3   OH273243   5.214   4.005   6.768  0.0656 -0.3266 -0.3525
17251TIP3    H173244   5.244   3.938   6.705 -0.1075 -0.6934 -0.0484
17251TIP3    H273245   5.268   3.990   6.846  0.9841  0.7727 -0.7476
17252TIP3   OH273246   6.335   2.379   3.911 -0.7913  0.6238 -0.0842
17252TIP3    H173247   6.329   2.386   4.006 -0.5857  1.4159 -0.1256
17252TIP3    H273248   6.341   2.285   3.895  2.0109  0.5399  0.8690
17253TIP3   OH273249   0.329   3.538   1.972 -0.4924 -0.7778 -0.2425
17253TIP3    H173250   0.329   3.530   1.877  1.7115 -2.0548 -0.2006
17253TIP3    H273251   0.414   3.502   2.000 -0.6144  0.5323  2.1258
17254TIP3   OH273252   0.303   2.327  16.901  0.2049  0.1155  0.1484
17254TIP3    H173253   0.263   2.372  16.975  0.2003  0.4316 -0.0477
17254TIP3    H273254   0.337   2.397  16.845  1.2056 -0.1395  0.4011
17255TIP3   OH273255   1.569   4.252   3.188  0.2569  0.4465 -0.0932
17255TIP3    H173256   1.640   4.203   3.229 -0.9684 -0.7829  0.6355
17255TIP3    H273257   1.515   4.184   3.146 -0.7068  1.3155 -0.2821
17256TIP3   OH273258   5.123   3.466  15.301 -0.2297  0.4611 -0.4010
17256TIP3    H173259   5.034   3.459  15.268  0.0371  0.7178 -1.2066
17256TIP3    H273260   5.118   3.531  15.372 -0.8083 -0.0923  0.0750
17257TIP3   OH273261   2.393   2.179  13.998  0.0299 -0.1138  0.6310
17257TIP3    H173262   2.300   2.191  14.014  0.0408 -1.4112  1.9414
17257TIP3    H273263   2.436   2.223  14.071  0.4396  0.2917  0.1516
17258TIP3   OH273264   2.022   0.034  13.597  0.1341 -0.1006 -1.1748
17258TIP3    H173265   1.932   0.015  13.570 -0.2840 -0.4365  0.3456
17258TIP3    H273266   2.022   0.129  13.612 -0.0812 -0.1478 -0.8493
17259TIP3   OH273267   3.353   6.529  16.228  0.6949 -0.8921 -0.1094
17259TIP3    H173268   3.343   6.620  16.202 -0.5960 -0.8231  0.5561
17259TIP3    H273269   3.350   6.480  16.146 -0.9694 -0.5103 -0.3012
17260TIP3   OH273270   5.047   4.591  17.133 -0.0378  0.2511  0.1944
17260TIP3    H173271   4.969   4.623  17.179 -0.0865  0.6202 -0.1415
17260TIP3    H273272   5.031   4.497  17.121 -0.3647  0.2985  0.2627
17261TIP3   OH273273   5.456   5.705  11.858  0.0206 -0.1894 -0.3886
17261TIP3    H173274   5.537   5.701  11.908 -0.3436  0.0910  0.2275
17261TIP3    H273275   5.430   5.614  11.848  0.7232 -0.3211 -1.1128
17262TIP3   OH273276   3.103   1.192  11.739 -0.0185  0.2385  0.5995
17262TIP3    H173277   3.013   1.164  11.723  0.5811 -0.8919 -1.1102
17262TIP3    H273278   3.101   1.287  11.729 -1.1962  0.3575  1.6693
17263TIP3   OH273279   0.493   3.144  14.162  0.2372  0.5868  0.0484
17263TIP3    H173280   0.585   3.155  14.137  0.4287 -0.0315  0.4521
17263TIP3    H273281   0.463   3.071  14.109  0.3215  0.0122  0.7805
17264TIP3   OH273282   1.978   0.972  16.320  0.0546  0.6751  0.0843
17264TIP3    H173283   1.978   0.940  16.230 -1.7480 -1.4199  0.7342
17264TIP3    H273284   1.891   1.008  16.333  0.9465  2.8203  0.4432
17265TIP3   OH273285   5.765   2.424   0.396 -0.3250 -0.2808 -0.1165
17265TIP3    H173286   5.735   2.501   0.445  0.5554  0.2795 -0.4347
17265TIP3    H273287   5.684   2.386   0.359 -0.6881  1.0747 -0.7894
17266TIP3   OH273288   4.478   2.682   3.048 -0.3350 -0.0489  0.0703
17266TIP3    H173289   4.405   2.622   3.066  0.8240 -1.0482  1.8032
17266TIP3    H273290   4.494   2.725   3.131  1.5401 -0.4538 -0.0362
17267TIP3   OH273291   1.562   0.920  12.145  0.1311  0.0689 -0.0584
17267TIP3    H173292   1.474   0.932  12.109  0.5666 -1.4896 -1.7509
17267TIP3    H273293   1.621   0.931  12.070  1.1972 -1.5937  0.4926
17268TIP3   OH273294   1.595   6.801  13.002 -0.2597  0.3405 -0.8390
17268TIP3    H173295   1.683   6.829  12.977 -0.2995  0.9484 -0.3275
17268TIP3    H273296   1.601   6.785  13.096 -0.3746 -0.8852 -1.0282
17269TIP3   OH273297   4.480   4.814   3.429 -0.0683  0.1356  0.0241
17269TIP3    H173298   4.468   4.787   3.338 -0.8215 -2.4866  0.8089
17269TIP3    H273299   4.437   4.900   3.435  0.0959  0.4105 -2.0833
17270TIP3   OH273300   5.789   1.297  16.341 -0.2586 -0.1619 -0.0928
17270TIP3    H173301   5.854   1.264  16.403 -0.7194 -1.5195 -0.2955
17270TIP3    H273302   5.758   1.379  16.380  0.8818  0.0159  0.4717
17271TIP3   OH273303   0.076   1.473  16.421  0.5968 -0.1071  0.1456
17271TIP3    H173304   0.032   1.419  16.486  0.7202 -0.5711 -0.1528
17271TIP3    H273305   0.169   1.466  16.442  0.5920  0.2592  0.3067
17272TIP3   OH273306   4.643   5.070  13.303 -0.2402  0.0474  0.9452
17272TIP3    H173307   4.704   4.997  13.317  0.6605  0.5639 -0.1494
17272TIP3    H273308   4.690   5.147  13.334 -0.6462  0.3482  0.8204
17273TIP3   OH273309   1.533   5.118   5.509  0.1288  0.7484 -0.3855
17273TIP3    H173310   1.530   5.093   5.417 -0.5540 -0.2256 -0.1101
17273TIP3    H273311   1.464   5.185   5.518  1.9948  2.9117 -1.1310
17274TIP3   OH273312   4.712   1.473   2.245  0.1944  0.0184  0.3707
17274TIP3    H173313   4.631   1.480   2.195 -0.8760  1.6651  2.2424
17274TIP3    H273314   4.714   1.550   2.301  2.3722 -0.6883  1.4064
17275TIP3   OH273315   2.079   0.516  15.355 -0.4906  0.0119 -0.1555
17275TIP3    H173316   2.011   0.557  15.301  1.3523  1.3318 -1.5827
17275TIP3    H273317   2.115   0.447  15.299  0.3822  0.3466 -0.0106
17276TIP3   OH273318   3.926   1.836  15.128  0.0034  0.0617 -0.1912
17276TIP3    H173319   3.848   1.885  15.155  1.7113  1.7558  2.0636
17276TIP3    H273320   3.978   1.899  15.078  0.1882 -0.8952 -1.2355
17277TIP3   OH273321   1.289   1.347   1.424  0.1328 -0.3470 -0.0146
17277TIP3    H173322   1.268   1.253   1.429  1.7952 -0.7845 -0.5683
17277TIP3    H273323   1.250   1.376   1.342 -1.0275 -0.3520  0.5087
17278TIP3   OH273324   4.521   2.577   5.381 -0.2711 -0.2637 -0.4253
17278TIP3    H173325   4.546   2.626   5.460 -1.1637  0.2118 -0.4184
17278TIP3    H273326   4.602   2.533   5.353  0.2379  0.1721  0.3169
17279TIP3   OH273327   3.732   5.027  16.151 -0.4572 -0.0070  0.0385
17279TIP3    H173328   3.751   5.076  16.231 -0.6817 -1.0811  0.7727
17279TIP3    H273329   3.818   5.004  16.117 -0.3635  0.1697  0.1539
17280TIP3   OH273330   0.630   5.893  10.970  0.5342  0.6203 -0.7783
17280TIP3    H173331   0.724   5.882  10.984  0.2570 -1.1408  0.0402
17280TIP3    H273332   0.615   5.858  10.882  0.3907 -1.0907 -0.1139
17281TIP3   OH273333   2.333   3.290   4.148  0.2964 -0.1351  0.3725
17281TIP3    H173334   2.344   3.307   4.055 -2.6028 -0.3415 -0.0958
17281TIP3    H273335   2.316   3.196   4.154  1.1861 -0.2643  1.2368
17282TIP3   OH273336   1.998   4.187   0.855 -0.2213 -0.4848 -0.5708
17282TIP3    H173337   1.991   4.092   0.848  0.7201 -0.5602 -0.5842
17282TIP3    H273338   2.084   4.208   0.819 -0.1746  0.3173 -0.0300
17283TIP3   OH273339   6.008   1.166  16.231 -0.2604  0.4316  0.5967
17283TIP3    H173340   5.922   1.203  16.252 -0.8063 -0.2010 -0.4380
17283TIP3    H273341   5.990   1.101  16.163  0.9232 -0.3628  1.0157
17284TIP3   OH273342   3.688   4.152  11.530  0.1249 -0.0516 -0.5310
17284TIP3    H173343   3.742   4.227  11.507  3.4848 -1.2965  2.3693
17284TIP3    H273344   3.668   4.163  11.623 -0.8090 -1.8569 -0.4657
17285TIP3   OH273345   3.961   4.790  16.183 -0.1091  0.2890  0.0404
17285TIP3    H173346   4.002   4.846  16.249 -1.1333  0.0740  0.8846
17285TIP3    H273347   4.033   4.764  16.126  0.4585  2.1202 -0.1289
17286TIP3   OH273348   5.418   0.366  12.349 -1.0206 -0.1455 -0.2004
17286TIP3    H173349   5.465   0.303  12.404  2.4024  0.6624 -1.8848
17286TIP3    H273350   5.440   0.451  12.386 -2.2936  0.2262 -0.2787
17287TIP3   OH273351   0.926   5.573   0.281 -0.3356  0.7317 -0.2690
17287TIP3    H173352   0.988   5.545   0.213  0.4584  1.4671  0.1272
17287TIP3    H273353   0.840   5.554   0.245  0.1176 -1.3464 -0.3997
17288TIP3   OH273354   6.683   4.535  16.291 -0.2938 -0.1883  0.1272
17288TIP3    H173355   6.643   4.548  16.205 -0.5338  0.8837  0.3843
17288TIP3    H273356   6.749   4.604  16.298 -0.4896 -0.0652  0.9188
17289TIP3   OH273357   6.236   5.237  14.426  0.5161  0.0897  0.1288
17289TIP3    H173358   6.260   5.150  14.394 -1.1649 -0.2620 -0.2603
17289TIP3    H273359   6.166   5.221  14.489 -0.5659  1.2140 -0.7429
17290TIP3   OH273360   1.270   1.735  11.352 -0.0921 -0.5208  0.6044
17290TIP3    H173361   1.241   1.667  11.412 -2.3325  0.3015  0.5515
17290TIP3    H273362   1.249   1.701  11.265 -0.5885 -0.0553  0.5377
17291TIP3   OH273363   3.188   4.292  15.621 -0.6513  0.7077 -0.8157
17291TIP3    H173364   3.248   4.365  15.635  0.9348 -0.7285  0.4096
17291TIP3    H273365   3.241   4.228  15.573 -0.7535 -1.0722  1.2942
17292TIP3   OH273366   0.600   1.900   4.556  0.1449  0.1266 -0.1957
17292TIP3    H173367   0.687   1.903   4.595 -0.3739 -0.6170  1.0794
17292TIP3    H273368   0.605   1.828   4.494 -0.5177 -2.4061  2.4768
17293TIP3   OH273369   4.994   6.272   1.762  0.0344  0.3461  0.1766
17293TIP3    H173370   4.918   6.255   1.818  0.3150 -0.2534  0.3898
17293TIP3    H273371   4.958   6.289   1.675 -0.3508  0.3023  0.3279
17294TIP3   OH273372   3.473   2.966  11.518  0.0726 -0.8408 -0.0519
17294TIP3    H173373   3.419   3.043  11.537 -1.6313 -2.1373  0.5503
17294TIP3    H273374   3.550   3.002  11.473 -1.8227  0.9788 -2.0751
17295TIP3   OH273375   6.330   3.368   4.627  0.5615 -0.6099  0.5082
17295TIP3    H173376   6.402   3.382   4.565  0.4322 -0.4331  0.3985
17295TIP3    H273377   6.251   3.371   4.573  0.5554 -2.3715  0.3650
17296TIP3   OH273378   6.400   6.069   1.457  0.2729  0.2301  0.4179
17296TIP3    H173379   6.398   5.981   1.497  0.5611  0.1617  0.2827
17296TIP3    H273380   6.328   6.068   1.394  0.5926 -0.0864  0.0496
17297TIP3   OH273381   1.024   4.605  13.757  0.1468  0.0769 -0.1533
17297TIP3    H173382   1.033   4.573  13.668  1.2004 -0.0984  0.0030
17297TIP3    H273383   0.937   4.644  13.760 -0.2483 -0.7250 -0.9927
17298TIP3   OH273384   0.084   1.745   6.135  0.0464 -0.1256  0.6084
17298TIP3    H173385   0.151   1.813   6.150 -1.7719  1.6673  1.1274
17298TIP3    H273386   0.086   1.730   6.041  0.2939  0.9066  0.4281
17299TIP3   OH273387   4.838   6.231   3.714 -0.2860  0.1510 -0.2654
17299TIP3    H173388   4.746   6.220   3.740  0.0177 -1.8451  0.1058
17299TIP3    H273389   4.886   6.169   3.769  1.0656 -0.2206 -1.7844
17300TIP3   OH273390   1.185   3.946   0.864 -0.1558 -0.5735  0.3834
17300TIP3    H173391   1.208   3.930   0.956  0.5259 -0.9188  0.1637
17300TIP3    H273392   1.266   3.979   0.825  0.0006 -1.8643 -0.4356
17301TIP3   OH273393   5.677   0.039  15.013 -0.6429 -0.1993 -0.4561
17301TIP3    H173394   5.697  -0.005  15.095  2.0384  0.2487 -0.7895
17301TIP3    H273395   5.587   0.013  14.993 -0.7644 -1.6896  1.7205
17302TIP3   OH273396   2.037   3.737  15.169 -0.0643 -0.8342  0.1369
17302TIP3    H173397   2.033   3.828  15.140  1.5805 -0.6053  0.5469
17302TIP3    H273398   2.101   3.737  15.240  0.7820 -2.5000 -0.5779
17303TIP3   OH273399   4.702   4.956  12.432  0.3847 -0.2607  0.5205
17303TIP3    H173400   4.627   4.909  12.469 -0.5194 -0.7656 -1.7687
17303TIP3    H273401   4.745   4.996  12.508 -1.1780 -1.3979  2.0976
17304TIP3   OH273402   1.861   5.094   2.538 -0.1960  0.0908  0.0214
17304TIP3    H173403   1.848   5.139   2.621 -1.4884  0.7264 -0.4970
17304TIP3    H273404   1.952   5.114   2.514 -0.3139  1.2589  0.4947
17305TIP3   OH273405   0.829   5.351  14.279  0.0095 -0.1526  0.8399
17305TIP3    H173406   0.916   5.328  14.248  0.0567  2.3860 -1.2405
17305TIP3    H273407   0.769   5.296  14.228  0.2869  0.7543 -0.5025
17306TIP3   OH273408   0.092   5.680  15.665  0.1503  0.2153 -0.5796
17306TIP3    H173409   0.108   5.694  15.571 -0.3817 -0.1977 -0.7424
17306TIP3    H273410   0.171   5.637  15.697  0.2355  0.1325 -0.8945
17307TIP3   OH273411   6.526   1.768   4.986 -0.0450  0.3160 -0.1986
17307TIP3    H173412   6.542   1.682   4.946  0.9490  0.1354  0.5375
17307TIP3    H273413   6.453   1.754   5.046  0.5996 -0.2218  0.4868
17308TIP3   OH273414   6.217   0.457   5.338  0.2179 -0.3066  0.1205
17308TIP3    H173415   6.306   0.471   5.306  0.1176  1.5766  0.5656
17308TIP3    H273416   6.229   0.413   5.422  0.7434  0.0884  0.2588
17309TIP3   OH273417   2.957   3.391  14.379 -0.5987  0.3138 -0.2230
17309TIP3    H173418   3.025   3.385  14.312  0.8821 -2.2947  1.3106
17309TIP3    H273419   2.977   3.472  14.427  0.5228  0.3615 -0.7387
17310TIP3   OH273420   3.100   2.799  12.816 -0.1618 -0.5168 -0.6750
17310TIP3    H173421   3.135   2.773  12.901  0.2999  0.2422 -0.6163
17310TIP3    H273422   3.168   2.855  12.779 -0.7000 -0.2009 -1.2015
17311TIP3   OH273423   1.317   6.052   1.022 -0.3035  0.8434  0.2147
17311TIP3    H173424   1.336   5.971   1.069  0.5476  1.6301  1.3132
17311TIP3    H273425   1.225   6.046   0.998 -0.6684  0.2074  1.6624
17312TIP3   OH273426   4.218   6.161   2.138 -0.0814  0.3640 -0.2361
17312TIP3    H173427   4.236   6.247   2.177  1.1510  0.1752 -0.3390
17312TIP3    H273428   4.256   6.166   2.051  2.5865 -1.1797  0.7164
17313TIP3   OH273429   0.841   3.547  16.914 -0.3980 -0.5649  0.3098
17313TIP3    H173430   0.863   3.457  16.890 -2.7383 -0.7928 -1.4030
17313TIP3    H273431   0.861   3.599  16.835  0.5802  0.3707  1.1477
17314TIP3   OH273432   6.583   4.067   1.556 -0.2368 -0.4290 -0.1756
17314TIP3    H173433   6.570   3.982   1.514  1.5174 -1.2958  0.9088
17314TIP3    H273434   6.569   4.050   1.649 -0.5244  0.6509 -0.0034
17315TIP3   OH273435   2.819   1.929   6.083  0.4684  0.1230  0.0606
17315TIP3    H173436   2.737   1.961   6.048 -0.4512 -0.6967  1.3717
17315TIP3    H273437   2.829   1.974   6.167  2.2633  1.5137 -0.8089
17316TIP3   OH273438   2.927   2.206   6.206  0.1956  0.3129 -0.3142
17316TIP3    H173439   3.013   2.165   6.199 -0.2197 -0.6875  0.1986
17316TIP3    H273440   2.887   2.166   6.283  0.0311  2.2154  0.6480
17317TIP3   OH273441   0.762   0.513   1.299  0.0343  0.1239  0.6193
17317TIP3    H173442   0.851   0.527   1.331  0.4627 -2.2930  0.6894
17317TIP3    H273443   0.736   0.429   1.337 -1.7127  0.0551 -0.6117
17318TIP3   OH273444   6.543   3.735   2.929 -0.1963  0.0941 -0.6357
17318TIP3    H173445   6.605   3.672   2.894  0.3949 -1.2090  2.4791
17318TIP3    H273446   6.465   3.684   2.949  0.1920  0.2717  1.6695
17319TIP3   OH273447   5.662   3.449  14.268  0.7553 -0.2897 -0.4549
17319TIP3    H173448   5.748   3.471  14.303  0.6400 -0.8949  0.2443
17319TIP3    H273449   5.602   3.463  14.342  0.0944  1.0953 -1.2047
17320TIP3   OH273450   2.771   3.496   5.191 -0.4512 -0.0108  0.1259
17320TIP3    H173451   2.746   3.404   5.197 -1.1435  0.2673  2.2482
17320TIP3    H273452   2.867   3.495   5.195 -0.4241 -0.6504 -0.4581
17321TIP3   OH273453   2.265   2.227  14.302 -0.3928  0.1054 -0.1625
17321TIP3    H173454   2.177   2.212  14.268 -0.4548 -2.3723  0.8838
17321TIP3    H273455   2.313   2.147  14.281  1.2007  0.8120  0.5966
17322TIP3   OH273456   6.728   3.450   6.096  0.5336  0.2050 -0.4696
17322TIP3    H173457   6.650   3.487   6.137 -0.0465  0.7532 -2.0071
17322TIP3    H273458   6.700   3.366   6.060  1.0638 -0.3205  0.2965
17323TIP3   OH273459   2.313   4.952  14.615 -0.4165 -0.2405  0.2091
17323TIP3    H173460   2.290   4.928  14.705 -1.5782 -2.6150 -0.6330
17323TIP3    H273461   2.229   4.968  14.573  0.0283 -0.4488 -0.7702
17324TIP3   OH273462   6.031   1.530   3.295  0.1928  0.3645  0.0377
17324TIP3    H173463   6.049   1.610   3.344  0.2220 -0.2360  1.0324
17324TIP3    H273464   6.053   1.551   3.204 -0.6122  1.7474  0.1392
17325TIP3   OH273465   6.202   0.338  13.894  0.3094  0.3198  0.0558
17325TIP3    H173466   6.109   0.318  13.878 -0.5494  3.0097  1.1230
17325TIP3    H273467   6.227   0.395  13.821  0.7916  0.5053  0.3611
17326TIP3   OH273468   5.048   6.153   0.023  0.2055 -0.4752 -0.0432
17326TIP3    H173469   5.083   6.227  -0.025  0.9315 -1.3219 -0.8530
17326TIP3    H273470   5.053   6.080  -0.038  0.5098 -1.4341  1.0904
17327TIP3   OH273471   1.377   2.363   0.605  0.3265 -0.3250 -0.3618
17327TIP3    H173472   1.363   2.348   0.511 -1.2259  2.1707 -0.6104
17327TIP3    H273473   1.290   2.380   0.640  1.0918  0.8149  1.1163
17328TIP3   OH273474   6.336   4.303   1.860 -0.0350 -0.5921  0.2919
17328TIP3    H173475   6.251   4.344   1.853 -0.3080 -1.2981 -0.7583
17328TIP3    H273476   6.323   4.215   1.824  0.7507 -1.2688  1.5911
17329TIP3   OH273477   3.233   1.867  13.581  0.3249  0.0320  0.4392
17329TIP3    H173478   3.141   1.865  13.557  0.2534 -0.5602  0.7474
17329TIP3    H273479   3.238   1.936  13.648 -0.0418 -0.4636  0.9880
17330TIP3   OH273480   0.162   6.794   5.528 -0.4378  0.2285 -0.0667
17330TIP3    H173481   0.191   6.881   5.553 -0.2877  0.2752 -0.3911
17330TIP3    H273482   0.238   6.737   5.546 -0.9794 -0.0585  1.3849
17331TIP3   OH273483   2.751   1.421  14.384 -0.4143  0.6774  0.6483
17331TIP3    H173484   2.705   1.413  14.300  0.4786  2.0689  0.0018
17331TIP3    H273485   2.813   1.348  14.384  0.7918  1.6463 -0.7169
17332TIP3   OH273486   6.723   2.508  12.084 -0.7038  0.3237 -0.4535
17332TIP3    H173487   6.752   2.417  12.080 -1.0735  0.1462  0.6936
17332TIP3    H273488   6.628   2.503  12.089 -0.6838  0.7251  0.5621
17333TIP3   OH273489   0.953   3.006   4.649 -0.0152  0.0887 -0.6357
17333TIP3    H173490   0.918   3.067   4.584 -0.7820  0.8649  0.4767
17333TIP3    H273491   0.981   3.061   4.722  1.6576 -0.6981 -0.6316
17334TIP3   OH273492   1.710   0.901  16.371  0.6858  0.6522 -0.1974
17334TIP3    H173493   1.683   0.856  16.451 -2.2023  0.9242 -0.8796
17334TIP3    H273494   1.760   0.836  16.322  0.7788 -0.1814  0.9662
17335TIP3   OH273495   5.081   2.455  12.237  0.1052 -0.0941 -0.2229
17335TIP3    H173496   5.066   2.415  12.323  2.5221 -1.9066 -0.5333
17335TIP3    H273497   5.120   2.541  12.257 -2.1349  0.8445  0.4327
17336TIP3   OH273498   5.936   5.462   5.553  0.3293  0.0952 -0.1682
17336TIP3    H173499   5.913   5.516   5.628  2.4027  1.3864 -0.3818
17336TIP3    H273500   5.924   5.519   5.477  0.7460 -0.3387 -0.5687
17337TIP3   OH273501   2.196   4.157   2.870  0.1660  0.4968 -0.2163
17337TIP3    H173502   2.234   4.196   2.949  0.3978 -1.3773  0.6844
17337TIP3    H273503   2.172   4.231   2.815  0.3329  1.8686  1.4613
17338TIP3   OH273504   5.041   4.193   4.651  1.1365 -0.1320  0.6507
17338TIP3    H173505   5.081   4.221   4.569 -0.4951  1.4737  0.3293
17338TIP3    H273506   5.022   4.100   4.638 -1.1033  0.5403 -1.7594
17339TIP3   OH273507   6.367   1.296   4.314  0.4299  0.3265 -0.1287
17339TIP3    H173508   6.316   1.284   4.234  0.5879  1.8466 -0.4719
17339TIP3    H273509   6.302   1.293   4.384  0.3453 -1.4889 -0.2333
17340TIP3   OH273510   3.363   3.588  17.240 -0.9968  0.1394 -0.2128
17340TIP3    H173511   3.443   3.641  17.245 -1.0100  0.0566  2.0398
17340TIP3    H273512   3.382   3.523  17.173  1.5315 -0.9229  1.3559
17341TIP3   OH273513   4.264   2.682  11.164 -0.1624  0.4281  0.3634
17341TIP3    H173514   4.317   2.706  11.088  1.2690 -0.6407  0.9882
17341TIP3    H273515   4.186   2.641  11.127  0.0233  0.8771 -0.5507
17342TIP3   OH273516   6.450   2.607  11.995 -0.3702  0.1079 -0.1944
17342TIP3    H173517   6.369   2.655  12.009  0.2090  0.8021  0.8898
17342TIP3    H273518   6.518   2.674  11.996  0.3331 -0.5958  0.1365
17343TIP3   OH273519   6.780   4.981  17.185  0.4700 -0.1779  0.1532
17343TIP3    H173520   6.744   4.895  17.161  1.0997 -0.2815 -0.4548
17343TIP3    H273521   6.873   4.974  17.165  0.1480  1.4369 -2.2499
17344TIP3   OH273522   0.778   6.634   2.319 -0.5853  0.3559  0.0526
17344TIP3    H173523   0.763   6.594   2.234 -1.7105 -1.1924  0.9391
17344TIP3    H273524   0.816   6.565   2.373  2.1426  1.8861  0.2835
17345TIP3   OH273525   6.126   3.080  14.471 -0.0696  0.0439 -0.1753
17345TIP3    H173526   6.038   3.110  14.491 -0.7423 -1.8870  0.0233
17345TIP3    H273527   6.119   3.041  14.384  0.8058  0.6499 -0.5329
17346TIP3   OH273528   0.143   2.417   5.102 -0.1795 -0.0128 -0.8290
17346TIP3    H173529   0.222   2.430   5.050  1.3641 -1.6312  0.9418
17346TIP3    H273530   0.172   2.362   5.175 -2.4299  1.3410  1.2035
17347TIP3   OH273531   4.086   6.791  17.056 -0.6486 -1.3394  0.1553
17347TIP3    H173532   4.064   6.748  17.139 -1.8443 -0.3577  0.3673
17347TIP3    H273533   4.002   6.817  17.019 -0.0744 -1.0417 -0.9919
17348TIP3   OH273534   4.460   3.121   5.853 -0.1025 -0.3782 -0.1807
17348TIP3    H173535   4.513   3.095   5.929 -0.0886 -1.3092 -0.4988
17348TIP3    H273536   4.496   3.070   5.781 -0.2116  0.3936 -0.7894
17349TIP3   OH273537   3.791   0.384   1.194 -0.1483 -0.3110  0.0876
17349TIP3    H173538   3.815   0.359   1.283  0.7780 -1.0713 -0.3552
17349TIP3    H273539   3.853   0.453   1.171  0.8027 -1.3343 -0.5699
17350TIP3   OH273540   1.322   0.078  16.671 -0.3408 -0.3770  0.9283
17350TIP3    H173541   1.367  -0.006  16.681 -1.2294 -0.6912  2.4991
17350TIP3    H273542   1.379   0.141  16.713 -0.2234 -0.3679  0.7591
17351TIP3   OH273543   5.755   4.701   4.987  0.4139  0.2782  0.3488
17351TIP3    H173544   5.722   4.740   4.906  1.2260  0.5133  0.1217
17351TIP3    H273545   5.850   4.711   4.982  0.4152  1.4928  1.9378
17352TIP3   OH273546   3.358   6.164   0.409 -0.0415 -0.0083  0.4939
17352TIP3    H173547   3.351   6.257   0.431 -1.2968 -0.0266  0.2369
17352TIP3    H273548   3.284   6.124   0.453 -1.5885 -0.3402 -2.1986
17353TIP3   OH273549   0.640   0.252   3.811  0.0504 -0.2675  0.0484
17353TIP3    H173550   0.582   0.248   3.887 -0.2972 -0.6744 -0.2322
17353TIP3    H273551   0.662   0.161   3.792  0.0244 -0.1798 -0.4233
17354TIP3   OH273552   1.771   6.749  13.913  0.4296  0.4978 -0.5619
17354TIP3    H173553   1.743   6.658  13.922 -2.4087  1.4125  0.8628
17354TIP3    H273554   1.727   6.780  13.835  2.2822  0.4449 -1.7048
17355TIP3   OH273555   5.035   5.253  16.533 -0.2658  0.4190  0.2431
17355TIP3    H173556   5.096   5.325  16.551 -1.5759  1.2722  1.4373
17355TIP3    H273557   4.980   5.285  16.462 -0.9403  0.6616  0.8681
17356TIP3   OH273558   4.867   1.413  15.876  0.1945  0.3329 -0.2178
17356TIP3    H173559   4.799   1.474  15.848 -0.7670 -1.9838 -3.4382
17356TIP3    H273560   4.943   1.436  15.823  1.7373  2.1246  2.5134
17357TIP3   OH273561   0.460   2.011   1.219  0.2185 -0.2675 -0.1324
17357TIP3    H173562   0.555   1.999   1.221  0.3271  0.7108  1.4381
17357TIP3    H273563   0.429   1.939   1.163  1.7539 -1.3590  0.3492
17358TIP3   OH273564   2.087   6.254   1.742 -0.3174 -0.1725  0.2368
17358TIP3    H173565   2.160   6.229   1.798 -0.1782 -0.4338 -0.0557
17358TIP3    H273566   2.128   6.277   1.658 -0.7026 -2.1488 -0.5480
17359TIP3   OH273567   3.592   0.104   2.129  0.1136  0.1554 -0.7535
17359TIP3    H173568   3.638   0.187   2.143  1.7851 -0.7009 -0.9075
17359TIP3    H273569   3.635   0.066   2.053 -0.4621 -0.9794 -0.5303
17360TIP3   OH273570   4.250   6.243  16.372  0.9013 -0.0964 -0.1135
17360TIP3    H173571   4.320   6.189  16.409  1.5100  0.8319  0.1139
17360TIP3    H273572   4.282   6.332  16.378 -0.8071  0.4912  1.1574
17361TIP3   OH273573   6.446   5.363   1.909  0.0639  0.8494 -0.6260
17361TIP3    H173574   6.501   5.305   1.857 -0.6199  1.3631 -1.9806
17361TIP3    H273575   6.502   5.439   1.926  0.5141  0.3924  0.0055
17362TIP3   OH273576   0.643   6.743   5.775  0.1124 -0.1949  0.2793
17362TIP3    H173577   0.648   6.801   5.851  0.5831 -1.4274  1.2251
17362TIP3    H273578   0.630   6.656   5.812  2.9158 -1.2332 -0.8791
17363TIP3   OH273579   2.637   6.397  12.466  0.4286 -0.1901  0.0809
17363TIP3    H173580   2.651   6.341  12.390  1.6510  1.1467 -0.7410
17363TIP3    H273581   2.723   6.400  12.509  0.8860  2.2801 -0.8371
17364TIP3   OH273582   4.979   4.072   2.896  0.2306 -0.3034  0.3911
17364TIP3    H173583   5.041   4.054   2.966 -0.1020  0.2221  0.8252
17364TIP3    H273584   4.988   4.166   2.880 -1.6179  0.1345  1.6032
17365TIP3   OH273585   6.469   5.019  14.584 -0.1392 -0.3963  0.3685
17365TIP3    H173586   6.427   4.945  14.540 -1.7670 -0.5401  2.0676
17365TIP3    H273587   6.415   5.095  14.562 -0.9651 -0.4638  2.0033
17366TIP3   OH273588   0.106   2.467  13.931  0.3683  0.2068  0.0506
17366TIP3    H173589   0.138   2.378  13.914 -0.6925 -0.3209  0.7238
17366TIP3    H273590   0.042   2.457  14.001  0.5778  1.5781  0.4803
17367TIP3   OH273591   1.292   3.103   1.056  0.4467  0.4070 -0.5556
17367TIP3    H173592   1.303   3.169   0.987 -0.3100  0.4019 -0.6816
17367TIP3    H273593   1.235   3.143   1.120  2.3074  0.9713  0.8326
17368TIP3   OH273594   2.616   5.195  15.588 -0.5867  0.2375  0.1741
17368TIP3    H173595   2.615   5.199  15.684  1.3990 -0.5595  0.2660
17368TIP3    H273596   2.696   5.242  15.563  0.5641 -2.1017 -0.8775
17369TIP3   OH273597   6.750   2.047   1.410  0.2029  0.1913  0.0222
17369TIP3    H173598   6.842   2.070   1.421  0.9449 -1.4481 -2.1189
17369TIP3    H273599   6.716   2.111   1.348  0.1142  0.2525  0.1318
17370TIP3   OH273600   4.662   3.182  16.959 -0.2944 -0.1109 -0.3385
17370TIP3    H173601   4.647   3.273  16.934 -0.9259 -0.0806  0.1340
17370TIP3    H273602   4.578   3.151  16.993 -1.0848 -1.8844 -3.4819
17371TIP3   OH273603   2.616   1.562   5.118 -0.1840  1.0099 -0.0679
17371TIP3    H173604   2.602   1.550   5.212 -3.2578 -2.2141 -0.7451
17371TIP3    H273605   2.539   1.611   5.089 -0.3393  0.1053 -1.2171
17372TIP3   OH273606   0.650   5.737   5.351  0.3678 -0.1269  0.7700
17372TIP3    H173607   0.744   5.758   5.357  0.2418  0.9811 -0.7900
17372TIP3    H273608   0.628   5.703   5.438  1.8697  1.0424  1.6492
17373TIP3   OH273609   6.476   5.459  12.246  0.1370  0.0617  0.2921
17373TIP3    H173610   6.464   5.472  12.340 -0.0748 -0.5449  0.3502
17373TIP3    H273611   6.552   5.400  12.239 -1.1713 -1.6759  0.1732
17374TIP3   OH273612   3.733   4.730  13.881  0.3721 -0.2465 -0.2911
17374TIP3    H173613   3.788   4.778  13.943  0.0903 -0.2180 -0.0611
17374TIP3    H273614   3.772   4.748  13.796 -0.2171  1.1024 -0.3103
17375TIP3   OH273615   2.737   3.198   3.122 -0.1391 -0.0113  0.2046
17375TIP3    H173616   2.714   3.275   3.173  0.3622  0.4374 -0.2329
17375TIP3    H273617   2.655   3.151   3.110 -0.0381 -0.9922  2.7929
17376TIP3   OH273618   3.421   1.843  12.646 -0.0647 -0.4399 -0.7073
17376TIP3    H173619   3.358   1.910  12.618  0.1728 -0.1001 -0.4338
17376TIP3    H273620   3.375   1.795  12.715  0.1142  0.0591 -0.2337
17377TIP3   OH273621   1.137   5.029   6.103 -0.1749 -0.5791 -0.3489
17377TIP3    H173622   1.222   5.067   6.126 -0.4844 -0.2241  0.2017
17377TIP3    H273623   1.082   5.044   6.179 -2.2663  3.6798 -2.3919
17378TIP3   OH273624   5.401   1.353   3.695 -0.5625 -0.5570  0.0252
17378TIP3    H173625   5.354   1.274   3.668 -0.2280 -0.0104 -2.3804
17378TIP3    H273626   5.490   1.322   3.714 -0.9528 -1.0433  1.1600
17379TIP3   OH273627   5.293   3.915   1.596  0.3360 -0.2789  0.1733
17379TIP3    H173628   5.320   3.957   1.677  2.9138 -1.0809 -0.2001
17379TIP3    H273629   5.362   3.852   1.577 -0.3032 -0.2801 -2.5366
17380TIP3   OH273630   0.281   6.065  10.850  0.4707 -0.2114 -0.2536
17380TIP3    H173631   0.207   6.037  10.902  0.0943 -1.0336 -1.1907
17380TIP3    H273632   0.335   5.986  10.840  1.1789  0.2359 -0.0564
17381TIP3   OH273633   3.115   3.664  15.837 -0.0259  0.1310  0.5387
17381TIP3    H173634   3.191   3.656  15.895 -0.0094  2.5737  0.9853
17381TIP3    H273635   3.040   3.665  15.897 -0.0761  1.7027  0.4953
17382TIP3   OH273636   2.096   0.326   1.814 -0.6691 -0.1994 -0.0670
17382TIP3    H173637   2.120   0.297   1.902 -2.0657  0.1222  0.4565
17382TIP3    H273638   2.113   0.251   1.758 -0.1942 -0.5623  0.5571
17383TIP3   OH273639   2.534   0.953  17.080  0.3347  0.8852  0.1638
17383TIP3    H173640   2.560   1.013  17.010  0.8057 -0.3688 -0.7815
17383TIP3    H273641   2.613   0.904  17.100 -0.0109  0.6483  1.0028
17384TIP3   OH273642   2.225   1.669  14.044 -0.5953  0.2444 -0.0464
17384TIP3    H173643   2.254   1.654  13.954  0.2147  1.7254 -0.0763
17384TIP3    H273644   2.173   1.592  14.066  2.7929 -2.3704 -0.2450
17385TIP3   OH273645   4.460   2.932  15.729  0.2009 -0.2052  0.1387
17385TIP3    H173646   4.425   3.018  15.706  0.2024 -0.2650 -0.0855
17385TIP3    H273647   4.491   2.942  15.819  0.0468 -0.0183  0.1703
17386TIP3   OH273648   6.320   5.091  16.873 -0.0272 -0.2271 -0.0360
17386TIP3    H173649   6.260   5.023  16.905  0.6816  0.1388  2.2834
17386TIP3    H273650   6.399   5.081  16.927  0.0663  2.4620  0.5051
17387TIP3   OH273651   3.522   4.940   4.680 -0.0353  0.1649  0.0391
17387TIP3    H173652   3.491   4.854   4.711 -1.1485  0.9529  1.2372
17387TIP3    H273653   3.616   4.929   4.669 -0.1812 -1.2697 -0.0159
17388TIP3   OH273654   4.713   0.281  11.590 -0.3799 -0.3950  0.0482
17388TIP3    H173655   4.630   0.306  11.629  0.2290 -0.0070  1.1315
17388TIP3    H273656   4.749   0.215  11.649 -1.3765 -3.0406 -2.1055
17389TIP3   OH273657   2.904   1.701   4.757 -0.1423  0.2300  0.0870
17389TIP3    H173658   2.815   1.707   4.723 -0.1731  2.5908  0.4667
17389TIP3    H273659   2.895   1.646   4.835 -0.7133 -1.9459 -1.3982
17390TIP3   OH273660   2.063   4.988   2.269  0.0312  0.3770 -0.0108
17390TIP3    H173661   2.105   5.033   2.343  0.3854  0.6303 -0.3626
17390TIP3    H273662   2.023   5.058   2.218 -1.1198  0.1088  0.4984
17391TIP3   OH273663   2.831   0.810  13.859 -0.0187 -0.0359 -0.3682
17391TIP3    H173664   2.859   0.784  13.771 -1.6460 -1.2617 -0.5755
17391TIP3    H273665   2.739   0.785  13.863 -0.2543  0.9443  1.3457
17392TIP3   OH273666   0.643   0.808   4.228 -0.0271 -0.8019 -0.2438
17392TIP3    H173667   0.719   0.760   4.194  0.2189  0.5916 -1.7627
17392TIP3    H273668   0.573   0.790   4.164 -0.0592  0.4572 -0.5827
17393TIP3   OH273669   1.948   0.873   4.317  0.3395  0.2706  0.2318
17393TIP3    H173670   2.018   0.930   4.285 -1.3281  1.1557 -2.0576
17393TIP3    H273671   1.905   0.924   4.385 -0.1961  1.1729 -0.7554
17394TIP3   OH273672   1.222   0.538  16.828  0.7249  0.1898 -0.7139
17394TIP3    H173673   1.280   0.605  16.793 -0.2390  0.1709 -2.4160
17394TIP3    H273674   1.253   0.525  16.918  2.0291  1.6406 -0.9100
17395TIP3   OH273675   0.773   6.753   1.026  0.3705 -0.4652 -0.0054
17395TIP3    H173676   0.778   6.738   0.932  1.7526  0.0379 -0.0302
17395TIP3    H273677   0.835   6.690   1.064  0.7451  0.1791  0.4663
17396TIP3   OH273678   5.591   6.653   1.609  0.1286 -0.6554  0.1110
17396TIP3    H173679   5.529   6.593   1.652  0.5835 -0.8207  0.5387
17396TIP3    H273680   5.605   6.723   1.672 -0.1199 -0.2718 -0.2465
17397TIP3   OH273681   0.703   2.356  14.120 -0.1819  0.3742 -0.3941
17397TIP3    H173682   0.756   2.290  14.165 -0.4536 -0.1668 -0.8445
17397TIP3    H273683   0.612   2.329  14.136 -0.3391  1.3439  0.4518
17398TIP3   OH273684   2.285   1.886  15.776 -0.5818 -0.6624  0.1392
17398TIP3    H173685   2.359   1.929  15.820 -1.2944  1.2962 -0.4577
17398TIP3    H273686   2.292   1.794  15.802  2.0779 -0.5655  0.0444
17399TIP3   OH273687   5.170   4.457   5.820 -0.2578 -0.0794 -0.4977
17399TIP3    H173688   5.141   4.370   5.794 -0.5506 -0.1250 -0.0387
17399TIP3    H273689   5.266   4.451   5.821 -0.2972 -0.7506  0.6738
17400TIP3   OH273690   4.201   6.159  12.467 -0.4205  0.6092  0.2977
17400TIP3    H173691   4.252   6.184  12.390  0.0853  0.7781  0.6762
17400TIP3    H273692   4.173   6.070  12.450  1.5551 -0.1634  0.8462
17401TIP3   OH273693   4.814   2.917   2.998 -0.5142  0.0349 -0.5420
17401TIP3    H173694   4.749   2.979   3.030 -0.4663  0.6533 -1.5882
17401TIP3    H273695   4.777   2.883   2.917 -0.2071 -0.7629 -0.3558
17402TIP3   OH273696   5.954   4.976   6.045 -0.0745 -0.1576  1.5229
17402TIP3    H173697   5.965   5.071   6.058  1.8195 -0.2093  0.6216
17402TIP3    H273698   5.896   4.949   6.116  0.0253  1.5441  2.3092
17403TIP3   OH273699   5.027   3.016  16.555 -0.2695  0.2643  0.2173
17403TIP3    H173700   5.116   2.983  16.569 -0.7925 -2.0020 -1.3231
17403TIP3    H273701   4.973   2.966  16.616 -0.9163 -0.9809 -1.3127
17404TIP3   OH273702   2.909   2.010   1.129  0.4156  0.5257  0.3543
17404TIP3    H173703   2.904   2.083   1.068 -1.5211  0.8965  0.9002
17404TIP3    H273704   2.820   1.998   1.161  0.9599 -1.0969  1.4453
17405TIP3   OH273705   6.253   1.223  14.977 -0.1301 -0.2838 -0.0223
17405TIP3    H173706   6.266   1.242  14.884 -0.3564 -2.4046 -0.5321
17405TIP3    H273707   6.227   1.307  15.015 -0.8333  0.4578 -2.0123
17406TIP3   OH273708   5.447   1.284   5.221  0.1012  0.4391  0.0158
17406TIP3    H173709   5.432   1.235   5.302  0.0333 -1.7595 -1.2418
17406TIP3    H273710   5.543   1.284   5.211  0.1278  0.9626  0.2144
17407TIP3   OH273711   0.618   5.687   2.230 -0.6311  0.3258 -0.5655
17407TIP3    H173712   0.574   5.603   2.212 -1.9100  0.8299  0.1332
17407TIP3    H273713   0.707   5.674   2.196 -0.2332 -1.9422  1.1184
17408TIP3   OH273714   4.818   5.647   0.245 -0.3135 -0.2061  0.1642
17408TIP3    H173715   4.900   5.693   0.227  0.1120 -1.2011 -0.5538
17408TIP3    H273716   4.765   5.659   0.166 -0.1193 -1.0767 -0.1160
17409TIP3   OH273717   4.296   2.919  16.436  0.3614  0.5695  0.1856
17409TIP3    H173718   4.243   2.844  16.407  1.4979 -0.4216  0.5815
17409TIP3    H273719   4.383   2.902  16.399  1.2066  0.5439  2.0772
17410TIP3   OH273720   0.573   1.756   5.173 -0.4477  0.3265 -0.6871
17410TIP3    H173721   0.656   1.742   5.219 -1.1583 -1.7491  0.0939
17410TIP3    H273722   0.583   1.709   5.090 -0.6501  0.5454 -0.8367
17411TIP3   OH273723   6.178   3.577  13.161 -0.2476 -0.4186 -0.0850
17411TIP3    H173724   6.261   3.618  13.138  0.6685 -0.4806  2.7679
17411TIP3    H273725   6.128   3.646  13.204 -0.7757 -0.9327  0.1473
17412TIP3   OH273726   5.728   4.865   1.880 -0.0522  0.1518 -0.1121
17412TIP3    H173727   5.795   4.807   1.843 -0.5640 -0.6884  0.2805
17412TIP3    H273728   5.670   4.885   1.806 -0.6722 -0.9610  0.0682
17413TIP3   OH273729   5.581   0.689  12.955 -0.2390 -0.3629  0.3554
17413TIP3    H173730   5.632   0.763  12.988 -0.7963 -0.3847  1.3164
17413TIP3    H273731   5.647   0.626  12.925  0.2551  1.6729 -3.3187
17414TIP3   OH273732   0.123   0.918  10.992  0.3306 -0.1194 -0.1184
17414TIP3    H173733   0.190   0.976  10.957  0.1275 -0.6559 -1.4307
17414TIP3    H273734   0.083   0.877  10.915  0.9072 -2.5236  0.7807
17415TIP3   OH273735   5.732   0.890  13.771  0.0344  0.8127 -0.0876
17415TIP3    H173736   5.763   0.981  13.778 -0.7201  1.0077  1.0615
17415TIP3    H273737   5.646   0.891  13.812  0.2657 -0.5415  0.4978
17416TIP3   OH273738   2.814   4.257   4.180  0.1034 -0.0769 -0.1269
17416TIP3    H173739   2.774   4.342   4.197 -1.7341 -1.3433  2.5360
17416TIP3    H273740   2.905   4.268   4.205 -0.4170  0.7973  1.5588
17417TIP3   OH273741   6.336   6.483  14.778 -0.3608  0.1443  0.4044
17417TIP3    H173742   6.266   6.417  14.784  0.6240 -0.8206  1.8638
17417TIP3    H273743   6.411   6.442  14.821  0.5873  1.8410  0.4277
17418TIP3   OH273744   3.491   1.163   1.336  0.1706  0.0078  0.5031
17418TIP3    H173745   3.423   1.111   1.378  0.4328 -0.3888  0.4453
17418TIP3    H273746   3.459   1.253   1.340 -0.3641 -0.1787  0.4595
17419TIP3   OH273747   4.404   2.997   2.764 -0.7601 -0.3431 -0.3716
17419TIP3    H173748   4.380   3.090   2.758  0.6617  0.0562 -0.3259
17419TIP3    H273749   4.386   2.974   2.855 -2.8400 -0.6458 -0.8165
17420TIP3   OH273750   1.237   6.211   1.995  0.1435  0.3375 -0.3471
17420TIP3    H173751   1.300   6.282   2.007 -0.2414  0.4777  0.9465
17420TIP3    H273752   1.157   6.243   2.036  0.8620 -2.1069  3.3844
17421TIP3   OH273753   5.003   1.027   4.989  0.1194  0.1516 -0.6975
17421TIP3    H173754   5.030   1.105   5.036 -0.8946 -0.1386  0.4018
17421TIP3    H273755   4.975   0.966   5.057 -0.7516 -0.5267 -1.6316
17422TIP3   OH273756   5.513   3.055   5.436  0.1270  0.2772  0.9218
17422TIP3    H173757   5.576   3.086   5.371  0.4540  0.0873  1.1441
17422TIP3    H273758   5.541   2.965   5.455 -0.0869  0.2647  1.1758
17423TIP3   OH273759   4.045   2.575  16.695 -0.1993  0.5239 -0.5788
17423TIP3    H173760   4.038   2.549  16.787 -1.1258  1.0353 -0.4991
17423TIP3    H273761   4.037   2.492  16.647  0.7140  0.1965 -0.2051
17424TIP3   OH273762   3.046   6.207   6.492 -0.1588 -0.1350 -0.2247
17424TIP3    H173763   3.027   6.298   6.472  0.3356  0.1376  0.5377
17424TIP3    H273764   2.962   6.162   6.482 -0.3735  0.3706 -0.7379
17425TIP3   OH273765   0.201   6.040   2.971  0.7287  0.5034 -0.2751
17425TIP3    H173766   0.290   6.017   2.943  0.2724 -1.0721 -0.5228
17425TIP3    H273767   0.203   6.028   3.066  0.2691 -1.6284 -0.4696
17426TIP3   OH273768   6.686   3.972  11.587 -0.2166  0.5807  0.7136
17426TIP3    H173769   6.717   4.030  11.657  1.8306 -0.1703  0.5245
17426TIP3    H273770   6.737   3.999  11.510  0.4898 -1.1586  0.5248
17427TIP3   OH273771   5.498   2.421   0.813 -0.4447 -0.0029  0.2235
17427TIP3    H173772   5.532   2.342   0.772 -1.1907 -0.8436  1.1795
17427TIP3    H273773   5.437   2.390   0.880 -0.1516  1.3491  1.1744
17428TIP3   OH273774   3.923   0.113  11.085  0.4915  0.6354  0.8030
17428TIP3    H173775   3.955   0.121  11.175 -0.1642  0.8469  1.0240
17428TIP3    H273776   3.859   0.183  11.076 -0.4640 -0.2447  0.6056
17429TIP3   OH273777   3.888   2.833  14.423  0.5507  0.3617 -0.4252
17429TIP3    H173778   3.918   2.772  14.490 -2.4017 -0.2383  0.4924
17429TIP3    H273779   3.796   2.809  14.407  0.2035  2.5611 -2.3510
17430TIP3   OH273780   3.674   2.139  15.742  0.0665  0.1736  0.0452
17430TIP3    H173781   3.661   2.160  15.834  1.6301 -1.1348  0.6112
17430TIP3    H273782   3.627   2.057  15.728  0.5663 -0.0933 -0.0913
17431TIP3   OH273783   0.921   0.514   3.716 -0.1946 -0.2111 -0.3729
17431TIP3    H173784   1.015   0.535   3.717 -0.3282  0.6097 -1.8185
17431TIP3    H273785   0.918   0.419   3.709  0.5158 -0.3013  0.3573
17432TIP3   OH273786   0.088   5.604   0.627 -0.1655  0.2655  0.0142
17432TIP3    H173787   0.075   5.686   0.675  0.7036  1.2795 -1.3984
17432TIP3    H273788   0.117   5.542   0.693 -0.8048  1.0914  1.1182
17433TIP3   OH273789   3.655   1.373   3.083 -0.3921  0.2557  0.4231
17433TIP3    H173790   3.694   1.461   3.086  0.8396 -0.1988 -0.8890
17433TIP3    H273791   3.644   1.355   2.990 -2.0263 -0.4234  0.7152
17434TIP3   OH273792   0.497   2.763   4.876 -0.1129  0.2064 -0.0349
17434TIP3    H173793   0.452   2.796   4.797  0.8303  3.6197  0.6925
17434TIP3    H273794   0.587   2.751   4.848 -0.0593  0.0836  0.1955
17435TIP3   OH273795   5.270   0.304   0.822  0.2454  0.6771 -0.1029
17435TIP3    H173796   5.291   0.344   0.738  1.3031 -0.3315 -0.3431
17435TIP3    H273797   5.248   0.378   0.879  0.0819  1.4153 -1.1046
17436TIP3   OH273798   1.186   1.609   0.273 -0.6436  0.3286 -0.2612
17436TIP3    H173799   1.186   1.533   0.215  0.1753 -1.3259  1.8235
17436TIP3    H273800   1.109   1.659   0.246  0.1656  0.1646 -3.3490
17437TIP3   OH273801   6.472   0.278  15.071  0.4377 -0.3709  0.3188
17437TIP3    H173802   6.520   0.247  14.994 -0.3635 -0.4395 -0.1674
17437TIP3    H273803   6.381   0.254  15.053  0.4802 -2.2894  2.2110
17438TIP3   OH273804   0.497   2.608   2.196 -0.2780  0.0557  0.0186
17438TIP3    H173805   0.586   2.644   2.189  0.1197 -0.6852  0.9884
17438TIP3    H273806   0.507   2.532   2.253 -1.6340  0.2872  0.5990
17439TIP3   OH273807   1.312   1.478  16.459  0.2676 -0.4597  0.4898
17439TIP3    H173808   1.222   1.509  16.467 -0.0581 -1.2542 -0.0411
17439TIP3    H273809   1.309   1.388  16.490  0.9173 -0.4435  0.6140
17440TIP3   OH273810   0.973   6.009  16.017  0.1576 -0.1347  0.0578
17440TIP3    H173811   1.012   6.093  15.994  0.8847 -0.0871  1.4239
17440TIP3    H273812   1.013   5.947  15.956  0.4249  0.3332 -0.2481
17441TIP3   OH273813   4.103   6.495  12.537 -0.5254 -0.3048 -0.0097
17441TIP3    H173814   4.074   6.490  12.628  1.3581  1.0601  0.7271
17441TIP3    H273815   4.193   6.527  12.542 -0.5248  0.2630 -2.3884
17442TIP3   OH273816   5.723   1.059  13.328  0.2517  0.0930  0.3957
17442TIP3    H173817   5.716   0.975  13.375  0.3915  0.0285  0.3006
17442TIP3    H273818   5.777   1.113  13.385  1.4185 -0.3764 -0.2374
17443TIP3   OH273819   6.126   4.424   2.787  0.1310 -0.3140 -0.0664
17443TIP3    H173820   6.190   4.354   2.800  0.2606 -0.0952  0.5164
17443TIP3    H273821   6.179   4.503   2.778 -0.0633  0.0728  1.7267
17444TIP3   OH273822   2.733   1.708   3.694  0.1550  0.2550 -0.0719
17444TIP3    H173823   2.825   1.684   3.694  0.1878  0.3831 -0.5286
17444TIP3    H273824   2.707   1.706   3.602 -0.4370 -0.3189  0.0976
17445TIP3   OH273825   5.309   5.291  16.839 -0.9080  0.5279 -0.4983
17445TIP3    H173826   5.312   5.364  16.777 -2.3860  0.9790 -0.0788
17445TIP3    H273827   5.240   5.234  16.805 -1.6634  0.7293  0.6556
17446TIP3   OH273828   1.851   3.122   5.033  0.4399  0.0700  1.0176
17446TIP3    H173829   1.798   3.078   4.967  3.2240 -2.2324  0.1214
17446TIP3    H273830   1.913   3.056   5.062  3.4438  2.7691  1.2628
17447TIP3   OH273831   0.110   4.814  13.188  0.1879  0.0344  0.0727
17447TIP3    H173832   0.178   4.802  13.122  1.7151  1.6762  1.2491
17447TIP3    H273833   0.142   4.766  13.264 -0.3100  0.2526  0.4252
17448TIP3   OH273834   1.040   1.596  13.232  0.2854  0.1157  0.1515
17448TIP3    H173835   1.121   1.547  13.219 -0.0186 -0.4371  0.3080
17448TIP3    H273836   0.982   1.535  13.278 -0.4040  0.3148 -0.4344
17449TIP3   OH273837   0.708   0.029   3.506 -0.4504 -0.4828 -0.3932
17449TIP3    H173838   0.795   0.020   3.545 -1.1297 -0.4054  1.2103
17449TIP3    H273839   0.710   0.115   3.463 -0.4261  0.5654  1.5769
17450TIP3   OH273840   5.554   4.507   1.210 -0.5469  0.0598 -0.2886
17450TIP3    H173841   5.516   4.445   1.148 -1.1799  0.2014 -0.0534
17450TIP3    H273842   5.478   4.542   1.257 -0.0323 -0.7218  1.1963
17451TIP3   OH273843   5.049   5.020  16.185 -0.3300  0.1750  0.0194
17451TIP3    H173844   5.038   4.927  16.206 -1.2396  0.1526 -0.4952
17451TIP3    H273845   5.142   5.030  16.166 -0.0652 -0.4452  0.9372
17452TIP3   OH273846   2.169   0.332  14.744  0.1830  0.0733 -0.1795
17452TIP3    H173847   2.085   0.322  14.700  0.2175 -2.8331  0.2503
17452TIP3    H273848   2.147   0.343  14.836  0.2683  0.0048 -0.1507
17453TIP3   OH273849   2.612   2.246   4.037 -0.4041 -0.9069 -0.2977
17453TIP3    H173850   2.661   2.279   4.111 -0.3217  0.8394 -1.0871
17453TIP3    H273851   2.571   2.323   3.998 -1.1126 -1.8820 -1.5872
17454TIP3   OH273852   2.450   3.901   4.823  0.0130  0.0829 -0.3435
17454TIP3    H173853   2.487   3.812   4.822 -0.5630 -0.1586 -0.3869
17454TIP3    H273854   2.357   3.888   4.839 -0.0291  0.7006 -0.0673
17455TIP3   OH273855   5.553   5.384   1.190  0.1457  0.0669 -0.5409
17455TIP3    H173856   5.466   5.406   1.158  0.5659  1.4176 -0.8315
17455TIP3    H273857   5.600   5.468   1.192  1.4954 -0.6583 -0.5667
17456TIP3   OH273858   4.798   0.290  13.707  0.0477 -0.4515  0.2862
17456TIP3    H173859   4.858   0.341  13.651 -0.1085 -0.9379 -0.3310
17456TIP3    H273860   4.805   0.332  13.793  0.8654 -0.1634  0.0910
17457TIP3   OH273861   5.509   1.834   1.080 -0.0623  0.6702 -0.0748
17457TIP3    H173862   5.566   1.888   1.135 -0.1854 -0.9242  1.6947
17457TIP3    H273863   5.464   1.776   1.140 -2.1224  0.5292 -1.6429
17458TIP3   OH273864   6.379   5.744   2.478 -0.2242 -0.4053 -0.1403
17458TIP3    H173865   6.411   5.716   2.564  1.5766  0.8959 -0.3327
17458TIP3    H273866   6.318   5.675   2.452  0.8414 -1.9541  1.2199
17459TIP3   OH273867   5.785   0.827  16.788  0.1743 -0.1323  0.7143
17459TIP3    H173868   5.797   0.891  16.857  1.8921  0.6694 -0.2658
17459TIP3    H273869   5.871   0.822  16.744 -0.3209 -2.0088 -0.1557
17460TIP3   OH273870   2.320   0.311  11.361 -0.3247 -0.1411  0.3311
17460TIP3    H173871   2.277   0.226  11.369 -0.8026  0.0366 -0.3145
17460TIP3    H273872   2.407   0.291  11.327 -0.6528 -0.3254 -0.4072
17461TIP3   OH273873   0.780   0.971   0.119  0.4791 -0.4795 -0.1402
17461TIP3    H173874   0.746   1.060   0.108 -1.4875 -1.2854 -1.0351
17461TIP3    H273875   0.734   0.938   0.196 -0.7715 -1.5591 -1.3070
17462TIP3   OH273876   6.573   6.196  11.613  0.4748 -0.0393 -0.1304
17462TIP3    H173877   6.582   6.148  11.696 -0.2576  0.3882  0.2083
17462TIP3    H273878   6.568   6.127  11.547 -1.0462 -0.4850  0.4008
17463TIP3   OH273879   0.965   6.770   3.613  0.2367 -0.0108  0.4163
17463TIP3    H173880   0.970   6.701   3.679 -2.2359 -1.3322 -0.6448
17463TIP3    H273881   1.012   6.734   3.537 -0.3574 -0.1912  0.1329
17464TIP3   OH273882   1.551   2.826   7.025  0.0927  0.1494  0.1961
17464TIP3    H173883   1.461   2.801   7.045  0.1495 -1.3070 -1.1552
17464TIP3    H273884   1.544   2.912   6.984 -0.5459  0.5811  1.1877
17465TIP3   OH273885   1.369   6.629  11.830  0.9049  0.5062 -0.2876
17465TIP3    H173886   1.448   6.675  11.858 -0.0307  0.8384  2.0589
17465TIP3    H273887   1.300   6.694  11.836 -0.0717 -0.5684  0.9813
17466TIP3   OH273888   2.875   1.762  16.127  0.0070 -0.5112 -0.1676
17466TIP3    H173889   2.930   1.737  16.053  0.0012 -0.2325 -0.2681
17466TIP3    H273890   2.928   1.825  16.176  0.8301 -2.1615  1.1833
17467TIP3   OH273891   0.575   5.016   0.154  0.3780 -0.4127  0.0518
17467TIP3    H173892   0.646   5.072   0.123 -0.6418  1.1200  0.4095
17467TIP3    H273893   0.500   5.074   0.161 -1.1538 -2.1550 -1.0906
17468TIP3   OH273894   6.218   5.888   0.374 -0.0896 -0.0861 -0.3883
17468TIP3    H173895   6.222   5.839   0.457  0.7533  0.3928 -0.1337
17468TIP3    H273896   6.171   5.830   0.314 -2.2990  0.2502  0.8824
17469TIP3   OH273897   0.998   4.314  11.810  0.5995  0.1815 -0.3926
17469TIP3    H173898   0.940   4.296  11.737 -0.6846  0.0583  0.6223
17469TIP3    H273899   1.040   4.397  11.788 -0.4686  0.6129 -0.8550
17470TIP3   OH273900   5.933   3.103  14.918 -0.0413  0.6543  0.1303
17470TIP3    H173901   5.978   3.070  14.840  0.4330  1.3278  0.1152
17470TIP3    H273902   5.932   3.028  14.978 -0.6153  0.0564 -0.6004
17471TIP3   OH273903   4.185   3.119  16.697 -0.0581  0.0301  0.0952
17471TIP3    H173904   4.135   3.080  16.626  1.7657 -0.0550 -1.2175
17471TIP3    H273905   4.233   3.191  16.656 -0.2115  1.0666  1.6152
17472TIP3   OH273906   0.187   4.670  13.413 -0.0618  0.3822 -0.5769
17472TIP3    H173907   0.142   4.586  13.427 -0.3684  0.5447 -0.5925
17472TIP3    H273908   0.280   4.646  13.406 -0.1790  0.0050 -0.8990
17473TIP3   OH273909   5.617   6.220  12.709 -0.0213 -0.0926  0.2731
17473TIP3    H173910   5.712   6.217  12.713 -0.0434 -1.8922  0.3673
17473TIP3    H273911   5.593   6.143  12.656 -1.4867 -0.7526  1.8130
17474TIP3   OH273912   5.989   5.287   1.444 -0.7144 -0.0665 -0.0869
17474TIP3    H173913   5.927   5.216   1.462 -0.4577  0.0196  1.2951
17474TIP3    H273914   5.964   5.356   1.506 -0.1826  0.5573 -0.5572
17475TIP3   OH273915   1.813   5.285   4.953 -0.2724 -0.0044 -0.0234
17475TIP3    H173916   1.812   5.359   4.893 -0.4776  1.3629  1.5753
17475TIP3    H273917   1.808   5.208   4.897 -0.0043  1.1782 -1.7528
17476TIP3   OH273918   1.539   5.133   5.106  0.4193  0.1392  0.2412
17476TIP3    H173919   1.573   5.221   5.124  1.7431 -0.5288  1.1656
17476TIP3    H273920   1.566   5.081   5.182 -0.1239 -1.1261 -0.4086
17477TIP3   OH273921   0.548   3.767  16.406 -0.6696  0.3917  0.9110
17477TIP3    H173922   0.459   3.769  16.373 -0.5267  0.8584  0.5329
17477TIP3    H273923   0.555   3.844  16.463 -0.1376  1.1239 -0.0981
17478TIP3   OH273924   6.802   1.329  12.412  0.3527 -0.1125  0.1435
17478TIP3    H173925   6.803   1.421  12.439 -0.9965 -0.1174  0.2747
17478TIP3    H273926   6.710   1.304  12.416  0.8782 -1.9953  1.8147
17479TIP3   OH273927   2.061   3.691   6.063 -0.5688 -0.1358  0.0034
17479TIP3    H173928   2.103   3.633   5.999  1.4413  0.3293  0.8181
17479TIP3    H273929   1.986   3.641   6.096  0.6911 -1.9966  0.1690
17480TIP3   OH273930   5.169   2.393   4.604 -0.1128 -0.9080  0.0535
17480TIP3    H173931   5.093   2.339   4.584 -0.7954  0.4623 -1.2251
17480TIP3    H273932   5.234   2.369   4.537  0.0081 -0.9546  0.1860
17481TIP3   OH273933   1.695   3.512   0.715  0.0075  0.3463  0.0529
17481TIP3    H173934   1.648   3.428   0.713  2.1222 -0.9254  0.3843
17481TIP3    H273935   1.659   3.557   0.791 -0.2467 -0.8517  0.6713
17482TIP3   OH273936   2.635   0.146   0.898  0.1775  0.2401  0.2495
17482TIP3    H173937   2.690   0.152   0.819  0.3426  0.3081  0.3706
17482TIP3    H273938   2.546   0.136   0.863 -0.0232  2.3832  0.0178
17483TIP3   OH273939   1.388   2.009   3.595 -0.0688 -0.3658  0.3084
17483TIP3    H173940   1.293   2.008   3.605 -0.0618  0.8722  0.7382
17483TIP3    H273941   1.420   1.949   3.662 -0.4622  0.9993  1.7860
17484TIP3   OH273942   5.011   6.558   6.146  1.1536  0.5202  0.2037
17484TIP3    H173943   5.047   6.622   6.085  0.0951  0.2307 -0.7536
17484TIP3    H273944   5.051   6.581   6.230  1.2265  2.0868 -0.2203
17485TIP3   OH273945   5.627   5.292  15.856 -0.2354 -0.4076  0.4075
17485TIP3    H173946   5.709   5.314  15.810 -0.8035  2.3039  0.5062
17485TIP3    H273947   5.650   5.299  15.949 -0.2957 -0.7960  0.4496
17486TIP3   OH273948   5.559   6.727   1.115  0.4787  0.0850  0.1875
17486TIP3    H173949   5.542   6.801   1.057 -0.3455 -0.3677 -0.1576
17486TIP3    H273950   5.654   6.714   1.109  0.5063  0.5275 -0.4665
17487TIP3   OH273951   4.135   3.822   0.318 -0.0304  0.4110  0.2015
17487TIP3    H173952   4.154   3.910   0.350 -0.0241  0.0818  1.1302
17487TIP3    H273953   4.218   3.791   0.282  0.2774  0.3253  0.9835
17488TIP3   OH273954   0.006   2.085  15.691 -0.1480  0.0134  0.2306
17488TIP3    H173955   0.081   2.062  15.746  0.7714 -0.4480 -1.1581
17488TIP3    H273956   0.040   2.150  15.630 -1.3590  1.1153  0.6853
17489TIP3   OH273957   2.320   4.868   6.458  0.2523  0.2043  0.1166
17489TIP3    H173958   2.250   4.870   6.523  0.2113 -0.2903  0.0924
17489TIP3    H273959   2.327   4.776   6.433  1.6285  0.0539  0.9081
17490TIP3   OH273960   6.297   6.544  14.401  0.6609 -0.2423 -0.4130
17490TIP3    H173961   6.220   6.500  14.436  0.7948 -1.6275 -1.7239
17490TIP3    H273962   6.263   6.599  14.330  0.6828  0.5426  0.1789
17491TIP3   OH273963   0.957   0.293   4.342  0.9394  0.0914 -0.0945
17491TIP3    H173964   1.046   0.328   4.346  0.9038  0.0682  1.3116
17491TIP3    H273965   0.909   0.354   4.285  1.2180  1.5821  1.2056
17492TIP3   OH273966   2.848   6.195  15.206  0.0259  0.3063 -0.1238
17492TIP3    H173967   2.899   6.251  15.264  1.5893  0.0529 -1.1706
17492TIP3    H273968   2.767   6.178  15.253  0.7878  0.9715  1.4986
17493TIP3   OH273969   1.141   5.514   4.684 -0.2653  0.4794  0.1144
17493TIP3    H173970   1.077   5.485   4.619 -0.0189  3.0872 -1.4168
17493TIP3    H273971   1.094   5.511   4.768 -1.6511  0.2309 -0.6533
17494TIP3   OH273972   3.067   0.863   4.068  0.2971  0.1153 -0.1553
17494TIP3    H173973   3.110   0.921   4.005 -0.5791 -0.4317 -1.2853
17494TIP3    H273974   3.056   0.918   4.146  1.0258  0.9388 -0.6057
17495TIP3   OH273975   0.505   3.202  13.252  0.7924 -0.5294 -0.3596
17495TIP3    H173976   0.599   3.215  13.268  0.9868 -0.1279 -1.7348
17495TIP3    H273977   0.499   3.179  13.159 -0.3918 -1.5648 -0.0614
17496TIP3   OH273978   2.702   3.517  14.228 -0.3072  0.8467 -1.1728
17496TIP3    H173979   2.681   3.428  14.256 -2.2138  1.2185 -1.2901
17496TIP3    H273980   2.778   3.541  14.281 -0.3368 -0.5018 -0.4614
17497TIP3   OH273981   4.611   4.246  13.035 -0.3250 -0.2614  0.1491
17497TIP3    H173982   4.696   4.206  13.053 -0.8310 -1.2992  0.2810
17497TIP3    H273983   4.556   4.222  13.110 -1.1166 -0.7381 -0.5608
17498TIP3   OH273984   1.467   6.405   5.363  0.2749  0.0061 -0.3213
17498TIP3    H173985   1.438   6.459   5.289  1.5985  1.4685  0.1813
17498TIP3    H273986   1.386   6.385   5.411 -0.1510  3.0684  0.4432
17499TIP3   OH273987   1.995   3.970   2.797 -0.8142  0.4881 -0.7432
17499TIP3    H173988   2.054   4.031   2.840  0.5680 -1.3322  0.0750
17499TIP3    H273989   2.023   3.971   2.705  0.0869  0.1207 -0.4829
17500TIP3   OH273990   6.491   6.103  15.244  0.2539  0.5946  0.7279
17500TIP3    H173991   6.432   6.028  15.249 -0.0297  0.6891 -0.7243
17500TIP3    H273992   6.575   6.066  15.217  1.2128  0.3200  3.7815
17501TIP3   OH273993   5.992   0.055   5.234  0.6720  0.2393 -0.4300
17501TIP3    H173994   6.068   0.013   5.272  0.3017  0.0108  0.0646
17501TIP3    H273995   6.027   0.132   5.188  1.4499 -0.9441 -1.9195
17502TIP3   OH273996   5.140   6.132  11.031 -0.0714  0.0608 -0.1517
17502TIP3    H173997   5.209   6.120  10.966 -0.4795 -0.0868 -0.5665
17502TIP3    H273998   5.181   6.182  11.101  0.1132  1.0653 -0.9565
17503TIP3   OH273999   3.163   0.024   3.523 -0.3938 -0.0405  0.1424
17503TIP3    H174000   3.242   0.043   3.473 -0.7014  1.2940  0.1318
17503TIP3    H274001   3.193   0.015   3.613 -0.0597 -0.8843 -0.0397
17504TIP3   OH274002   4.747   1.639  15.574 -0.9853 -0.1714 -0.3208
17504TIP3    H174003   4.719   1.722  15.537 -0.5981  0.3676  0.5726
17504TIP3    H274004   4.732   1.649  15.668 -2.2172 -1.6038 -0.3160
17505TIP3   OH274005   4.822   3.281   4.465 -0.2489 -0.3265  0.1480
17505TIP3    H174006   4.901   3.228   4.463  0.1571  0.3157 -1.3500
17505TIP3    H274007   4.774   3.248   4.541  1.5157 -0.6001  1.2003
17506TIP3   OH274008   6.276   1.015  12.980  0.0923 -0.3455 -0.5282
17506TIP3    H174009   6.223   0.994  12.903  1.3729 -1.1288 -1.2423
17506TIP3    H274010   6.251   0.949  13.045  0.8888 -1.3714 -1.2228
17507TIP3   OH274011   6.233   3.505  11.216 -0.3386  0.2497  0.9926
17507TIP3    H174012   6.316   3.482  11.175 -1.0844  1.0997 -1.1255
17507TIP3    H274013   6.203   3.424  11.257  1.0420 -0.3140  0.9459
17508TIP3   OH274014   0.977   2.241  11.274 -0.0470 -0.1759  0.2884
17508TIP3    H174015   0.968   2.310  11.209 -1.3088 -1.1550 -0.6442
17508TIP3    H274016   0.894   2.194  11.270  1.0565 -2.2475  0.2703
17509TIP3   OH274017   2.639   1.977  15.810 -0.0271 -0.8046  0.3099
17509TIP3    H174018   2.699   1.904  15.795  0.5830  0.0081 -1.3402
17509TIP3    H274019   2.626   2.016  15.724  0.8064  1.9335  1.3279
17510TIP3   OH274020   4.502   0.838  15.899 -0.2922  0.1896  0.4903
17510TIP3    H174021   4.554   0.809  15.824 -0.9456 -1.4000  0.6111
17510TIP3    H274022   4.566   0.872  15.961  0.3665  0.4455 -0.3226
17511TIP3   OH274023   0.917   2.718  16.174 -0.3394  0.1590  0.3688
17511TIP3    H174024   0.944   2.810  16.169 -0.9613  0.3539  0.5540
17511TIP3    H274025   0.829   2.717  16.136 -0.1202 -0.4533 -0.1275
17512TIP3   OH274026   2.362   0.157   0.797 -0.5705  0.3350  0.2807
17512TIP3    H174027   2.292   0.127   0.739 -0.0835  0.4638 -0.3812
17512TIP3    H274028   2.357   0.253   0.794  2.0698  0.5392 -2.8997
17513TIP3   OH274029   6.566   6.167   2.059  0.0383  0.0416 -0.0293
17513TIP3    H174030   6.564   6.139   2.150  1.2298 -1.7653 -0.5167
17513TIP3    H274031   6.658   6.160   2.033  0.0386  2.3727 -0.8518
17514TIP3   OH274032   1.991   0.611   4.001  0.2824 -0.2749 -0.1612
17514TIP3    H174033   1.985   0.521   4.033 -0.4256 -0.7249 -1.4951
17514TIP3    H274034   1.962   0.606   3.910  0.4241  1.2750 -0.3109
17515TIP3   OH274035   0.288   6.425  16.843 -1.0820 -0.3326 -0.2158
17515TIP3    H174036   0.252   6.348  16.797 -0.4819  0.7111 -2.6128
17515TIP3    H274037   0.231   6.497  16.815 -0.0822  0.5129 -0.1107
17516TIP3   OH274038   1.920   2.820  16.532  0.0316 -0.1424 -0.0381
17516TIP3    H174039   1.925   2.748  16.595 -0.8273  0.3920  0.6667
17516TIP3    H274040   2.011   2.834  16.506  0.3570 -0.6857  0.7327
17517TIP3   OH274041   4.354   4.020   2.823 -0.0696 -0.7488  0.2412
17517TIP3    H174042   4.290   4.027   2.894 -0.8020  0.3484 -0.4977
17517TIP3    H274043   4.433   3.986   2.866 -1.2264 -2.5139  1.1047
17518TIP3   OH274044   0.922   3.371   4.284 -0.2214 -0.4272  0.1587
17518TIP3    H174045   0.889   3.457   4.260 -0.5815 -0.6691 -0.2264
17518TIP3    H274046   1.013   3.371   4.256 -0.2330 -0.1893  0.1209
17519TIP3   OH274047   2.990   3.061   0.695  0.2129 -0.3044  0.9616
17519TIP3    H174048   3.070   3.010   0.712 -0.6778 -1.3478  2.2251
17519TIP3    H274049   2.931   2.999   0.652 -0.2895  0.1494  0.9872
17520TIP3   OH274050   1.683   3.246  15.475  0.3218 -0.4375  0.3595
17520TIP3    H174051   1.736   3.326  15.471 -0.3154 -0.0104  0.3004
17520TIP3    H274052   1.695   3.205  15.389 -1.4997  1.0145 -0.6596
17521TIP3   OH274053   0.311   4.554   4.003  0.5885 -0.0465 -0.0265
17521TIP3    H174054   0.398   4.576   3.970  0.6439 -1.0080 -0.5473
17521TIP3    H274055   0.320   4.559   4.098  1.1323  0.1373 -0.0820
17522TIP3   OH274056   5.410   1.680  16.358 -0.0309  0.4255 -0.3953
17522TIP3    H174057   5.316   1.697  16.353 -0.3074 -1.1500 -4.5758
17522TIP3    H274058   5.449   1.766  16.374 -2.0731  1.6425 -1.5680
17523TIP3   OH274059   6.167   4.310  11.216 -0.5518  0.0701 -0.4287
17523TIP3    H174060   6.153   4.306  11.122 -0.9578 -2.3052 -0.3235
17523TIP3    H274061   6.245   4.364  11.227  0.3990 -0.8516 -2.2407
17524TIP3   OH274062   1.621   4.367  15.291  0.5317  0.5506  0.2187
17524TIP3    H174063   1.644   4.459  15.281  1.8654  0.4318  1.7720
17524TIP3    H274064   1.575   4.363  15.374  0.3603 -0.1698  0.0944
17525TIP3   OH274065   0.653   6.639  11.783  0.0902  0.1750 -0.2559
17525TIP3    H174066   0.719   6.652  11.851 -2.4846  1.1507  2.2200
17525TIP3    H274067   0.639   6.545  11.781  0.3175  0.1194  0.4390
17526TIP3   OH274068   5.330   2.447   2.401  0.2716  1.0125 -0.0888
17526TIP3    H174069   5.316   2.359   2.437  2.1436  0.7431  0.1028
17526TIP3    H274070   5.243   2.479   2.382 -0.4132 -1.4693 -1.5927
17527TIP3   OH274071   6.370   4.662  11.682  0.0309  0.5307 -0.3119
17527TIP3    H174072   6.364   4.570  11.656 -2.2694  0.6286 -0.3218
17527TIP3    H274073   6.434   4.662  11.753 -3.1040 -1.9591  2.8924
17528TIP3   OH274074   4.084   1.829  13.461 -0.4585 -0.4726  0.5906
17528TIP3    H174075   4.002   1.868  13.493 -1.2303 -0.9437 -0.7465
17528TIP3    H274076   4.065   1.736  13.454 -0.2209 -0.4352 -0.8605
17529TIP3   OH274077   3.254   6.210  12.955 -0.0116  0.2225 -0.2870
17529TIP3    H174078   3.208   6.126  12.951  0.4994 -0.0181 -1.4418
17529TIP3    H274079   3.264   6.236  12.864  0.2731  1.3087  0.0386
17530TIP3   OH274080   2.142   1.261   4.974 -0.0609  0.4281 -0.1691
17530TIP3    H174081   2.188   1.345   4.975  1.1847 -0.1935 -1.7038
17530TIP3    H274082   2.103   1.255   4.887  2.3204 -1.7949 -1.2021
17531TIP3   OH274083   1.913   4.350   1.054 -0.0621  0.6550  0.4441
17531TIP3    H174084   1.941   4.294   0.982 -1.5102  1.2531 -0.6370
17531TIP3    H274085   1.984   4.414   1.063 -0.6794  1.7830 -1.8200
17532TIP3   OH274086   3.135   5.555  11.226 -0.5452  1.0317 -0.8485
17532TIP3    H174087   3.220   5.592  11.201  0.5238 -0.6804  0.0659
17532TIP3    H274088   3.072   5.600  11.170  0.7633  3.4373 -0.5190
17533TIP3   OH274089   2.914   1.031   6.222  0.0777  0.0309 -0.2726
17533TIP3    H174090   2.862   1.103   6.258 -1.3339 -1.3367  0.5627
17533TIP3    H274091   2.985   1.019   6.284  0.0057  0.3425 -0.1294
17534TIP3   OH274092   3.162   0.651  13.165  0.0076 -0.2122  0.2325
17534TIP3    H174093   3.114   0.728  13.134 -1.9025 -1.4000  0.1203
17534TIP3    H274094   3.155   0.587  13.094  1.2531 -0.6595  0.4758
17535TIP3   OH274095   0.894   6.531   1.154  0.1240 -0.7192  0.7840
17535TIP3    H174096   0.870   6.584   1.230  0.4665 -1.8058  1.6824
17535TIP3    H274097   0.904   6.442   1.190 -2.0459 -1.7538 -0.9164
17536TIP3   OH274098   1.859   1.675   4.241 -0.2983  0.0507  0.4338
17536TIP3    H174099   1.851   1.741   4.173 -3.3417  0.0018  0.5918
17536TIP3    H274100   1.818   1.597   4.203  2.6426 -1.6579  0.4832
17537TIP3   OH274101   0.089   2.327  15.847  0.5629 -0.1526 -0.0845
17537TIP3    H174102   0.073   2.360  15.759  2.7031  1.0344 -0.1128
17537TIP3    H274103   0.008   2.342  15.894 -0.8270 -1.3386 -1.9686
17538TIP3   OH274104   5.900   1.613   5.353  0.1830 -0.3679  0.5570
17538TIP3    H174105   5.848   1.664   5.291  1.4906  2.0008  1.2918
17538TIP3    H274106   5.969   1.573   5.300  0.6643  0.7649  0.3165
17539TIP3   OH274107   2.452   2.046  11.410 -0.4231 -0.4403 -0.5638
17539TIP3    H174108   2.409   2.047  11.496  0.3470 -1.3151 -0.1454
17539TIP3    H274109   2.393   2.096  11.353 -0.1974  1.4988  0.8002
17540TIP3   OH274110   0.215   4.573  16.610  0.0767  0.2321 -0.6390
17540TIP3    H174111   0.263   4.647  16.571  1.3482  0.3664  1.0605
17540TIP3    H274112   0.241   4.498  16.556  1.5470  0.4567 -0.2907
17541TIP3   OH274113   6.343   0.221   4.727  0.8480 -0.7045  0.1869
17541TIP3    H174114   6.398   0.299   4.713 -0.9594  0.8794  1.3661
17541TIP3    H274115   6.281   0.222   4.653  0.3925 -0.6024  0.5611
17542TIP3   OH274116   2.938   6.400  12.219 -0.3241  0.2524  0.0121
17542TIP3    H174117   3.001   6.415  12.290 -0.9929 -1.8678  1.1411
17542TIP3    H274118   2.982   6.435  12.141  1.9523 -0.4402  0.8804
17543TIP3   OH274119   1.553   2.885   3.922 -0.0847  0.7429 -0.3404
17543TIP3    H174120   1.615   2.857   3.855 -2.3545 -0.2197 -2.2186
17543TIP3    H274121   1.555   2.981   3.919 -0.6943  0.7517 -2.4770
17544TIP3   OH274122   0.496   4.645   3.281  0.6563 -0.2765 -0.1169
17544TIP3    H174123   0.526   4.561   3.244 -1.2431 -1.1127  0.1265
17544TIP3    H274124   0.473   4.698   3.205  1.9499  0.0917 -0.2759
17545TIP3   OH274125   4.896   5.415  12.007  0.1804 -0.7655 -0.6803
17545TIP3    H174126   4.840   5.338  12.018  0.5741 -1.2432 -1.8211
17545TIP3    H274127   4.892   5.434  11.913 -1.2100  1.6341 -0.2072
17546TIP3   OH274128   4.388   6.218  15.840 -0.0025 -0.1511  0.0290
17546TIP3    H174129   4.404   6.310  15.818  1.2458 -0.4309 -0.3107
17546TIP3    H274130   4.327   6.187  15.773  0.1505  0.2381 -0.2916
17547TIP3   OH274131   5.629   6.531  15.028 -0.0253 -0.0097 -0.1699
17547TIP3    H174132   5.610   6.441  15.052  1.0180 -0.2246 -0.1428
17547TIP3    H274133   5.569   6.550  14.956  0.2723 -0.9594 -0.6730
17548TIP3   OH274134   5.198   6.117   5.714 -0.5419  0.1223  0.6092
17548TIP3    H174135   5.183   6.143   5.805 -1.5009  1.3339  0.1363
17548TIP3    H274136   5.111   6.118   5.674  0.0990  2.1876 -0.9469
17549TIP3   OH274137   4.051   5.393  13.812  0.3660 -0.5804  0.2004
17549TIP3    H174138   3.967   5.376  13.856  0.6721 -2.7061  0.0909
17549TIP3    H274139   4.072   5.310  13.768  1.2640  0.7287 -1.9565
17550TIP3   OH274140   2.173   2.106  14.582 -0.0089 -0.0829 -0.4420
17550TIP3    H174141   2.266   2.123  14.598  0.0233  0.1146 -0.8345
17550TIP3    H274142   2.169   2.012  14.562  0.2107  0.0484 -1.1450
17551TIP3   OH274143   1.895   2.310  12.507  0.2693  0.0610  0.0115
17551TIP3    H174144   1.806   2.343  12.504  0.5799  0.9443  0.1545
17551TIP3    H274145   1.939   2.365  12.572  0.8618 -0.5074  0.1097
17552TIP3   OH274146   3.343   5.339  12.000 -0.9229 -0.1971  0.1262
17552TIP3    H174147   3.386   5.414  12.042 -2.5953  1.6478 -1.1982
17552TIP3    H274148   3.400   5.316  11.927 -0.9563  0.5940 -0.1615
17553TIP3   OH274149   4.957   2.657  13.164 -0.2992 -0.6541 -0.1168
17553TIP3    H174150   5.011   2.732  13.187  0.5576 -1.2163 -0.2325
17553TIP3    H274151   5.006   2.581  13.197 -0.7306 -1.2207 -0.7440
17554TIP3   OH274152   4.096   2.727  13.260 -0.0853  0.2239  0.0025
17554TIP3    H174153   4.057   2.783  13.194  0.0830  0.3898  0.0399
17554TIP3    H274154   4.076   2.638  13.232  0.2659  0.2835 -0.4462
17555TIP3   OH274155   0.258   5.073  13.087  0.6196  0.2784  0.2491
17555TIP3    H174156   0.198   5.018  13.137  0.2758  0.0611 -0.3848
17555TIP3    H274157   0.222   5.073  12.998  0.6150  1.5375  0.2377
17556TIP3   OH274158   4.963   4.418   3.271  0.5679 -0.6337 -0.4562
17556TIP3    H174159   4.878   4.462   3.271 -0.0882 -1.6792  1.9727
17556TIP3    H274160   5.021   4.477   3.319  0.3291 -1.2647  0.6561
17557TIP3   OH274161   2.487   3.582  12.313 -0.1107  0.0675  0.1581
17557TIP3    H174162   2.556   3.644  12.288 -0.1489  1.0005  2.1702
17557TIP3    H274163   2.410   3.637  12.328 -0.2056 -0.4513  1.7759
17558TIP3   OH274164   4.674   0.853   0.768 -0.5238  0.1838  0.4041
17558TIP3    H174165   4.653   0.937   0.728 -1.3737 -1.0285 -1.8535
17558TIP3    H274166   4.745   0.817   0.714  0.9300  0.0758  2.2700
17559TIP3   OH274167   3.637   0.241  12.033 -0.3886  0.0596 -0.1460
17559TIP3    H174168   3.651   0.152  12.000  2.1214 -0.0095  0.8486
17559TIP3    H274169   3.648   0.297  11.957  1.8179 -0.3114 -0.1770
17560TIP3   OH274170   1.258   0.808   2.035 -0.1056  0.2814  0.0193
17560TIP3    H174171   1.243   0.745   2.106 -1.5122  0.6435  0.0698
17560TIP3    H274172   1.188   0.872   2.044  2.0459  2.6656  0.7868
17561TIP3   OH274173   3.223   3.104  11.340  0.4766 -0.2467 -0.0713
17561TIP3    H174174   3.272   3.169  11.391 -1.2730 -0.9894  2.8310
17561TIP3    H274175   3.163   3.156  11.286  0.1751  0.6119  1.0491
17562TIP3   OH274176   4.931   0.700  14.454  0.1207 -0.2021 -0.3298
17562TIP3    H174177   5.020   0.727  14.476  0.1019  0.0378 -0.5403
17562TIP3    H274178   4.940   0.612  14.419  0.6254  0.7430 -2.8121
17563TIP3   OH274179   6.306   5.558   3.567 -0.2705  0.4257 -0.1540
17563TIP3    H174180   6.392   5.598   3.578  0.2911 -0.9820  0.8365
17563TIP3    H274181   6.271   5.553   3.656 -0.3961 -1.0517 -0.2570
17564TIP3   OH274182   4.715   3.067  17.271  0.5055 -0.0150  0.1159
17564TIP3    H174183   4.799   3.112  17.264 -0.0719  1.0828  0.1333
17564TIP3    H274184   4.659   3.127  17.320 -0.7248 -0.1262 -1.0993
17565TIP3   OH274185   1.738   3.855   0.231  0.3225 -0.5707 -0.4020
17565TIP3    H174186   1.748   3.809   0.315  0.4265 -0.4046 -0.3217
17565TIP3    H274187   1.683   3.931   0.252 -0.4604 -1.0566 -0.6838
17566TIP3   OH274188   4.372   1.224   0.239 -0.4337  0.8940 -0.6964
17566TIP3    H174189   4.312   1.231   0.313 -0.1066  1.8935 -0.5078
17566TIP3    H274190   4.447   1.278   0.263  0.0632  0.5371 -1.3940
17567TIP3   OH274191   4.226   3.888  14.252  0.2935 -0.3649  0.0024
17567TIP3    H174192   4.258   3.973  14.283  1.6631 -0.3587 -1.3312
17567TIP3    H274193   4.205   3.840  14.332 -2.2102  1.7894  0.7893
17568TIP3   OH274194   6.443   4.771   1.320  0.4795  0.6104  0.6223
17568TIP3    H174195   6.485   4.685   1.325 -1.5379 -0.3610  2.2394
17568TIP3    H274196   6.373   4.760   1.256 -0.9196  0.4738  2.1188
17569TIP3   OH274197   0.542   1.466  12.230  0.0379 -0.1289  0.4404
17569TIP3    H174198   0.457   1.474  12.273  0.3718 -1.0203  1.3046
17569TIP3    H274199   0.605   1.459  12.301  0.6501 -1.1903 -0.1708
17570TIP3   OH274200   2.724   1.511   3.878  0.5512  0.7515  0.1443
17570TIP3    H174201   2.634   1.490   3.901  0.5662 -0.8678 -1.0570
17570TIP3    H274202   2.722   1.601   3.846 -0.3453  1.2418  1.5240
17571TIP3   OH274203   6.502   3.380  16.792 -0.3613  0.3632  0.5009
17571TIP3    H174204   6.549   3.376  16.709 -0.6378 -1.0862  0.3867
17571TIP3    H274205   6.423   3.431  16.773  1.3631  3.4016  0.8493
17572TIP3   OH274206   3.184   3.101  15.747  0.2557 -0.0461  0.5317
17572TIP3    H174207   3.236   3.037  15.796  0.4164  0.2663  0.7749
17572TIP3    H274208   3.215   3.186  15.779  3.5403  0.4123 -3.1213
17573TIP3   OH274209   0.978   6.029   1.156 -0.0344  0.0790  0.2251
17573TIP3    H174210   0.908   5.974   1.189 -0.7136  0.4271 -0.6094
17573TIP3    H274211   0.997   5.995   1.068 -1.4761  2.0154 -0.9266
17574TIP3   OH274212   6.078   6.213  13.764  0.4052  0.4376 -0.1425
17574TIP3    H174213   6.008   6.216  13.698 -0.2227  0.2318  0.5010
17574TIP3    H274214   6.060   6.134  13.815  2.2087 -0.6579 -1.1308
17575TIP3   OH274215   5.118   3.512  13.792  0.0319 -0.1543  0.4920
17575TIP3    H174216   5.104   3.481  13.702  1.0849 -0.2146  0.3381
17575TIP3    H274217   5.168   3.593  13.782  0.5870 -0.4179  1.0289
17576TIP3   OH274218   2.477   3.355  14.661  0.5935  0.4946  0.3105
17576TIP3    H174219   2.527   3.278  14.634 -0.5216 -0.3050  0.4616
17576TIP3    H274220   2.408   3.363  14.596 -0.0312  0.6250  0.9722
17577TIP3   OH274221   3.956   6.571  14.433 -0.1354  0.6285  0.3446
17577TIP3    H174222   3.946   6.650  14.381 -1.0137 -0.3144 -0.9869
17577TIP3    H274223   4.019   6.517  14.385 -1.8578 -0.7686 -0.4521
17578TIP3   OH274224   6.650   3.839  14.740  0.2428 -0.3342 -0.0165
17578TIP3    H174225   6.557   3.817  14.738 -0.0729  0.9396 -0.8408
17578TIP3    H274226   6.659   3.909  14.676  1.6752 -0.0359  0.4746
17579TIP3   OH274227   0.535   0.305   5.017  0.1416 -0.0481  0.2427
17579TIP3    H174228   0.581   0.389   5.008 -1.1109  0.9023  2.1728
17579TIP3    H274229   0.605   0.239   5.019  1.1834  0.9850 -0.5176
17580TIP3   OH274230   6.755   6.258  15.016 -0.3179 -0.4029  0.2784
17580TIP3    H174231   6.805   6.320  15.069  0.4921  1.7203 -2.7094
17580TIP3    H274232   6.812   6.238  14.942 -2.3296 -1.1267 -1.1699
17581TIP3   OH274233   1.256   6.365  12.418  0.9608  0.0966  0.8805
17581TIP3    H174234   1.223   6.435  12.474 -0.3139 -0.9185  1.4772
17581TIP3    H274235   1.197   6.291  12.437  1.3537 -0.6769 -0.8000
17582TIP3   OH274236   3.444   4.490  16.761 -0.3282 -0.2352 -0.1072
17582TIP3    H174237   3.517   4.447  16.716 -0.5013  1.1093 -1.7644
17582TIP3    H274238   3.485   4.536  16.834  0.3240 -0.4329 -0.3347
17583TIP3   OH274239   2.424   6.134  15.810 -0.1605 -0.0809 -0.1485
17583TIP3    H174240   2.395   6.183  15.732  1.8595  3.3914  1.0509
17583TIP3    H274241   2.412   6.195  15.882  1.8190 -1.6703  1.6536
17584TIP3   OH274242   2.339   0.678  13.995 -0.3519  0.1825  0.5692
17584TIP3    H174243   2.289   0.760  13.995  0.1380  0.4886 -0.2290
17584TIP3    H274244   2.376   0.672  14.083  0.0567  1.0915  0.4624
17585TIP3   OH274245   2.087   5.634  14.152  0.3854 -0.1517  0.6546
17585TIP3    H174246   2.161   5.689  14.178  0.7886 -1.2485  1.9173
17585TIP3    H274247   2.056   5.673  14.070  2.1509  0.5273  0.2606
17586TIP3   OH274248   5.050   4.122   0.856 -0.1968  0.3737 -0.0832
17586TIP3    H174249   5.054   4.079   0.942 -0.3652 -0.6904 -0.5932
17586TIP3    H274250   5.141   4.129   0.828 -0.2124 -0.3540 -0.3309
17587TIP3   OH274251   5.819   5.509  11.594  0.3685  0.1834 -0.1560
17587TIP3    H174252   5.848   5.595  11.621 -3.0282  1.3867  0.2101
17587TIP3    H274253   5.847   5.450  11.664  1.1898  1.3088  0.4783
17588TIP3   OH274254   5.117   4.933   1.801  0.4334 -0.3118 -0.3460
17588TIP3    H174255   5.092   4.868   1.866  0.2839 -0.1486 -0.2383
17588TIP3    H274256   5.211   4.946   1.816  0.6760 -1.1967 -0.9981
17589TIP3   OH274257   4.462   1.227  11.301 -0.1969 -0.3393  0.1633
17589TIP3    H174258   4.474   1.193  11.390  0.8727 -0.4848 -0.0217
17589TIP3    H274259   4.473   1.322  11.310  3.0752 -0.5691 -0.2391
17590TIP3   OH274260   1.879   2.794   1.961  0.9306  0.2695  0.4738
17590TIP3    H174261   1.800   2.752   1.928  1.3033  0.9628 -1.4212
17590TIP3    H274262   1.911   2.735   2.030 -1.8985  0.6077  2.2318
17591TIP3   OH274263   3.410   2.051  16.188  0.7057  0.5142  0.2855
17591TIP3    H174264   3.438   2.142  16.177  0.8634  0.4960  0.5399
17591TIP3    H274265   3.419   2.034  16.281 -3.3164  1.5368  1.0144
17592TIP3   OH274266   5.800   2.204   1.436 -0.2654 -0.1430 -0.0995
17592TIP3    H174267   5.853   2.210   1.357 -1.0451  1.1903 -0.5586
17592TIP3    H274268   5.735   2.274   1.427 -0.4322 -0.0134  1.6783
17593TIP3   OH274269   6.379   6.398   5.552 -0.0320 -0.4408  0.2361
17593TIP3    H174270   6.385   6.490   5.577 -2.3495 -0.1525 -0.1246
17593TIP3    H274271   6.470   6.371   5.541  0.7079  1.7584  0.4652
17594TIP3   OH274272   5.031   5.728  12.623 -0.1162  0.1500  0.0038
17594TIP3    H174273   4.972   5.791  12.582  1.7534  1.4400 -0.8400
17594TIP3    H274274   5.014   5.646  12.577 -0.3602  0.7946 -1.0740
17595TIP3   OH274275   2.313   2.275   3.997  0.0134  0.2571 -0.0586
17595TIP3    H174276   2.321   2.180   3.989  0.3860  0.2099  0.7810
17595TIP3    H274277   2.373   2.309   3.930  2.4917 -0.1274  1.8310
17596TIP3   OH274278   3.255   3.344  15.824  0.1902  0.3817 -0.3613
17596TIP3    H174279   3.260   3.323  15.918 -1.2886  3.3450  0.5056
17596TIP3    H274280   3.330   3.401  15.809 -0.7169  1.5737 -0.4536
17597TIP3   OH274281   5.885   4.137  16.268  0.5089  0.0031  0.3366
17597TIP3    H174282   5.790   4.145  16.256  0.2546 -0.6582  1.7019
17597TIP3    H274283   5.915   4.226  16.283  0.1939  0.2822 -0.6388
17598TIP3   OH274284   1.727   3.317   4.574  0.0048  0.4680 -0.5311
17598TIP3    H174285   1.715   3.356   4.660 -1.2721 -1.4622  0.2276
17598TIP3    H274286   1.802   3.364   4.537  0.8242  1.1083  1.7651
17599TIP3   OH274287   5.196   4.464   1.669 -0.3004  0.2617  0.6406
17599TIP3    H174288   5.289   4.471   1.692  0.2659  0.9281 -1.5852
17599TIP3    H274289   5.170   4.555   1.652 -1.2762  0.0316  0.8666
17600TIP3   OH274290   4.860   6.404   0.514 -0.1152 -0.1349  0.1329
17600TIP3    H174291   4.767   6.424   0.525 -0.0070  0.2586  0.3705
17600TIP3    H274292   4.904   6.488   0.529  0.3930 -0.6322  1.6763
17601TIP3   OH274293   2.504   6.020   2.379 -0.3970 -0.4845  0.0275
17601TIP3    H174294   2.537   5.930   2.384  1.5713  0.2488  1.8219
17601TIP3    H274295   2.582   6.072   2.363 -1.4630  0.9655 -0.6257
17602TIP3   OH274296   0.404   3.997   5.796 -0.3032 -0.0762  0.7863
17602TIP3    H174297   0.376   4.087   5.812 -0.8228 -0.3111  1.2250
17602TIP3    H274298   0.471   4.004   5.727 -0.5931  0.6062  0.5692
17603TIP3   OH274299   6.229   3.870  16.360 -0.2413 -0.3508 -1.0173
17603TIP3    H174300   6.200   3.807  16.294 -1.0663  0.5903 -1.5778
17603TIP3    H274301   6.209   3.828  16.444  0.0635 -1.2124 -1.3662
17604TIP3   OH274302   2.389   1.775   1.161  0.2908 -0.3646  0.6629
17604TIP3    H174303   2.395   1.860   1.117  1.0372 -0.9888 -0.5057
17604TIP3    H274304   2.295   1.762   1.174  0.0579  0.0153 -0.4692
17605TIP3   OH274305   1.446   6.360   3.762  0.4248 -0.1395 -0.8479
17605TIP3    H174306   1.369   6.414   3.779  0.2254 -0.5261 -0.5012
17605TIP3    H274307   1.520   6.414   3.790  0.2480  0.0757 -0.7923
17606TIP3   OH274308   6.524   6.419   4.656 -0.3537 -0.4158  0.1332
17606TIP3    H174309   6.469   6.340   4.649  1.8842 -2.3053  2.0532
17606TIP3    H274310   6.566   6.426   4.570  0.6789 -2.4133  0.3974
17607TIP3   OH274311   0.301   4.046   0.777 -0.1296 -0.0373 -0.2386
17607TIP3    H174312   0.213   4.067   0.744  0.7875  0.7100 -2.4889
17607TIP3    H274313   0.287   3.980   0.844 -2.4301  0.3790 -0.2085
17608TIP3   OH274314   3.132   5.628   5.039  0.0171 -0.8229 -0.3167
17608TIP3    H174315   3.093   5.705   4.998 -0.7035 -0.5020  0.9096
17608TIP3    H274316   3.208   5.607   4.985  0.1283  0.6451 -0.7571
17609TIP3   OH274317   6.730   1.886   0.014  0.0560 -0.1236 -0.4500
17609TIP3    H174318   6.731   1.978  -0.013 -2.3207 -0.1808 -0.9415
17609TIP3    H274319   6.775   1.840  -0.056 -0.4896  0.4725 -1.2224
17610TIP3   OH274320   0.334   4.679  10.705 -0.9658  0.0034  0.5504
17610TIP3    H174321   0.399   4.663  10.773 -1.5241 -2.0791  0.6614
17610TIP3    H274322   0.265   4.729  10.749 -1.1949 -1.0874  1.4868
17611TIP3   OH274323   4.338   5.478  12.702  0.8419 -0.2625 -0.6260
17611TIP3    H174324   4.359   5.524  12.621  0.9547  3.0831  1.0950
17611TIP3    H274325   4.422   5.469  12.748  0.6061 -0.8486 -0.3017
17612TIP3   OH274326   3.201   4.446   5.455  0.1721 -0.5785 -0.4501
17612TIP3    H174327   3.156   4.363   5.440 -0.5550 -0.4243  0.7868
17612TIP3    H274328   3.294   4.422   5.460  0.2667 -0.9363 -2.7094
17613TIP3   OH274329   2.754   5.682  12.740 -0.1847  0.1849  0.3524
17613TIP3    H174330   2.722   5.597  12.771 -1.1769  1.6180  3.6722
17613TIP3    H274331   2.686   5.712  12.680 -1.4527 -0.0753  1.5782
17614TIP3   OH274332   4.755   3.054  14.283 -0.4886  0.5866  0.2432
17614TIP3    H174333   4.838   3.019  14.315 -0.6143 -0.2586 -0.3250
17614TIP3    H274334   4.775   3.146  14.262  0.4402  0.2648 -0.3716
17615TIP3   OH274335   1.023   3.568   0.468 -0.4655  0.0796  0.0637
17615TIP3    H174336   0.945   3.552   0.522  0.4098  0.7022  1.5664
17615TIP3    H274337   1.061   3.648   0.504  1.3379 -0.6690 -0.0609
17616TIP3   OH274338   3.074   1.227   4.904 -0.2181  0.3664  0.2890
17616TIP3    H174339   3.089   1.171   4.828 -2.3328  0.4395 -0.2481
17616TIP3    H274340   3.150   1.284   4.908  0.0059  0.2712 -1.6911
17617TIP3   OH274341   4.388   1.439  15.551 -0.0951  0.3076 -0.1803
17617TIP3    H174342   4.361   1.352  15.581 -0.5045  1.2129  2.4051
17617TIP3    H274343   4.480   1.429  15.527  0.6830 -0.3842  2.6280
17618TIP3   OH274344   6.660   3.661  15.158 -0.1114  0.5836 -0.5621
17618TIP3    H174345   6.700   3.706  15.233 -0.6790  1.1049 -0.5710
17618TIP3    H274346   6.724   3.593  15.136  0.0510  0.3954  0.4129
17619TIP3   OH274347   0.701   6.423  14.590 -0.0328  0.4453 -0.1446
17619TIP3    H174348   0.786   6.382  14.608 -1.1309 -1.3430  1.4010
17619TIP3    H274349   0.720   6.517  14.582  2.2354 -0.0473 -1.1845
17620TIP3   OH274350   2.584   6.682   3.676 -0.0665  0.9209 -0.9114
17620TIP3    H174351   2.553   6.593   3.695 -0.6393  1.2967  0.0035
17620TIP3    H274352   2.618   6.677   3.587  1.4072 -0.5958 -0.3116
17621TIP3   OH274353   4.224   4.875   2.728  0.7923  0.7322  0.1846
17621TIP3    H174354   4.228   4.779   2.729  2.4974  0.7816  0.6520
17621TIP3    H274355   4.131   4.895   2.723  0.4234 -0.9524 -0.2463
17622TIP3   OH274356   4.931   6.351   4.821 -0.7538  0.1880  0.3192
17622TIP3    H174357   4.882   6.363   4.902 -0.8401  2.0860  0.0472
17622TIP3    H274358   4.969   6.264   4.828 -1.2502  0.0766  2.1219
17623TIP3   OH274359   1.386   4.695  13.764 -0.6842  0.6160  0.4120
17623TIP3    H174360   1.419   4.659  13.845  1.4713 -0.2773 -0.7861
17623TIP3    H274361   1.410   4.788  13.767  0.3166  0.3621  0.3513
17624TIP3   OH274362   6.540   3.963   0.810  0.1322 -0.0453  0.1282
17624TIP3    H174363   6.472   4.028   0.825 -1.5740 -1.4550 -0.9817
17624TIP3    H274364   6.509   3.915   0.733  2.8691 -0.1737 -0.9734
17625TIP3   OH274365   0.927   2.375   4.142  0.7502  0.3513  0.0677
17625TIP3    H174366   0.924   2.298   4.199 -2.4311 -0.6655 -1.2790
17625TIP3    H274367   0.926   2.339   4.053  1.8568  1.9531 -0.6463
17626TIP3   OH274368   2.502   4.602  16.295  0.1458 -0.7973 -0.6093
17626TIP3    H174369   2.455   4.596  16.379  1.6516 -0.5197  0.2854
17626TIP3    H274370   2.461   4.677  16.251  1.3128  1.0115  1.2145
17627TIP3   OH274371   6.751   3.512  14.499 -0.0616  0.4777  0.0850
17627TIP3    H174372   6.746   3.548  14.588 -0.9399 -0.6933  0.5258
17627TIP3    H274373   6.701   3.431  14.503  0.0699  0.2997 -1.4364
17628TIP3   OH274374   3.120   5.950  11.748 -0.0549 -0.0096 -0.2264
17628TIP3    H174375   3.114   6.042  11.774 -3.8495 -0.0149 -0.5015
17628TIP3    H274376   3.133   5.953  11.653  1.0454  0.1543 -0.0917
17629TIP3   OH274377   3.500   1.068  12.172 -0.0396 -0.4225 -0.2493
17629TIP3    H174378   3.421   1.098  12.127  0.3594  0.9260 -0.0726
17629TIP3    H274379   3.572   1.107  12.123  0.5465 -1.6530 -0.4148
17630TIP3   OH274380   6.086   5.649   2.139  0.3080 -0.4397  0.0256
17630TIP3    H174381   6.137   5.576   2.175  0.9977  0.1621  0.3185
17630TIP3    H274382   5.998   5.635   2.172 -0.1981 -2.4777 -1.9159
17631TIP3   OH274383   2.912   2.122   5.565  0.4858  0.3345  0.5020
17631TIP3    H174384   2.971   2.047   5.556 -1.7937 -1.6335  0.7550
17631TIP3    H274385   2.947   2.189   5.507 -0.2030 -2.8392 -4.0632
17632TIP3   OH274386   2.728   6.646  11.642 -0.0936 -0.2529  0.0464
17632TIP3    H174387   2.699   6.628  11.553  0.8690  1.2932 -0.6326
17632TIP3    H274388   2.679   6.724  11.668 -0.0465 -0.4380  0.7204
17633TIP3   OH274389   3.365   2.573   2.727 -0.4927  0.1337  0.1408
17633TIP3    H174390   3.335   2.549   2.815 -0.7278  1.5851  0.4763
17633TIP3    H274391   3.410   2.657   2.739  1.7591 -0.8698 -0.7180
17634TIP3   OH274392   3.083   0.947   5.002  0.3925  0.2677 -0.7475
17634TIP3    H174393   3.072   1.037   4.972  0.5400  1.4449  2.3731
17634TIP3    H274394   2.994   0.912   5.006  0.2533  0.5832 -1.0597
17635TIP3   OH274395   6.193   0.931   1.902  0.3475  0.3394  0.5128
17635TIP3    H174396   6.192   0.918   1.807 -1.3607 -2.6275  0.8371
17635TIP3    H274397   6.276   0.893   1.930  0.1647 -0.1739  0.3620
17636TIP3   OH274398   1.658   1.447  17.069 -0.3609  0.1413 -0.2635
17636TIP3    H174399   1.675   1.480  16.980  1.1624 -0.1124 -0.0804
17636TIP3    H274400   1.730   1.388  17.088 -1.7475 -1.4322  0.3872
17637TIP3   OH274401   1.285   2.433  17.007  0.0066  0.0669  0.9765
17637TIP3    H174402   1.321   2.518  16.981 -0.9000 -0.0060 -0.6493
17637TIP3    H274403   1.361   2.380  17.029  0.9146  0.1766 -1.5716
17638TIP3   OH274404   0.386   2.530  12.807 -0.4216  0.0407  0.5444
17638TIP3    H174405   0.408   2.446  12.767  0.6643 -0.3001  1.7811
17638TIP3    H274406   0.471   2.567  12.832 -0.9834  0.7171  1.5284
17639TIP3   OH274407   5.514   0.742   0.893 -0.9118  0.1047  0.4732
17639TIP3    H174408   5.565   0.677   0.845 -3.2048 -1.0826 -0.5206
17639TIP3    H274409   5.546   0.736   0.983  1.2439  0.0510 -0.2395
17640TIP3   OH274410   5.689   3.291   3.282  0.1235 -0.6340 -0.1227
17640TIP3    H174411   5.755   3.341   3.330  0.8770 -0.1542 -1.5726
17640TIP3    H274412   5.681   3.209   3.330  0.9167 -0.2242  0.7434
17641TIP3   OH274413   6.524   5.550  13.828 -0.8933 -0.0099 -0.6345
17641TIP3    H174414   6.469   5.472  13.819 -0.9785 -0.2332  1.3635
17641TIP3    H274415   6.466   5.616  13.865 -0.0063 -0.0915  0.9974
17642TIP3   OH274416   6.287   3.463   1.574  0.4674 -0.8182  0.1276
17642TIP3    H174417   6.247   3.392   1.624  0.5956 -0.1285  1.2366
17642TIP3    H274418   6.363   3.423   1.530  0.5701 -1.3517  0.7904
17643TIP3   OH274419   4.697   1.320   1.004 -0.1607 -0.7887 -0.1272
17643TIP3    H174420   4.718   1.246   1.061  0.4139 -2.6062 -2.5232
17643TIP3    H274421   4.622   1.290   0.952  0.9543 -0.3274 -2.1241
17644TIP3   OH274422   6.224   3.983  14.615  0.2595  0.0187  0.2131
17644TIP3    H174423   6.304   4.023  14.648  0.3410 -0.6135  0.7815
17644TIP3    H274424   6.169   3.970  14.693 -0.0839 -0.2594 -0.0699
17645TIP3   OH274425   2.230   3.047   2.021  0.8380  0.3126 -0.4272
17645TIP3    H174426   2.155   3.098   2.054 -0.3377 -1.1024 -0.7922
17645TIP3    H274427   2.307   3.093   2.054 -0.2114  1.3194  0.7263
17646TIP3   OH274428   4.316   5.516   0.673  0.7573  0.0752  0.1157
17646TIP3    H174429   4.279   5.441   0.719 -1.9724  1.8370  1.1331
17646TIP3    H274430   4.275   5.514   0.587 -1.3563  1.6074  0.9806
17647TIP3   OH274431   2.001   5.260  16.958 -1.0501  0.2981  0.1529
17647TIP3    H174432   2.053   5.331  16.995 -0.8723 -0.0615  0.6047
17647TIP3    H274433   1.980   5.204  17.033 -1.7909  0.2497 -0.0809
17648TIP3   OH274434   2.467   6.124  17.166  0.5853  0.2057 -0.0801
17648TIP3    H174435   2.518   6.091  17.092 -0.0697 -0.5643 -0.1996
17648TIP3    H274436   2.377   6.098  17.146  0.4443 -0.2811  1.1290
17649TIP3   OH274437   3.090   1.097  16.460  0.0744 -0.4147 -0.4211
17649TIP3    H174438   3.154   1.130  16.397  0.0302 -1.2617 -0.9221
17649TIP3    H274439   3.009   1.087  16.409 -0.4404  0.5202  0.1730
17650TIP3   OH274440   0.849   2.284   3.885  0.0890 -0.0754 -0.3934
17650TIP3    H174441   0.901   2.337   3.826 -0.7959  3.6154  1.8272
17650TIP3    H274442   0.758   2.308   3.867 -0.2910 -0.0084  1.3723
17651TIP3   OH274443   0.749   5.747  15.776 -0.2945 -0.6069  0.3567
17651TIP3    H174444   0.797   5.790  15.847  0.2567 -1.2396  0.3739
17651TIP3    H274445   0.796   5.665  15.761  0.5954  0.2545 -1.8665
17652TIP3   OH274446   1.678   4.323   5.059 -0.1767 -0.0914 -0.1566
17652TIP3    H174447   1.696   4.295   5.149  0.6661 -1.1502 -0.6382
17652TIP3    H274448   1.759   4.365   5.030 -0.5921  0.6304 -0.2886
17653TIP3   OH274449   4.779   6.522   4.673  0.9365  0.0688 -0.0520
17653TIP3    H174450   4.836   6.457   4.713  1.6661  1.3217  1.0224
17653TIP3    H274451   4.804   6.605   4.714 -0.7659  0.8601 -0.5149
17654TIP3   OH274452   4.150   2.901   2.330  0.0639  0.3529  0.2665
17654TIP3    H174453   4.192   2.896   2.244 -0.0109  0.6050  0.2131
17654TIP3    H274454   4.221   2.884   2.393 -0.3143 -2.2880  0.1130
17655TIP3   OH274455   1.803   6.483  12.959  0.0216 -0.8091 -0.7806
17655TIP3    H174456   1.739   6.413  12.972 -1.3746  0.0148 -2.6273
17655TIP3    H274457   1.767   6.557  13.007 -0.3879 -0.3777 -1.7274
17656TIP3   OH274458   4.047   6.228   3.710 -0.9035 -0.2702  0.1784
17656TIP3    H174459   4.125   6.225   3.654 -1.7829 -1.8459 -1.0559
17656TIP3    H274460   4.077   6.267   3.792  0.8841  0.3144 -0.7057
17657TIP3   OH274461   3.413   1.427  15.840 -0.0411  0.0151 -0.3714
17657TIP3    H174462   3.485   1.450  15.898  1.2595 -0.7268 -1.6202
17657TIP3    H274463   3.370   1.353  15.882 -0.4899  0.8399  0.6804
17658TIP3   OH274464   5.962   1.124  16.536  0.3205 -0.2939  0.1130
17658TIP3    H174465   5.910   1.066  16.591 -0.0959  0.0522  0.0866
17658TIP3    H274466   6.025   1.066  16.494  0.8527 -0.5260  1.1822
17659TIP3   OH274467   0.152   3.376   4.692  0.1911  0.2368  0.1729
17659TIP3    H174468   0.139   3.462   4.651 -1.0233 -0.4976 -1.0751
17659TIP3    H274469   0.178   3.396   4.782 -0.5375  1.9214  0.0556
17660TIP3   OH274470   6.557   3.394   4.442  0.3339 -0.1394  0.3268
17660TIP3    H174471   6.538   3.459   4.375  0.6494  2.1684  2.3342
17660TIP3    H274472   6.626   3.339   4.404  0.1385  0.7324 -1.3983
17661TIP3   OH274473   6.082   6.723   1.052 -0.3493 -0.2654  0.4691
17661TIP3    H174474   6.098   6.772   0.971  0.6632 -0.6244  0.4343
17661TIP3    H274475   6.108   6.633   1.030  0.9816 -0.1640  1.4873
17662TIP3   OH274476   3.909   5.030  12.741  0.1039  0.1755 -0.1926
17662TIP3    H174477   3.923   5.041  12.835 -2.4345  2.0682  0.0734
17662TIP3    H274478   3.857   5.106  12.715  1.4767  0.1832 -3.3506
17663TIP3   OH274479   6.335   6.571  11.210  0.5068  0.3033  0.1245
17663TIP3    H174480   6.305   6.577  11.119  0.5682  1.9235  0.1730
17663TIP3    H274481   6.383   6.489  11.214 -0.9704 -0.6524 -0.8524
17664TIP3   OH274482   4.275   3.184   4.655 -0.1373 -0.0760 -0.1228
17664TIP3    H174483   4.316   3.178   4.569 -0.1470  0.2823 -0.1542
17664TIP3    H274484   4.286   3.097   4.693  2.2986  0.4875  0.6333
17665TIP3   OH274485   0.455   3.081  12.813  0.1808  0.0058  0.4224
17665TIP3    H174486   0.433   3.128  12.733  1.7629  0.5154  0.2363
17665TIP3    H274487   0.534   3.031  12.790 -0.8687 -1.9973  0.9098
17666TIP3   OH274488   4.936   1.070  15.109  0.5746 -0.2240 -0.4502
17666TIP3    H174489   5.032   1.065  15.107  0.6221  0.3841  0.0438
17666TIP3    H274490   4.917   1.163  15.117 -0.1136 -0.1121 -2.6857
17667TIP3   OH274491   2.573   5.242  14.246 -0.3564  0.0993 -0.8701
17667TIP3    H174492   2.523   5.271  14.322  2.2213 -0.0526  1.0208
17667TIP3    H274493   2.536   5.157  14.223  0.6088 -1.2799  2.1647
17668TIP3   OH274494   3.248   1.399  12.873  0.0010 -0.1422  0.3683
17668TIP3    H174495   3.338   1.372  12.894  0.6444  1.1706 -0.5069
17668TIP3    H274496   3.257   1.490  12.845 -1.8223  0.4642  1.6003
17669TIP3   OH274497   3.255   4.964  13.971 -0.4183 -0.2531 -0.4562
17669TIP3    H174498   3.327   4.903  13.988  1.6741  2.0230 -0.6338
17669TIP3    H274499   3.176   4.909  13.976  1.3304 -3.1539 -1.5613
17670TIP3   OH274500   1.089   0.337  13.261 -0.0577 -0.1713  0.5225
17670TIP3    H174501   1.165   0.310  13.312  0.3038  1.4574  0.9114
17670TIP3    H274502   1.015   0.295  13.304  0.1305  1.8503  3.0482
17671TIP3   OH274503   1.645   5.782  13.971  0.0212  0.4320  0.2153
17671TIP3    H174504   1.686   5.748  14.051 -2.9335 -1.0979  1.2473
17671TIP3    H274505   1.569   5.831  14.003  0.3331  2.2022 -1.6010
17672TIP3   OH274506   5.213   5.279   3.784  0.1434 -0.7384 -0.4196
17672TIP3    H174507   5.273   5.225   3.835 -1.7111 -2.7144 -0.1818
17672TIP3    H274508   5.159   5.216   3.736 -1.8155  0.9220 -0.5351
17673TIP3   OH274509   0.163   5.198   3.344 -0.6011  0.3320  0.4513
17673TIP3    H174510   0.137   5.141   3.417  1.2575  0.8451  1.5948
17673TIP3    H274511   0.257   5.182   3.334 -0.9463 -0.3762 -2.4996
17674TIP3   OH274512   6.249   0.459   4.985  0.7361  0.7187  0.2425
17674TIP3    H174513   6.342   0.438   4.993  0.6722 -0.8553 -2.0355
17674TIP3    H274514   6.234   0.463   4.890 -2.0790 -2.0970  0.4192
17675TIP3   OH274515   0.218   0.045   0.746 -0.2716  0.0745  0.1469
17675TIP3    H174516   0.181   0.060   0.833 -0.9627  1.0459 -0.2933
17675TIP3    H274517   0.142   0.038   0.688  0.1559  2.7726 -0.8856
17676TIP3   OH274518   1.529   2.197  15.157 -0.5243  0.1208  0.0315
17676TIP3    H174519   1.452   2.240  15.195 -0.4457  1.8937 -1.6853
17676TIP3    H274520   1.599   2.213  15.221 -1.2131 -0.1768  0.8757
17677TIP3   OH274521   3.578   6.410  13.965 -0.0943 -0.1510 -0.1634
17677TIP3    H174522   3.589   6.315  13.964 -0.3689 -0.1782 -0.7772
17677TIP3    H274523   3.594   6.438  13.875  0.5797  0.4614  0.1341
17678TIP3   OH274524   0.400   6.075  13.654  0.4224 -0.4510 -0.2570
17678TIP3    H174525   0.496   6.073  13.647  0.3861 -1.2301 -0.6657
17678TIP3    H274526   0.370   6.026  13.578 -0.3659  1.1464 -1.0255
17679TIP3   OH274527   0.650   1.895   0.739 -0.0745  0.3099 -0.3866
17679TIP3    H174528   0.569   1.941   0.716 -0.1154  0.3037 -0.2534
17679TIP3    H274529   0.706   1.962   0.778 -0.5241  0.0398  0.7657
17680TIP3   OH274530   4.534   0.331  17.103  0.2905 -0.0308 -0.4070
17680TIP3    H174531   4.457   0.277  17.090  1.0895 -0.8546 -2.0387
17680TIP3    H274532   4.530   0.397  17.034  0.9633  0.0157 -0.4084
17681TIP3   OH274533   0.770   1.117   3.614 -0.1081 -1.1812  0.6267
17681TIP3    H174534   0.745   1.108   3.522  0.2927  0.4039  0.3237
17681TIP3    H274535   0.688   1.140   3.658  0.2541  1.7177  0.0094
17682TIP3   OH274536   5.426   5.871  14.346 -0.5049 -0.0784  0.2349
17682TIP3    H174537   5.340   5.834  14.325  0.6819 -2.2619 -1.2210
17682TIP3    H274538   5.413   5.966  14.341 -2.8376 -0.3395  0.1852
17683TIP3   OH274539   0.255   4.939   4.959 -0.3429 -0.0159  0.0841
17683TIP3    H174540   0.211   4.865   5.001 -2.6667  1.2455  0.0670
17683TIP3    H274541   0.278   4.998   5.031 -0.1942  0.0929 -0.0509
17684TIP3   OH274542   2.147   2.302   2.546  0.1508 -0.0721  0.2078
17684TIP3    H174543   2.176   2.235   2.607 -0.3710 -0.9662 -0.4908
17684TIP3    H274544   2.062   2.331   2.579 -1.1928 -2.1293 -1.2015
17685TIP3   OH274545   5.509   5.201  16.266  0.4071 -0.0288  0.1482
17685TIP3    H174546   5.437   5.173  16.209  1.8644 -1.0112 -1.3158
17685TIP3    H274547   5.520   5.294  16.246 -1.9002  0.7854  2.1269
17686TIP3   OH274548   2.616   3.832  15.288  0.0564 -0.1427  0.7174
17686TIP3    H174549   2.642   3.773  15.359  1.7998  0.6220  0.7727
17686TIP3    H274550   2.698   3.870  15.257 -0.4866 -1.2978 -2.5308
17687TIP3   OH274551   0.134   0.757  14.786  0.7265  0.4030  0.7702
17687TIP3    H174552   0.178   0.677  14.815 -0.2657  0.0172  1.2678
17687TIP3    H274553   0.076   0.779  14.859 -0.8185  0.1914 -0.3602
17688TIP3   OH274554   2.480   5.768   1.500  0.0127  0.1630  0.0256
17688TIP3    H174555   2.389   5.764   1.470 -0.0174  0.5301  0.0734
17688TIP3    H274556   2.515   5.847   1.461  0.4767 -0.2634 -0.4443
17689TIP3   OH274557   4.897   3.796  15.643 -0.3341  0.1120  0.2592
17689TIP3    H174558   4.967   3.861  15.634  0.7437 -1.1516 -0.9567
17689TIP3    H274559   4.857   3.815  15.728  0.8303  1.4912  0.5376
17690TIP3   OH274560   4.960   6.443  17.361  0.1119  0.6870  0.0152
17690TIP3    H174561   4.934   6.467  17.450  0.7247 -0.3430  0.4944
17690TIP3    H274562   5.054   6.458  17.359 -0.2267  3.1673 -1.3058
17691TIP3   OH274563   3.223   0.708   0.392  0.3841  0.0262 -0.3485
17691TIP3    H174564   3.290   0.682   0.329  1.4225 -0.4767  0.9320
17691TIP3    H274565   3.253   0.674   0.476 -1.2863  0.1219  0.3397
17692TIP3   OH274566   0.755   5.751   1.510 -0.1859 -0.5870  0.4002
17692TIP3    H174567   0.671   5.708   1.527  0.2914 -1.3947  0.7830
17692TIP3    H274568   0.818   5.703   1.565  0.0590  1.8951  2.4634
17693TIP3   OH274569   5.994   3.259   5.278 -0.0499  0.1620  0.5679
17693TIP3    H174570   6.006   3.250   5.183  2.9876 -3.8886  1.0543
17693TIP3    H274571   6.077   3.296   5.309  0.2460 -1.3933  1.7951
17694TIP3   OH274572   4.547   2.718  13.377  0.3266 -0.3082 -0.0692
17694TIP3    H174573   4.463   2.759  13.356  0.5116 -0.6494 -1.5460
17694TIP3    H274574   4.524   2.650  13.441 -0.5358 -0.4429 -0.5021
17695TIP3   OH274575   2.970   3.142  17.138  0.3922 -0.5087 -0.2909
17695TIP3    H174576   2.951   3.235  17.123 -1.9811 -0.6944  1.0412
17695TIP3    H274577   2.914   3.097  17.075  0.8211 -1.0564 -0.2802
17696TIP3   OH274578   1.911   6.091  12.000  0.4320 -0.0946  0.0408
17696TIP3    H174579   1.965   6.151  11.949  2.7112 -1.5452  0.6137
17696TIP3    H274580   1.935   6.004  11.968 -0.9614 -0.8456  0.9181
17697TIP3   OH274581   2.384   0.304  10.539  0.4221  0.3272  0.3706
17697TIP3    H174582   2.403   0.381  10.486  1.8464 -1.0861 -1.2959
17697TIP3    H274583   2.328   0.250  10.484  1.3930 -0.8815  0.5346
17698TIP3   OH274584   4.600   2.136   1.588  0.1431 -0.2760 -0.0417
17698TIP3    H174585   4.511   2.102   1.593  0.5639 -1.4427  0.0757
17698TIP3    H274586   4.654   2.058   1.570  1.0492  0.5282 -0.9087
17699TIP3   OH274587   1.121   5.359   1.635 -0.3717 -0.2426  0.3043
17699TIP3    H174588   1.097   5.267   1.649 -0.4076 -0.3197 -0.2355
17699TIP3    H274589   1.200   5.355   1.581 -1.2866  0.0503 -1.1070
17700TIP3   OH274590   2.708   3.843   3.966 -0.4137 -0.2964  0.3235
17700TIP3    H174591   2.730   3.755   3.997 -1.1648 -0.8778 -0.7125
17700TIP3    H274592   2.755   3.902   4.025  0.7180 -1.4003  0.5716
17701TIP3   OH274593   3.352   0.433  12.492 -0.8706  0.3546 -0.1136
17701TIP3    H174594   3.378   0.390  12.410  1.2503  0.6751  0.3357
17701TIP3    H274595   3.420   0.409  12.554 -3.4063 -1.4658  2.1782
17702TIP3   OH274596   5.855   6.160   4.893  0.5277 -0.1613  0.7298
17702TIP3    H174597   5.868   6.136   4.985  1.4638  2.1674  1.2791
17702TIP3    H274598   5.829   6.253   4.896  0.9925  0.0923 -1.3755
17703TIP3   OH274599   0.129   0.578  16.600  0.3693  0.2071  0.0088
17703TIP3    H174600   0.100   0.566  16.510  1.4496 -1.3895 -0.1727
17703TIP3    H274601   0.217   0.540  16.602  0.3240  0.1244  1.7646
17704TIP3   OH274602   4.169   6.781   0.801 -0.5665  0.3096  0.6907
17704TIP3    H174603   4.250   6.813   0.842  0.7665 -0.1708 -1.4388
17704TIP3    H274604   4.111   6.857   0.802  1.3878  1.9911 -1.3839
17705TIP3   OH274605   2.139   3.369  14.874  0.4753  0.5698 -0.4886
17705TIP3    H174606   2.206   3.410  14.929  1.1364 -0.4499 -0.4928
17705TIP3    H274607   2.066   3.431  14.874  0.5630  0.7383  1.3174
17706TIP3   OH274608   4.668   2.568  14.248 -0.9079  0.2327 -0.5828
17706TIP3    H174609   4.690   2.586  14.157 -0.2846 -1.0949 -0.7210
17706TIP3    H274610   4.750   2.584  14.296 -1.1732  0.7084 -0.2704
17707TIP3   OH274611   4.084   2.504   5.813  0.1399 -0.1525 -0.0711
17707TIP3    H174612   4.097   2.539   5.901  0.4987 -0.5196  0.0244
17707TIP3    H274613   4.068   2.581   5.758 -0.5823  0.0398  0.3989
17708TIP3   OH274614   0.164   1.604   1.204  0.0751 -0.2717  0.1063
17708TIP3    H174615   0.150   1.699   1.198  0.7585 -0.0705  1.3404
17708TIP3    H274616   0.080   1.570   1.236 -0.0725 -0.0439 -0.0326
17709TIP3   OH274617   4.706   3.136   3.134  0.0006 -0.6584  0.5067
17709TIP3    H174618   4.781   3.170   3.085  0.3888 -3.9056 -1.3762
17709TIP3    H274619   4.630   3.163   3.084  0.1938 -1.1325 -0.0439
17710TIP3   OH274620   1.120   3.180  16.310 -0.0288  0.1284  0.4270
17710TIP3    H174621   1.158   3.103  16.352  1.1501  0.3716 -0.1754
17710TIP3    H274622   1.188   3.247  16.313 -0.6838  0.8373  0.0518
17711TIP3   OH274623   1.511   4.640   0.918 -0.1223  0.2606 -0.2402
17711TIP3    H174624   1.431   4.588   0.920  1.2465 -2.0439 -1.8707
17711TIP3    H274625   1.509   4.685   0.834  0.2198  0.3794 -0.1875
17712TIP3   OH274626   0.045   4.126   1.453  0.2523 -0.3255  0.6955
17712TIP3    H174627  -0.046   4.120   1.483  0.1216 -2.9459 -0.0421
17712TIP3    H274628   0.093   4.066   1.510  1.5908  1.1318  1.1659
17713TIP3   OH274629   6.068   2.215   4.788 -0.5397 -0.0394 -0.7007
17713TIP3    H174630   6.118   2.181   4.714  1.6353  1.0423  0.1643
17713TIP3    H274631   6.116   2.183   4.865 -1.8695  0.1134  0.2183
17714TIP3   OH274632   4.515   6.785   1.818  0.1048  0.1235  0.3223
17714TIP3    H174633   4.430   6.775   1.859 -0.8581  0.3147 -1.5171
17714TIP3    H274634   4.557   6.699   1.828  0.4864  0.5360  2.7968
17715TIP3   OH274635   2.881   5.729  17.310 -0.1021 -0.3179 -0.4287
17715TIP3    H174636   2.961   5.677  17.315  0.1349 -0.3374 -3.0408
17715TIP3    H274637   2.884   5.786  17.386  1.0038 -2.1791  1.0116
17716TIP3   OH274638   6.780   1.058  13.208 -0.0462 -0.2238  0.6831
17716TIP3    H174639   6.828   0.978  13.230  0.6947  0.2470  0.8225
17716TIP3    H274640   6.833   1.128  13.244 -1.8124  0.2353  2.5267
17717TIP3   OH274641   5.419   0.351   2.280  0.2238 -0.2507  0.0929
17717TIP3    H174642   5.406   0.425   2.339 -0.9711  1.6286 -2.3411
17717TIP3    H274643   5.350   0.288   2.304  0.1518  0.1849  1.0655
17718TIP3   OH274644   1.448   5.348   1.332  0.0022  0.3821  0.2922
17718TIP3    H174645   1.460   5.254   1.335 -1.7364  0.1341  2.0826
17718TIP3    H274646   1.536   5.384   1.317  1.1550 -1.4460  2.1480
17719TIP3   OH274647   3.724   6.056  15.537  0.8068 -0.7339  0.1099
17719TIP3    H174648   3.747   6.002  15.613 -1.3751 -0.3319  1.1406
17719TIP3    H274649   3.792   6.124  15.535  0.8323 -0.6474  1.8456
17720TIP3   OH274650   4.632   0.891   3.911  0.2772  0.2474 -0.2082
17720TIP3    H174651   4.542   0.895   3.942  0.2735  1.3145 -0.3240
17720TIP3    H274652   4.658   0.800   3.925 -0.8674 -0.1145 -0.3336
17721TIP3   OH274653   0.012   5.757   2.097  0.5036 -0.7266  0.2104
17721TIP3    H174654   0.061   5.676   2.079  0.7665 -0.8670  1.4659
17721TIP3    H274655  -0.054   5.730   2.161  0.0997 -0.0954  0.0618
17722TIP3   OH274656   4.655   0.282  16.578 -0.6428  0.4530 -0.1978
17722TIP3    H174657   4.659   0.191  16.607  3.2278  0.5293  0.0758
17722TIP3    H274658   4.688   0.280  16.488  0.1631  1.6015  0.0391
17723TIP3   OH274659   4.484   1.959   3.112  0.3617 -0.3016  0.3741
17723TIP3    H174660   4.546   2.032   3.118  0.6093 -0.5295  0.6439
17723TIP3    H274661   4.444   1.968   3.026  0.5195  0.0499  0.3353
17724TIP3   OH274662   4.277   1.799   4.382  0.3751 -1.0916 -0.1195
17724TIP3    H174663   4.196   1.752   4.362 -0.7081 -0.8441  3.0719
17724TIP3    H274664   4.330   1.735   4.429  1.9578 -1.1338 -1.8537
17725TIP3   OH274665   0.874   2.528   5.281  0.3355 -0.3166 -0.4064
17725TIP3    H174666   0.856   2.446   5.235 -0.1722 -1.2987  1.4410
17725TIP3    H274667   0.845   2.597   5.221  1.6948 -1.4159 -2.4175
17726TIP3   OH274668   4.437   3.109   2.259  0.3183  0.0270  0.3850
17726TIP3    H174669   4.352   3.140   2.290  0.8096 -0.8163  2.7497
17726TIP3    H274670   4.493   3.187   2.262 -0.3830  0.6438 -1.4324
17727TIP3   OH274671   1.323   3.764   1.094 -0.4128 -0.5786 -0.1596
17727TIP3    H174672   1.303   3.674   1.069 -0.2991 -0.5540 -0.3402
17727TIP3    H274673   1.270   3.779   1.172 -1.0494 -0.5322 -0.5937
17728TIP3   OH274674   6.245   0.028   4.364  0.9368  0.6179 -0.3522
17728TIP3    H174675   6.329   0.005   4.402 -0.7515 -1.4608  2.5110
17728TIP3    H274676   6.189  -0.048   4.380 -1.3081  1.5286 -2.9460
17729TIP3   OH274677   5.164   0.864  14.938  0.0043 -0.7565  0.1932
17729TIP3    H174678   5.142   0.894  14.850  1.6189 -0.0532 -0.0071
17729TIP3    H274679   5.161   0.943  14.992  0.0136 -1.0075  0.5631
17730TIP3   OH274680   3.453   2.057   4.865 -0.0306 -0.5553  0.5690
17730TIP3    H174681   3.371   2.053   4.816  0.8099  0.8141 -1.0611
17730TIP3    H274682   3.429   2.095   4.950 -1.3799 -2.1646  0.9561
17731TIP3   OH274683   6.248   4.764  14.697  0.4940  0.4707  0.0898
17731TIP3    H174684   6.318   4.724  14.749  0.9485  1.5976  0.3641
17731TIP3    H274685   6.283   4.768  14.609  0.1037 -0.5347 -0.1216
17732TIP3   OH274686   2.861   5.124   2.554  0.0283  1.0707  0.1341
17732TIP3    H174687   2.938   5.090   2.508 -0.5289 -1.1712  0.7741
17732TIP3    H274688   2.792   5.061   2.536 -0.3135  0.2077  3.6897
17733TIP3   OH274689   2.830   3.239   0.551  0.2258 -0.4257  0.7302
17733TIP3    H174690   2.863   3.325   0.525 -3.5137  1.3491  1.2075
17733TIP3    H274691   2.891   3.210   0.619  3.4635  0.1930 -1.6513
17734TIP3   OH274692   0.887   5.432  11.736  0.4468  0.2247  0.3352
17734TIP3    H174693   0.874   5.493  11.664  0.7661 -0.0003  0.0816
17734TIP3    H274694   0.887   5.346  11.694  0.2067  0.0660  0.6594
17735TIP3   OH274695   0.581   4.158  16.400  0.1071  0.5686  0.1320
17735TIP3    H174696   0.577   4.114  16.485 -1.5550  0.3621 -0.0274
17735TIP3    H274697   0.511   4.223  16.402 -1.0008 -0.4587 -1.5873
17736TIP3   OH274698   1.260   3.968   5.188 -0.0017  0.1405  0.3177
17736TIP3    H174699   1.204   3.983   5.112  0.3000  0.3323  0.1349
17736TIP3    H274700   1.346   4.000   5.162  0.2407 -0.3259  0.5351
17737TIP3   OH274701   6.167   0.564   0.344 -0.1239  0.1649 -0.0562
17737TIP3    H174702   6.258   0.567   0.314  0.0705 -0.3337  0.4748
17737TIP3    H274703   6.155   0.647   0.391 -0.2200  0.6326 -0.8747
17738TIP3   OH274704   5.891   0.479  16.310 -0.5549 -0.3880  0.4054
17738TIP3    H174705   5.887   0.385  16.329  2.5395 -0.8299 -0.5906
17738TIP3    H274706   5.916   0.519  16.393 -0.9559 -0.5414  0.6055
17739TIP3   OH274707   6.773   3.389   1.019  0.7008  0.2451 -0.3602
17739TIP3    H174708   6.701   3.382   1.083  1.4628  0.3262  0.5304
17739TIP3    H274709   6.748   3.329   0.949  0.0937 -0.2646  0.2719
17740TIP3   OH274710   3.875   1.664   4.179  0.2950 -0.4342 -0.3698
17740TIP3    H174711   3.898   1.741   4.231  1.1312 -0.6626 -0.3957
17740TIP3    H274712   3.859   1.697   4.091  0.3892 -0.2620 -0.3211
17741TIP3   OH274713   0.321   4.866  11.316 -0.7115 -0.0549  0.3933
17741TIP3    H174714   0.335   4.846  11.224 -0.8643  0.0888  0.3391
17741TIP3    H274715   0.371   4.800  11.363 -0.2526  0.1544  0.2016
17742TIP3   OH274716   5.162   4.083  11.944 -0.7760  0.1504 -0.2205
17742TIP3    H174717   5.222   4.068  11.871  1.7834 -0.0993  1.7774
17742TIP3    H274718   5.135   4.174  11.936 -1.5363 -0.1999 -2.0967
17743TIP3   OH274719   2.320   3.470   6.139  0.1393 -0.4327 -0.2886
17743TIP3    H174720   2.238   3.443   6.178 -1.3261  0.1540 -2.7220
17743TIP3    H274721   2.305   3.561   6.112  0.4983 -1.1691 -3.3115
17744TIP3   OH274722   3.536   0.404  14.046  0.2969  0.0394 -0.4401
17744TIP3    H174723   3.474   0.364  14.107 -1.2153  2.3761 -0.3212
17744TIP3    H274724   3.512   0.367  13.961  1.0214 -1.6235  0.0387
17745TIP3   OH274725   2.838   4.719  13.554  0.0512 -0.4852 -0.4495
17745TIP3    H174726   2.896   4.655  13.513  2.0370  1.4724 -0.9222
17745TIP3    H274727   2.776   4.743  13.485  0.0727 -0.9962 -0.6517
17746TIP3   OH274728   6.745   2.248   4.662 -0.2895 -0.2409 -0.0617
17746TIP3    H174729   6.758   2.285   4.749  0.1688  0.5123 -0.4390
17746TIP3    H274730   6.834   2.238   4.626 -0.4160 -1.4584 -0.0784
17747TIP3   OH274731   4.572   3.385   4.239  0.3438 -0.0022  0.0230
17747TIP3    H174732   4.572   3.293   4.213 -1.3794  0.0344 -0.1940
17747TIP3    H274733   4.572   3.434   4.157 -0.4697  0.1685  0.1234
17748TIP3   OH274734   2.880   2.701  12.651 -0.4710 -0.3428 -0.6786
17748TIP3    H174735   2.821   2.702  12.726 -0.4696 -2.3158 -0.5993
17748TIP3    H274736   2.964   2.731  12.687 -1.3039  2.2869 -0.7541
17749TIP3   OH274737   5.881   6.300  11.310 -0.9336  0.2255 -0.5294
17749TIP3    H174738   5.905   6.366  11.374  0.2493 -0.3923 -0.3059
17749TIP3    H274739   5.802   6.334  11.268 -1.3413  0.9544  0.7754
17750TIP3   OH274740   0.538   1.648  16.519  0.3767  0.1967  0.4019
17750TIP3    H174741   0.479   1.710  16.561 -0.2783 -0.6496  0.7506
17750TIP3    H274742   0.591   1.703  16.460 -0.7808  0.9766  0.0311
17751TIP3   OH274743   3.850   6.434   1.535  0.5182 -0.2522  0.0955
17751TIP3    H174744   3.887   6.364   1.482 -1.2554 -1.6950  0.6588
17751TIP3    H274745   3.758   6.439   1.508 -0.4695 -1.0592  2.9359
17752TIP3   OH274746   4.217   1.719  13.735 -0.2622 -0.0493  0.2049
17752TIP3    H174747   4.180   1.645  13.783  0.6669  0.4802  1.8414
17752TIP3    H274748   4.143   1.779  13.724 -0.7638 -0.7124 -0.1288
17753TIP3   OH274749   3.066   6.712   3.966 -0.2930 -0.2851  0.7062
17753TIP3    H174750   2.992   6.688   4.020  1.2949 -0.9546  2.7092
17753TIP3    H274751   3.094   6.798   4.000 -1.0659  0.7304 -1.0878
17754TIP3   OH274752   1.654   4.877   0.386 -0.6940 -0.2325 -0.2340
17754TIP3    H174753   1.588   4.946   0.383  0.7562  1.3086  0.9276
17754TIP3    H274754   1.726   4.915   0.437  1.9115 -1.0739 -2.9391
17755TIP3   OH274755   6.497   3.071   2.484  0.4142  0.4479  0.0682
17755TIP3    H174756   6.518   3.017   2.560  1.3511  2.0107  0.9668
17755TIP3    H274757   6.582   3.085   2.441  0.2564  1.5206  0.0835
17756TIP3   OH274758   0.601   3.809   6.034 -0.1647  0.2195 -0.6694
17756TIP3    H174759   0.522   3.786   6.084  0.5236  0.2363  0.4829
17756TIP3    H274760   0.579   3.791   5.943 -1.0563 -1.0347 -0.2304
17757TIP3   OH274761   6.450   6.395  17.243  0.2977  0.1304  0.8252
17757TIP3    H174762   6.362   6.396  17.279 -0.5057 -1.5680 -0.9414
17757TIP3    H274763   6.459   6.478  17.197 -0.5806  0.1029  0.6027
17758TIP3   OH274764   0.179   4.193  16.570  0.4665 -0.2570 -0.0038
17758TIP3    H174765   0.220   4.264  16.520  3.3560  0.4007  2.9161
17758TIP3    H274766   0.243   4.122  16.566 -0.4994 -1.1779  0.5348
17759TIP3   OH274767   6.233   3.474  16.693  0.4344 -0.0142 -0.5653
17759TIP3    H174768   6.184   3.413  16.748  1.4095  0.0467  0.4099
17759TIP3    H274769   6.192   3.467  16.607 -1.7484  0.5799  0.3626
17760TIP3   OH274770   1.083   6.193   1.769 -0.2594 -0.1465  0.0291
17760TIP3    H174771   1.140   6.214   1.844  1.1793 -0.1224 -1.0271
17760TIP3    H274772   1.115   6.109   1.738  0.0617  0.4690 -1.3735
17761TIP3   OH274773   1.809   4.536   3.261 -0.4272  0.3342  0.4306
17761TIP3    H174774   1.786   4.465   3.321 -0.9805  0.3529  0.2481
17761TIP3    H274775   1.732   4.593   3.261 -0.3510  0.4436 -0.1362
17762TIP3   OH274776   4.773   6.124   0.078  0.1862 -0.8980  0.2225
17762TIP3    H174777   4.864   6.147   0.059 -0.2398 -0.6602 -1.6665
17762TIP3    H274778   4.732   6.112  -0.007 -1.0036 -3.2805  1.0397
17763TIP3   OH274779   6.699   5.841  16.688  0.3580  0.2584  0.0637
17763TIP3    H174780   6.711   5.771  16.624 -2.9397  0.1838 -0.5997
17763TIP3    H274781   6.668   5.796  16.767  2.1187  0.6219  1.0372
17764TIP3   OH274782   4.423   5.699  13.730 -0.2418  0.5161  0.5439
17764TIP3    H174783   4.349   5.695  13.669  0.8469  1.5935 -0.9210
17764TIP3    H274784   4.459   5.611  13.732 -0.9826  0.2078  0.5387
17765TIP3   OH274785   2.909   6.009   2.030 -0.6996  0.0568 -0.1989
17765TIP3    H174786   2.854   6.055   1.966 -1.2363 -1.6102 -1.0089
17765TIP3    H274787   2.846   5.968   2.089 -0.2148  1.0331  1.0227
17766TIP3   OH274788   0.147   0.803  16.753 -0.2710 -0.3747  0.2847
17766TIP3    H174789   0.240   0.826  16.759 -0.8121  2.5367 -0.9129
17766TIP3    H274790   0.146   0.723  16.701  1.6101 -1.0840  1.2454
17767TIP3   OH274791   6.792   3.515  17.347 -0.3979 -0.1807 -0.9596
17767TIP3    H174792   6.749   3.435  17.317  0.0070  0.0354 -2.1608
17767TIP3    H274793   6.884   3.503  17.323  0.1086 -0.3136  0.8964
17768TIP3   OH274794   0.986   6.623  14.602  0.1323  0.6766  0.4138
17768TIP3    H174795   1.052   6.614  14.671 -1.4470  0.0203  1.9091
17768TIP3    H274796   0.954   6.713  14.610  1.3494  1.2594 -0.8440
17769TIP3   OH274797   1.777   3.705  15.318 -0.0981 -0.2588  0.0073
17769TIP3    H174798   1.694   3.713  15.365  1.1121  1.0550  2.1295
17769TIP3    H274799   1.805   3.796  15.303  1.1700 -0.6589 -0.2026
17770TIP3   OH274800   3.963   6.227   1.346  0.0330  0.4475  0.0864
17770TIP3    H174801   4.032   6.262   1.290 -0.0575 -0.9021 -0.9184
17770TIP3    H274802   3.960   6.134   1.325 -1.1467  0.2235  1.1389
17771TIP3   OH274803   4.554   1.924  17.305  0.1137  0.2568 -0.1483
17771TIP3    H174804   4.532   1.921  17.398  0.6450  0.5550 -0.0087
17771TIP3    H274805   4.617   1.996  17.297 -1.5705  1.7312 -1.0908
17772TIP3   OH274806   5.704   4.920   6.494  0.3623 -0.0411  0.2438
17772TIP3    H174807   5.743   4.870   6.566  0.2539 -0.6699 -0.1322
17772TIP3    H274808   5.693   5.008   6.530  1.9376  0.1079  0.4204
17773TIP3   OH274809   1.248   3.919  12.578  0.1769  0.0885 -0.0909
17773TIP3    H174810   1.164   3.872  12.579  0.6095 -0.7832 -1.5772
17773TIP3    H274811   1.306   3.865  12.632 -0.0234  0.3515  0.4012
17774TIP3   OH274812   4.542   0.530   1.967  0.1688 -0.4652  0.0711
17774TIP3    H174813   4.452   0.547   1.941 -0.0528 -1.5951  0.0631
17774TIP3    H274814   4.545   0.554   2.059 -0.3440 -1.1080  0.2651
17775TIP3   OH274815   0.795   3.241   3.002  0.3553  0.1899  0.0334
17775TIP3    H174816   0.747   3.189   3.066 -0.1489  0.8311  0.1960
17775TIP3    H274817   0.872   3.274   3.049  0.6481 -0.3630 -0.0564
17776TIP3   OH274818   4.973   4.903   2.751  0.3029  0.4845  0.3157
17776TIP3    H174819   5.052   4.853   2.729  0.0561 -0.2960  1.1525
17776TIP3    H274820   5.007   4.984   2.791  0.6760  0.1950  0.5878
17777TIP3   OH274821   0.516   2.724   5.764  0.3708 -0.3917 -0.4143
17777TIP3    H174822   0.539   2.660   5.831  2.4984  1.2120  0.4809
17777TIP3    H274823   0.568   2.699   5.688  1.4697  0.4268  0.0472
17778TIP3   OH274824   1.402   0.497   2.324 -0.5141  0.3659  0.5732
17778TIP3    H174825   1.414   0.407   2.295 -2.1073  0.3762 -0.2385
17778TIP3    H274826   1.419   0.493   2.418  0.1041 -0.6289  0.4444
17779TIP3   OH274827   4.704   6.199  12.805 -0.1660  0.0062  0.2030
17779TIP3    H174828   4.688   6.136  12.734 -1.8425  0.2784  0.3052
17779TIP3    H274829   4.794   6.181  12.832 -0.8935 -3.1262  0.9751
17780TIP3   OH274830   1.134   2.444   0.933  0.2173 -0.0073  0.1941
17780TIP3    H174831   1.147   2.353   0.908  2.0101  0.3068 -0.1546
17780TIP3    H274832   1.193   2.493   0.876 -0.4296  1.3349  0.6473
17781TIP3   OH274833   6.208   6.502  17.098 -0.0732 -0.1328 -0.0820
17781TIP3    H174834   6.127   6.525  17.144 -1.4492  0.5648 -2.6604
17781TIP3    H274835   6.258   6.583  17.094 -0.5315  0.1168 -0.8784
17782TIP3   OH274836   5.502   2.789  14.078  1.1423  0.1685 -0.2586
17782TIP3    H174837   5.522   2.817  14.167 -2.3403  2.8623 -0.0828
17782TIP3    H274838   5.498   2.871  14.028 -0.6658 -0.8706 -1.9638
17783TIP3   OH274839   5.992   1.477  14.722  0.7233  0.1677 -0.4809
17783TIP3    H174840   6.036   1.401  14.761 -1.3488 -1.2143 -0.7067
17783TIP3    H274841   5.917   1.440  14.675 -2.5059  2.5151  2.3249
17784TIP3   OH274842   0.529   0.856  16.831 -0.0137  0.0802  0.0805
17784TIP3    H174843   0.449   0.827  16.787  0.9845 -1.0343 -1.1037
17784TIP3    H274844   0.542   0.945  16.799 -0.4152  0.0240 -0.2560
17785TIP3   OH274845   3.490   6.079   2.580 -0.1305 -0.0412 -0.1018
17785TIP3    H174846   3.560   6.131   2.540 -0.3190  0.8683  0.6897
17785TIP3    H274847   3.451   6.031   2.508  1.7505 -1.1142 -0.4570
17786TIP3   OH274848   0.119   0.228   6.044  0.4504  0.1775  0.0812
17786TIP3    H174849   0.190   0.273   6.090  0.5920 -1.3619  1.4536
17786TIP3    H274850   0.049   0.222   6.109 -0.3881  0.3543 -0.7844
17787TIP3   OH274851   4.306   1.965   2.861  0.1524 -0.2651 -0.1467
17787TIP3    H174852   4.315   2.023   2.785 -0.6033 -0.5834 -0.4935
17787TIP3    H274853   4.239   2.007   2.915 -1.8059 -1.7370 -1.3238
17788TIP3   OH274854   4.192   6.547  11.588 -0.3262 -0.0734 -0.3009
17788TIP3    H174855   4.186   6.494  11.667 -1.0872 -0.0887 -0.3695
17788TIP3    H274856   4.225   6.631  11.618  0.8180 -0.5437 -0.1814
17789TIP3   OH274857   3.798   2.889  13.359 -0.6217  0.6725 -0.0439
17789TIP3    H174858   3.849   2.959  13.318  0.8789 -1.1019 -1.3955
17789TIP3    H274859   3.831   2.809  13.319 -2.6170 -0.8020  1.0770
17790TIP3   OH274860   2.350   6.244  16.578 -0.0314 -0.9151  0.1225
17790TIP3    H174861   2.366   6.337  16.562 -1.0963 -0.8824 -0.8169
17790TIP3    H274862   2.348   6.236  16.674 -5.5569  1.1530  0.5322
17791TIP3   OH274863   2.058   0.942   3.441 -0.1441  0.5589  0.2478
17791TIP3    H174864   1.980   0.986   3.408 -0.7951 -0.9393 -0.2945
17791TIP3    H274865   2.124   0.954   3.372  0.2447  2.0778  0.8340
17792TIP3   OH274866   5.542   5.579   4.646  0.0189  0.3120 -0.3606
17792TIP3    H174867   5.477   5.630   4.598 -0.4297  1.4622  1.3841
17792TIP3    H274868   5.492   5.533   4.713  0.8839  0.4602  0.4082
17793TIP3   OH274869   5.179   3.502  12.307 -0.5570  0.0011  0.1785
17793TIP3    H174870   5.152   3.479  12.397 -0.6503  2.2445  0.7956
17793TIP3    H274871   5.099   3.491  12.255 -0.2427 -2.3516  0.0995
17794TIP3   OH274872   1.869   6.309  16.645  0.4109  0.1731  0.6523
17794TIP3    H174873   1.931   6.236  16.646 -0.0362 -0.2380 -0.5200
17794TIP3    H274874   1.790   6.275  16.687  0.6053  0.3673  1.1863
17795TIP3   OH274875   6.595   3.063   4.086 -0.4390  0.0671 -0.2388
17795TIP3    H174876   6.508   3.048   4.047 -0.9312 -0.4308  1.0162
17795TIP3    H274877   6.578   3.074   4.179  0.8000  0.5494 -0.0539
17796TIP3   OH274878   3.582   6.672  16.690  0.2910 -0.8504  0.2834
17796TIP3    H174879   3.564   6.606  16.756 -0.7927 -1.1675 -0.3039
17796TIP3    H274880   3.509   6.665  16.627  0.6026  0.3028 -0.2536
17797TIP3   OH274881   2.407   4.270  16.495  0.3055 -0.0726 -0.3190
17797TIP3    H174882   2.488   4.307  16.532  0.2231  1.9319 -1.9311
17797TIP3    H274883   2.435   4.228  16.414 -0.0007 -1.2262  0.1618
17798TIP3   OH274884   1.841   6.762  14.169  0.6261 -0.5944 -0.2786
17798TIP3    H174885   1.849   6.752  14.074  1.8071 -0.3380 -0.2164
17798TIP3    H274886   1.846   6.857  14.184  1.9662 -0.7164  0.1499
17799TIP3   OH274887   0.584   2.657   5.499  0.3127  0.1340 -0.0187
17799TIP3    H174888   0.608   2.686   5.411 -1.5400 -0.4726 -0.7636
17799TIP3    H274889   0.641   2.582   5.516  0.2299 -0.1561 -0.9777
17800TIP3   OH274890   6.479   4.309  14.675  0.5746 -0.1356  0.0387
17800TIP3    H174891   6.533   4.237  14.707 -0.1731 -0.7999 -0.1543
17800TIP3    H274892   6.397   4.302  14.725  0.1589  0.0341 -0.5989
17801TIP3   OH274893   5.510   0.378  11.631  0.3859 -0.0243 -0.0162
17801TIP3    H174894   5.488   0.287  11.611 -0.3321  0.7493 -3.2500
17801TIP3    H274895   5.606   0.379  11.634  0.5119 -0.5790 -2.1410
17802TIP3   OH274896   4.465   6.551   1.287 -0.4217  0.3845 -0.2416
17802TIP3    H174897   4.510   6.635   1.275  0.2235  0.0863  0.0362
17802TIP3    H274898   4.471   6.533   1.380  1.3528 -0.9790 -0.5497
17803TIP3   OH274899   5.826   1.605  16.150 -0.4025 -0.1865  0.5562
17803TIP3    H174900   5.765   1.610  16.076 -0.6226 -0.2289  0.7331
17803TIP3    H274901   5.875   1.524  16.135  0.3859  0.4127 -0.1807
17804TIP3   OH274902   2.896   0.664   4.000 -0.1220  0.0363  0.1928
17804TIP3    H174903   2.987   0.667   3.968 -0.3789 -2.0219 -0.9387
17804TIP3    H274904   2.894   0.726   4.073  2.3303 -0.2482  0.5870
17805TIP3   OH274905   2.229   6.202  12.156 -0.3863  0.3490  0.0621
17805TIP3    H174906   2.258   6.292  12.143 -1.3821  0.4504 -1.9608
17805TIP3    H274907   2.192   6.177  12.071  0.0271 -2.0359  0.5197
17806TIP3   OH274908   2.933   6.134   4.676  0.1626  0.3713  0.2889
17806TIP3    H174909   2.906   6.076   4.747 -0.3589  0.1612 -0.0763
17806TIP3    H274910   2.909   6.221   4.705 -0.2935  0.2578  0.2630
17807TIP3   OH274911   3.394   6.744  13.453  0.8449  0.1126 -0.5864
17807TIP3    H174912   3.381   6.653  13.427  1.1371  0.4132 -1.8829
17807TIP3    H274913   3.468   6.774  13.400  3.0534  0.1300  2.3192
17808TIP3   OH274914   1.850   3.167  13.231 -0.2293  0.3147 -0.4147
17808TIP3    H174915   1.942   3.158  13.257  0.1777  0.4223 -1.7350
17808TIP3    H274916   1.814   3.231  13.293 -0.4158 -2.3334  2.4413
17809TIP3   OH274917   6.764   5.163   6.340 -0.0470  0.0255  0.8141
17809TIP3    H174918   6.783   5.131   6.428  1.1776  1.5042  1.1274
17809TIP3    H274919   6.792   5.255   6.341 -1.0162  0.3759 -0.8019
17810TIP3   OH274920   5.481   0.872  15.089  0.6203 -1.1369  0.1262
17810TIP3    H174921   5.445   0.868  15.001 -0.7500 -1.2435  0.6761
17810TIP3    H274922   5.558   0.814  15.087  1.2189 -0.3336 -1.2527
17811TIP3   OH274923   2.539   6.525  13.040  0.5324  0.3933  0.0441
17811TIP3    H174924   2.557   6.504  12.948  1.6082  0.8007  0.1418
17811TIP3    H274925   2.446   6.507  13.051  0.3320  0.5622 -1.1934
17812TIP3   OH274926   1.494   2.904  13.237  0.0134  0.4079 -0.3572
17812TIP3    H174927   1.478   2.818  13.276 -0.7969 -0.6702 -2.8902
17812TIP3    H274928   1.557   2.888  13.167  0.5377  2.0665 -0.3184
17813TIP3   OH274929   3.970   0.306   4.824 -0.2836 -0.9274  0.5156
17813TIP3    H174930   3.903   0.268   4.881 -1.0999 -0.0405  0.1746
17813TIP3    H274931   3.941   0.283   4.735 -0.0728 -0.6385  0.3716
17814TIP3   OH274932   6.716   0.957  15.552  0.0219  0.0217 -0.7662
17814TIP3    H174933   6.702   0.866  15.577  0.5264  0.0576 -0.3341
17814TIP3    H274934   6.675   0.965  15.466 -2.3823  0.0793  0.3097
17815TIP3   OH274935   0.396   0.535   4.892  0.2686 -0.4583  0.1945
17815TIP3    H174936   0.488   0.536   4.916  0.4760 -1.4577 -0.5040
17815TIP3    H274937   0.385   0.454   4.843 -1.0597 -0.5249  0.5661
17816TIP3   OH274938   3.936   3.445   6.588  0.5516  0.4648 -0.2652
17816TIP3    H174939   3.990   3.366   6.598  0.4016  0.5058  1.0316
17816TIP3    H274940   3.852   3.422   6.627  0.2433  1.0280 -0.5785
17817TIP3   OH274941   1.218   4.634  15.630 -0.0560 -0.1110 -0.0618
17817TIP3    H174942   1.153   4.657  15.696 -0.2371 -0.2761 -0.1830
17817TIP3    H274943   1.173   4.646  15.546  0.8720  2.4372 -0.2883
17818TIP3   OH274944   5.011   6.254  13.490  0.0514  0.2351  0.1857
17818TIP3    H174945   5.076   6.265  13.560  0.3522 -0.3990  0.0079
17818TIP3    H274946   4.938   6.310  13.517  0.5610  0.7457  0.5199
17819TIP3   OH274947   0.864   0.411   2.216  0.3057  0.4852 -0.0301
17819TIP3    H174948   0.931   0.436   2.280 -1.0953  1.5421  1.1012
17819TIP3    H274949   0.894   0.450   2.134  1.3832  0.4115  0.3095
17820TIP3   OH274950   0.592   2.594  14.007 -0.0661 -0.2951 -0.2997
17820TIP3    H174951   0.652   2.629  13.941  0.5376 -0.2593  0.2534
17820TIP3    H274952   0.637   2.517  14.041  0.1870  0.3485  0.8931
17821TIP3   OH274953   1.678   6.747   0.593 -0.4158 -0.1693  0.0812
17821TIP3    H174954   1.615   6.683   0.625  0.3143  0.0921  2.2466
17821TIP3    H274955   1.745   6.750   0.661  2.6455 -1.3275 -2.6220
17822TIP3   OH274956   4.502   0.234  15.325 -0.0415  0.9773  0.1750
17822TIP3    H174957   4.480   0.327  15.324 -1.6343  0.6226 -0.0263
17822TIP3    H274958   4.469   0.203  15.409 -0.0325  0.4815 -0.0036
17823TIP3   OH274959   5.136   3.245   2.406 -0.1000  0.1569  0.7564
17823TIP3    H174960   5.045   3.237   2.379 -0.3183  1.6060  0.9832
17823TIP3    H274961   5.167   3.155   2.413 -1.3268 -0.3426  0.0685
17824TIP3   OH274962   1.899   4.115   5.520 -0.0528  0.2327  0.3195
17824TIP3    H174963   1.806   4.114   5.544 -0.1992 -3.3469  0.1142
17824TIP3    H274964   1.901   4.153   5.433 -1.6515 -1.2930 -0.4433
17825TIP3   OH274965   3.367   2.626   2.097 -0.0755 -0.0453 -0.4361
17825TIP3    H174966   3.350   2.551   2.040  1.7187 -0.6501 -0.2169
17825TIP3    H274967   3.300   2.690   2.072 -0.0971 -0.7529 -2.3731
17826TIP3   OH274968   3.288   4.824   3.255  0.2630  0.2626 -0.5287
17826TIP3    H174969   3.310   4.742   3.300  2.1381  0.9690 -0.0784
17826TIP3    H274970   3.269   4.798   3.165 -1.3753 -0.9094  0.1030
17827TIP3   OH274971   4.840   3.511   5.033  0.0282 -0.1975  0.5114
17827TIP3    H174972   4.811   3.578   5.095 -0.1174  0.7233 -0.5227
17827TIP3    H274973   4.766   3.500   4.974 -0.2749 -1.8999  1.1439
17828TIP3   OH274974   0.190   5.702   6.123  0.2637 -0.0074 -0.0853
17828TIP3    H174975   0.166   5.674   6.034  1.2165 -3.6289  0.6078
17828TIP3    H274976   0.107   5.728   6.163 -0.4455  0.1128 -1.5430
17829TIP3   OH274977   5.450   2.815   4.913 -0.4099  0.0128  0.0357
17829TIP3    H174978   5.402   2.732   4.911 -2.2338  0.9964 -0.0425
17829TIP3    H274979   5.497   2.814   4.996 -0.4174 -1.0851  0.0404
17830TIP3   OH274980   2.546   5.905  13.417  0.0312  0.0572  0.1504
17830TIP3    H174981   2.570   5.913  13.509 -1.9399 -0.3331  0.7454
17830TIP3    H274982   2.480   5.973  13.404 -0.4741 -0.5737 -0.6863
17831TIP3   OH274983   3.167   5.510  17.064 -0.1633  0.6090 -0.3664
17831TIP3    H174984   3.184   5.427  17.108 -0.0621  0.5457 -0.5255
17831TIP3    H274985   3.120   5.562  17.129 -0.1340  0.4662 -0.2309
17832TIP3   OH274986   2.066   4.995   1.918  0.3689 -0.1687  0.3657
17832TIP3    H174987   2.140   4.985   1.858 -0.3321 -1.6662 -0.3224
17832TIP3    H274988   2.089   4.943   1.994 -0.1097 -0.9512 -0.0100
17833TIP3   OH274989   1.093   3.398  14.040  0.1466 -0.0878 -0.7857
17833TIP3    H174990   1.117   3.436  13.956  0.9425  0.4236 -0.3389
17833TIP3    H274991   1.172   3.406  14.094 -0.9142  1.3890  0.6535
17834TIP3   OH274992   3.937   5.143  15.273 -0.4819 -0.1774 -0.2010
17834TIP3    H174993   4.010   5.153  15.213 -0.8341 -0.4366 -0.6751
17834TIP3    H274994   3.870   5.204  15.241 -1.0776 -1.0811 -0.7143
17835TIP3   OH274995   2.124   1.812  11.863 -0.5217  0.1129  0.0824
17835TIP3    H174996   2.064   1.858  11.922  0.4196  0.4535  0.8120
17835TIP3    H274997   2.189   1.879  11.838 -1.9194  0.5256 -2.9117
17836TIP3   OH274998   5.115   4.237  15.682  0.1744  0.7992  0.0177
17836TIP3    H174999   5.029   4.254  15.644 -0.3105  1.3136  1.2811
17836TIP3    H275000   5.174   4.300  15.639 -0.0859  0.4911 -0.7996
17837TIP3   OH275001   0.021   6.159  13.113  0.5117  0.1015  0.0186
17837TIP3    H175002   0.036   6.117  13.198  0.0217 -1.1429 -0.4833
17837TIP3    H275003  -0.015   6.245  13.135 -1.3669 -0.8945  1.0802
17838TIP3   OH275004   6.298   2.602  15.108  0.9806  0.6351 -0.4250
17838TIP3    H175005   6.347   2.543  15.166  0.5613 -0.7878 -1.4602
17838TIP3    H275006   6.358   2.675  15.092  1.7331  0.2277  0.4379
17839TIP3   OH275007   5.292   5.984   2.062 -0.0702 -0.2483 -0.6599
17839TIP3    H175008   5.355   6.027   2.120  0.5797  0.3366 -1.7791
17839TIP3    H275009   5.344   5.921   2.013 -0.4273 -0.0283 -1.3245
17840TIP3   OH275010   5.973   0.188  11.570  0.8086  0.5837  0.4955
17840TIP3    H175011   6.043   0.188  11.635 -0.6000 -2.5448  2.2694
17840TIP3    H275012   5.984   0.106  11.522 -0.6430  0.8222 -0.3116
17841TIP3   OH275013   4.488   2.999   3.499 -0.5109 -0.0757 -0.3656
17841TIP3    H175014   4.482   2.970   3.590 -0.8943  0.5976 -0.1680
17841TIP3    H275015   4.485   3.095   3.504 -3.0021 -0.0356 -1.2178
17842TIP3   OH275016   1.790   0.263   5.622  0.1815  0.2107 -0.6528
17842TIP3    H175017   1.859   0.300   5.678  0.1632  1.0071 -1.1386
17842TIP3    H275018   1.787   0.322   5.546 -2.2579  1.2459  0.1739
17843TIP3   OH275019   0.444   6.609   0.586  1.2620  0.5369 -0.0352
17843TIP3    H175020   0.382   6.632   0.516  2.9162  2.0909 -1.0797
17843TIP3    H275021   0.397   6.627   0.667 -0.9133 -1.8334 -0.6394
17844TIP3   OH275022   2.890   6.314  16.337 -0.3558 -0.5386 -0.2569
17844TIP3    H175023   2.906   6.265  16.256 -0.0294  1.2114 -1.3076
17844TIP3    H275024   2.978   6.338  16.368 -0.5219  0.9486 -0.8215
17845TIP3   OH275025   0.211   4.777  15.935 -0.6367 -0.7092 -0.9479
17845TIP3    H175026   0.230   4.860  15.892 -0.0550 -0.2283  0.2022
17845TIP3    H275027   0.222   4.795  16.029 -4.6118 -0.9574 -0.2501
17846TIP3   OH275028   3.815   0.173   2.445  0.1479 -0.1273  0.4309
17846TIP3    H175029   3.788   0.231   2.516 -1.2422 -0.3530  0.1098
17846TIP3    H275030   3.855   0.098   2.489 -0.0632  0.0571  0.9410
17847TIP3   OH275031   5.201   1.089   0.949 -0.2136 -0.2660  0.1169
17847TIP3    H175032   5.112   1.121   0.962 -0.2879 -0.1305 -0.6833
17847TIP3    H275033   5.256   1.154   0.993 -0.5303 -0.6114  1.0449
17848TIP3   OH275034   0.856   0.246   2.814 -0.2817 -0.2383 -0.2977
17848TIP3    H175035   0.773   0.254   2.768 -1.6395 -0.6950  1.9196
17848TIP3    H275036   0.889   0.159   2.789 -2.5200 -1.8298  1.7900
17849TIP3   OH275037   5.221   2.879  10.753 -0.0401 -0.2604  0.2379
17849TIP3    H175038   5.249   2.796  10.715 -1.0359 -0.0446 -1.0177
17849TIP3    H275039   5.282   2.943  10.719  1.4177 -0.5770  2.0759
17850TIP3   OH275040   1.354   1.304   4.022 -0.2465  0.3438  0.3047
17850TIP3    H175041   1.431   1.291   4.077 -0.3462  1.6060  0.7692
17850TIP3    H275042   1.348   1.398   4.012 -1.2921  0.2127 -0.3665
17851TIP3   OH275043   5.384   4.775   3.688 -0.2355 -0.3777 -0.0452
17851TIP3    H175044   5.411   4.804   3.775 -0.5088 -1.0449  0.2721
17851TIP3    H275045   5.380   4.855   3.636  1.3915 -0.1400  0.1404
17852TIP3   OH275046   1.386   1.476   4.688  0.8652  0.0710 -0.6058
17852TIP3    H175047   1.449   1.476   4.616  3.7704 -1.2567  1.6919
17852TIP3    H275048   1.413   1.550   4.743  1.0845 -1.0731  0.8859
17853TIP3   OH275049   3.893   2.537  16.432 -0.4494 -0.1892 -0.8117
17853TIP3    H175050   3.973   2.589  16.438  0.5533 -1.4751 -2.1169
17853TIP3    H275051   3.823   2.601  16.419  0.7166  0.8625 -2.1888
17854TIP3   OH275052   6.776   2.221  12.071 -0.2964 -0.8174  0.1852
17854TIP3    H175053   6.752   2.178  11.990 -2.1749 -1.0401  0.8226
17854TIP3    H275054   6.742   2.165  12.140  2.4464 -1.3621  1.2401
17855TIP3   OH275055   4.311   2.143  14.042  0.2890  0.2421  0.1248
17855TIP3    H175056   4.233   2.105  14.003  0.8266  0.5888 -1.3508
17855TIP3    H275057   4.384   2.108  13.991  1.1876 -0.5806  1.8715
17856TIP3   OH275058   6.579   2.711  13.138 -0.2737 -0.4010  0.3670
17856TIP3    H175059   6.632   2.680  13.065 -0.4482 -1.7381  0.7839
17856TIP3    H275060   6.608   2.801  13.152  0.9162 -0.6613 -0.2826
17857TIP3   OH275061   6.675   1.484  12.028  0.0568 -0.0915 -0.8637
17857TIP3    H175062   6.583   1.509  12.038 -0.1028 -0.2010 -1.9420
17857TIP3    H275063   6.676   1.389  12.044  0.1032  0.0234 -0.1609
17858TIP3   OH275064   1.766   1.715   4.733 -0.3126  0.3189  0.4943
17858TIP3    H175065   1.792   1.732   4.642 -0.5107  1.3275  0.6167
17858TIP3    H275066   1.677   1.750   4.738  0.5158  2.4051  1.6895
17859TIP3   OH275067   2.245   5.865  11.120  0.3034 -0.1578 -0.6341
17859TIP3    H175068   2.206   5.778  11.110  1.0642 -0.5977  0.1159
17859TIP3    H275069   2.196   5.920  11.059 -0.4532 -1.0235 -0.8322
17860TIP3   OH275070   6.723   1.818  12.344 -0.7463 -0.1414  0.1509
17860TIP3    H175071   6.747   1.756  12.414 -2.7645 -1.5527 -0.3180
17860TIP3    H275072   6.764   1.781  12.265  1.4333  1.3884  0.4734
17861TIP3   OH275073   0.456   6.385  17.057  0.4450  0.5165  0.1635
17861TIP3    H175074   0.411   6.456  17.104 -2.0384 -0.7381 -0.1702
17861TIP3    H275075   0.408   6.377  16.974  0.3689 -1.7978  0.3766
17862TIP3   OH275076   4.875   6.458   2.452  0.1333 -0.1682 -0.0347
17862TIP3    H175077   4.796   6.408   2.474 -0.6477  0.6882 -0.7737
17862TIP3    H275078   4.905   6.494   2.535 -0.4681 -0.1936  0.1989
17863TIP3   OH275079   1.419   4.098   2.150  0.3309  0.0133 -0.2942
17863TIP3    H175080   1.507   4.128   2.174 -0.0697 -0.5867  2.1927
17863TIP3    H275081   1.367   4.178   2.146  0.4265  0.1756  1.0262
17864TIP3   OH275082   0.736   0.586   5.759  0.1463  0.7210 -0.5550
17864TIP3    H175083   0.781   0.569   5.676  0.3423  1.6317 -0.6451
17864TIP3    H275084   0.684   0.508   5.774 -0.1710  0.6862 -1.7244
17865TIP3   OH275085   0.273   2.954  15.282  0.0214 -0.4089 -0.2009
17865TIP3    H175086   0.268   2.865  15.318  0.6161  0.3301  1.8516
17865TIP3    H275087   0.185   2.971  15.248 -0.2101 -1.6146 -0.2685
17866TIP3   OH275088   2.866   5.339  16.106 -0.1227 -0.1772  0.4167
17866TIP3    H175089   2.926   5.413  16.097 -1.0878  0.6842  0.8803
17866TIP3    H275090   2.848   5.311  16.016  3.6947 -2.8054  0.2111
17867TIP3   OH275091   5.899   1.448   4.921  0.4777 -0.0120 -0.0036
17867TIP3    H175092   5.847   1.408   4.991  1.2090 -0.0763  0.5082
17867TIP3    H275093   5.892   1.387   4.848 -0.4516  0.1503 -0.0649
17868TIP3   OH275094   4.071   0.169   1.115 -0.3054 -0.5546 -0.4122
17868TIP3    H175095   4.140   0.106   1.134  0.3794 -0.1024 -1.3450
17868TIP3    H275096   4.023   0.131   1.041 -1.0435 -0.8433  0.1945
17869TIP3   OH275097   5.993   6.735   6.119  0.3596  0.2991 -0.0650
17869TIP3    H175098   6.026   6.800   6.180  0.7680 -0.1656  0.2146
17869TIP3    H275099   6.000   6.652   6.166  0.4841 -0.0342 -0.6617
17870TIP3   OH275100   1.736   4.160  12.721  0.2820  0.3855  0.2489
17870TIP3    H175101   1.771   4.156  12.632 -1.9989  0.2753 -0.7219
17870TIP3    H275102   1.768   4.080  12.762  0.2562 -0.2768 -0.9573
17871TIP3   OH275103   4.276   5.256   3.716 -0.1274 -0.1698  0.3066
17871TIP3    H175104   4.185   5.235   3.739 -0.1155 -0.6221 -0.0448
17871TIP3    H275105   4.279   5.352   3.716 -0.4654 -0.1553  0.8560
17872TIP3   OH275106   6.754   1.130   1.428  0.0985  0.5906 -0.2806
17872TIP3    H175107   6.684   1.117   1.364 -0.3454 -1.1809  0.4998
17872TIP3    H275108   6.710   1.164   1.506 -0.2224 -1.8494  0.7021
17873TIP3   OH275109   3.709   4.319  15.728  0.1540 -0.0730  0.9743
17873TIP3    H175110   3.766   4.245  15.706  1.6067  1.3379 -0.2154
17873TIP3    H275111   3.762   4.374  15.786 -0.7103  0.3263  1.4055
17874TIP3   OH275112   0.188   6.364  12.960 -0.6234 -0.3618 -0.2288
17874TIP3    H175113   0.130   6.413  13.018  0.0540  0.3220 -0.1218
17874TIP3    H275114   0.260   6.335  13.017 -1.2177 -1.8532 -0.1945
17875TIP3   OH275115   3.292   1.074  14.749 -0.1679 -0.8218 -0.7796
17875TIP3    H175116   3.359   1.032  14.695  1.9578  1.7794 -0.3297
17875TIP3    H275117   3.311   1.046  14.838  0.3277 -0.1318 -0.6600
17876TIP3   OH275118   6.006   2.387  11.698 -0.2652 -0.0562 -0.5970
17876TIP3    H175119   6.095   2.421  11.708 -0.5241 -0.0009  2.3212
17876TIP3    H275120   5.951   2.448  11.748 -1.8904 -0.4708 -1.7828
17877TIP3   OH275121   0.709   6.032   5.799 -0.0524  0.0870 -0.1446
17877TIP3    H175122   0.715   5.947   5.843  0.6812  0.7335  1.0662
17877TIP3    H275123   0.748   6.017   5.713  0.9182 -0.6103  0.3908
17878TIP3   OH275124   2.151   5.399  12.450  0.3162 -0.3440  0.4382
17878TIP3    H175125   2.062   5.366  12.432  0.9091 -1.7279 -0.1529
17878TIP3    H275126   2.169   5.371  12.539 -0.1903  0.8132  0.9249
17879TIP3   OH275127   0.056   2.952   4.602  0.1633 -0.0102  0.2908
17879TIP3    H175128  -0.006   3.019   4.575  0.2058  0.5427  1.5038
17879TIP3    H275129   0.128   2.959   4.539  0.3046  1.2911  0.5699
17880TIP3   OH275130   2.860   4.319  16.163 -0.4094 -0.0212  0.8855
17880TIP3    H175131   2.779   4.310  16.213 -1.2319 -0.2394 -0.4714
17880TIP3    H275132   2.832   4.341  16.075  0.9828 -0.7783  0.2269
17881TIP3   OH275133   0.686   2.529  14.338 -0.9225  0.1376  0.0882
17881TIP3    H175134   0.750   2.596  14.315 -0.4630 -0.3173  0.0150
17881TIP3    H275135   0.689   2.467  14.265  0.5153 -1.2961  1.2741
17882TIP3   OH275136   2.358   4.919  15.693  0.3221  0.0541 -0.1686
17882TIP3    H175137   2.449   4.942  15.677 -0.1056  1.8894 -0.1913
17882TIP3    H275138   2.331   4.873  15.613  1.3683 -1.0553  0.0886
17883TIP3   OH275139   4.094   3.836  15.591 -0.6207  0.1260  0.1671
17883TIP3    H175140   4.110   3.796  15.505 -1.3685 -0.0378  0.0982
17883TIP3    H275141   4.078   3.762  15.649  0.5051  0.2046  0.5921
17884TIP3   OH275142   2.182   1.507   5.333  0.4002  0.2654  0.2704
17884TIP3    H175143   2.132   1.570   5.280  0.3918  0.6816  0.7640
17884TIP3    H275144   2.206   1.556   5.412 -0.1826 -0.5440  0.9664
17885TIP3   OH275145   1.757   6.234   3.873  0.0330 -0.3798  0.2766
17885TIP3    H175146   1.817   6.176   3.827 -1.7020 -1.4914 -0.7216
17885TIP3    H275147   1.717   6.179   3.940 -0.3576  0.1367  0.4787
17886TIP3   OH275148   4.014   0.933  16.315  0.5864 -0.6823 -0.1585
17886TIP3    H175149   3.958   0.861  16.287  1.3794 -1.0393 -0.8914
17886TIP3    H275150   3.996   0.943  16.409 -1.8118  0.2450 -0.6535
17887TIP3   OH275151   3.339   2.364  10.738 -0.1755  0.1808  0.4041
17887TIP3    H175152   3.278   2.421  10.690  0.0937 -0.8772 -1.2556
17887TIP3    H275153   3.283   2.299  10.780 -0.2390 -0.7601 -1.0797
17888TIP3   OH275154   3.190   6.023   2.139  0.2857  0.5257  0.5793
17888TIP3    H175155   3.102   5.993   2.115  0.4048 -1.5836  2.4201
17888TIP3    H275156   3.175   6.104   2.188 -0.5992  0.4998  0.3640
17889TIP3   OH275157   3.267   3.995  15.150 -0.4533  0.4985 -0.3722
17889TIP3    H175158   3.313   3.977  15.068 -0.1566 -0.5362  0.0021
17889TIP3    H275159   3.208   3.920  15.162  0.9073 -0.3826  1.3131
17890TIP3   OH275160   2.458   3.207  16.865 -0.3920  0.5276  0.5809
17890TIP3    H175161   2.418   3.238  16.783  0.3496  0.7527  0.2976
17890TIP3    H275162   2.487   3.118  16.845 -0.1682  0.5998  0.5795
17891TIP3   OH275163   5.781   5.232   6.382 -0.2674  0.1756 -0.1429
17891TIP3    H175164   5.762   5.326   6.388 -0.1006  0.1377  4.3282
17891TIP3    H275165   5.699   5.194   6.349 -0.9940  1.7147 -0.2315
17892TIP3   OH275166   4.522   5.960   3.320 -0.3648 -0.1081 -0.3056
17892TIP3    H175167   4.533   5.916   3.235 -3.0702 -1.2754 -0.1532
17892TIP3    H275168   4.577   5.910   3.380  1.7488  0.8563 -1.3510
17893TIP3   OH275169   4.304   5.522  12.967 -0.1529 -0.0388 -1.0068
17893TIP3    H175170   4.220   5.512  13.010  0.8154 -1.0697  0.7741
17893TIP3    H275171   4.287   5.505  12.875 -1.9227  0.0519 -0.7237
17894TIP3   OH275172   0.954   4.115   2.866 -0.1147  0.0590 -0.1702
17894TIP3    H175173   0.983   4.198   2.904 -1.6481  0.2794  0.5834
17894TIP3    H275174   1.020   4.095   2.799 -0.0987  2.2511 -0.8893
17895TIP3   OH275175   1.750   4.400  16.973 -1.1357 -0.1441  0.2249
17895TIP3    H175176   1.669   4.423  17.018 -0.0809  1.9501  1.1593
17895TIP3    H275177   1.815   4.392  17.042 -0.0771  0.3861 -0.6768
17896TIP3   OH275178   1.161   5.118  13.213 -0.5423  0.2662 -0.3357
17896TIP3    H175179   1.102   5.174  13.263  0.1286  0.5462  0.1556
17896TIP3    H275180   1.203   5.062  13.279  1.3255  1.5239 -0.3734
17897TIP3   OH275181   2.970   1.982  14.910 -0.1757  0.2862 -0.7009
17897TIP3    H175182   3.007   1.894  14.902 -3.5046 -1.1733 -1.2829
17897TIP3    H275183   2.918   1.994  14.830 -2.3703  1.4449  0.8038
17898TIP3   OH275184   0.101   4.789  15.481 -0.1096 -0.3626 -0.5736
17898TIP3    H175185   0.083   4.708  15.431  0.0309 -0.5989 -0.2432
17898TIP3    H275186   0.016   4.814  15.516 -0.4271  0.4419 -1.8728
17899TIP3   OH275187   4.136   2.173   5.307 -0.3337 -0.2269 -0.0962
17899TIP3    H175188   4.160   2.080   5.299  1.4109  0.0093  1.7353
17899TIP3    H275189   4.042   2.171   5.328 -0.9984 -1.4000 -2.7061
17900TIP3   OH275190   1.844   2.222   4.097  0.1500  0.6833  0.0096
17900TIP3    H175191   1.818   2.131   4.110 -2.6615  1.3507 -0.4603
17900TIP3    H275192   1.891   2.222   4.013 -0.6148 -0.1889 -0.4272
17901TIP3   OH275193   5.426   4.377   1.430  0.0865 -0.1921  0.8209
17901TIP3    H175194   5.426   4.394   1.524  1.3824 -0.2969  0.8689
17901TIP3    H275195   5.384   4.454   1.391 -0.2820 -0.0639  1.4736
17902TIP3   OH275196   0.051   2.069   5.969 -0.1619 -0.3071  0.5272
17902TIP3    H175197   0.040   1.976   5.948  0.6148 -0.2415 -0.1883
17902TIP3    H275198   0.006   2.115   5.898 -0.1226 -0.1317  0.6157
17903TIP3   OH275199   6.697   4.582   4.732  0.0312  0.4451  0.6888
17903TIP3    H175200   6.734   4.520   4.795 -0.0607  0.1926  0.4974
17903TIP3    H275201   6.700   4.666   4.777  0.7443  0.4117  0.7084
17904TIP3   OH275202   2.962   0.131  16.413  0.2804  0.4116  0.3089
17904TIP3    H175203   2.895   0.198  16.399  1.5850  1.3347 -1.9512
17904TIP3    H275204   2.918   0.049  16.393 -0.5106  0.8765  0.0904
17905TIP3   OH275205   0.287   5.944   4.925 -0.1228 -0.3959  0.0167
17905TIP3    H175206   0.233   5.894   4.864 -1.4567  0.1095  0.7384
17905TIP3    H275207   0.228   6.009   4.962  0.9986  0.2074  0.8313
17906TIP3   OH275208   1.130   4.617  14.900  0.1233  0.0565  0.0060
17906TIP3    H175209   1.214   4.632  14.857 -0.1164 -0.8450 -0.8144
17906TIP3    H275210   1.104   4.530  14.871 -0.4362 -0.2411  1.3666
17907TIP3   OH275211   4.495   6.447  14.879 -0.0806  0.4319 -0.2060
17907TIP3    H175212   4.525   6.368  14.925  1.2513 -0.1002 -1.8707
17907TIP3    H275213   4.463   6.414  14.795 -0.0686  1.6078 -0.6872
17908TIP3   OH275214   3.005   5.147  14.486 -0.1882  0.0218 -0.5721
17908TIP3    H175215   2.939   5.105  14.431 -1.2763  1.0225 -0.0730
17908TIP3    H275216   3.073   5.175  14.425 -0.5052 -0.4822 -1.1732
17909TIP3   OH275217   6.770   1.606   5.279 -0.3264  0.1436  0.0392
17909TIP3    H175218   6.812   1.669   5.221  0.0176  0.0335  0.1654
17909TIP3    H275219   6.680   1.636   5.286 -0.3570  0.1876 -0.5118
17910TIP3   OH275220   1.709   2.934  13.012 -0.0811  0.3983 -0.5188
17910TIP3    H175221   1.759   2.853  13.023  0.7958  0.9107 -0.5920
17910TIP3    H275222   1.757   2.998  13.065  0.2684  1.2828 -1.8486
17911TIP3   OH275223   0.353   3.720   4.761  0.4581 -0.3651  0.0095
17911TIP3    H175224   0.332   3.716   4.854 -0.3934 -0.3736 -0.1762
17911TIP3    H275225   0.273   3.750   4.719  0.9476  0.0171 -0.6870
17912TIP3   OH275226   4.836   6.724  12.356 -0.2215 -0.3716 -0.1567
17912TIP3    H175227   4.850   6.719  12.262 -1.1657 -0.5551 -0.2948
17912TIP3    H275228   4.914   6.683  12.394 -0.1925 -1.0065 -0.8743
17913TIP3   OH275229   6.362   3.668  13.612  0.4259 -0.4257  0.1806
17913TIP3    H175230   6.407   3.719  13.679 -0.5782 -0.1706  0.6828
17913TIP3    H275231   6.298   3.615  13.661  0.2847 -0.8948 -0.4903
17914TIP3   OH275232   5.199   6.085  16.699 -0.3506  0.3165  0.0647
17914TIP3    H175233   5.224   6.172  16.731  2.0504 -0.7360  1.3141
17914TIP3    H275234   5.258   6.069  16.626 -0.6610 -0.3258 -0.0525
17915TIP3   OH275235   3.209   4.057   3.132  0.3469  0.0681 -0.3180
17915TIP3    H175236   3.147   4.080   3.202 -0.1018 -2.5926  0.2926
17915TIP3    H275237   3.156   4.056   3.052 -0.6410 -2.5244  0.2500
17916TIP3   OH275238   1.949   5.342   3.795 -0.4127  0.2349 -0.2950
17916TIP3    H175239   1.874   5.287   3.817  0.1787 -0.7900 -0.7676
17916TIP3    H275240   1.911   5.421   3.759 -1.3593  1.0148  2.1716
17917TIP3   OH275241   3.284   6.036   5.506  0.0272  0.2002  0.0698
17917TIP3    H175242   3.226   5.961   5.496 -0.4974  0.6716 -0.4461
17917TIP3    H275243   3.350   6.006   5.570 -0.7767 -0.3327  0.6741
17918TIP3   OH275244   1.496   6.562  12.887  0.6865  0.0363 -0.6037
17918TIP3    H175245   1.537   6.635  12.934  0.7665  0.5355 -1.4401
17918TIP3    H275246   1.525   6.485  12.935  0.7297  0.5352  0.2050
17919TIP3   OH275247   2.350   3.739   6.173 -0.2231 -0.2550  0.4085
17919TIP3    H175248   2.424   3.711   6.226  0.2482 -0.0566 -0.1340
17919TIP3    H275249   2.323   3.823   6.211  1.7130  1.1614 -1.1559
17920TIP3   OH275250   4.695   2.034  15.133  0.3961  0.2593  0.2331
17920TIP3    H175251   4.606   2.061  15.154  0.6695 -0.0049  1.8252
17920TIP3    H275252   4.696   1.939  15.146  0.8121  0.1999 -0.1842
17921TIP3   OH275253   3.305   3.664   4.314 -0.4394 -0.2640 -0.0467
17921TIP3    H175254   3.283   3.757   4.318  1.1726  0.1216  2.1574
17921TIP3    H275255   3.254   3.624   4.385 -1.5686 -1.2036 -1.3443
17922TIP3   OH275256   1.194   4.755   1.634  0.2357  0.2315 -0.3477
17922TIP3    H175257   1.151   4.837   1.656 -1.3803 -0.4070 -0.9640
17922TIP3    H275258   1.188   4.750   1.538 -1.5971 -1.5403 -0.2076
17923TIP3   OH275259   5.307   4.944   2.506 -0.2222  0.0156 -0.8620
17923TIP3    H175260   5.360   4.873   2.540  0.3302  0.1735 -1.3851
17923TIP3    H275261   5.300   5.006   2.578 -0.5690 -0.4887 -0.4579
17924TIP3   OH275262   4.062   1.041   1.326 -0.3276 -0.3908 -0.2025
17924TIP3    H175263   4.094   1.042   1.236  1.6125  0.7399  0.4337
17924TIP3    H275264   4.080   0.952   1.357  0.8148 -0.2140 -0.3390
17925TIP3   OH275265   3.805   5.677   1.260 -0.2019  0.2322 -0.4546
17925TIP3    H175266   3.847   5.641   1.338  2.0963  1.6418 -0.9352
17925TIP3    H275267   3.733   5.730   1.293  1.0935  1.2966  0.8076
17926TIP3   OH275268   6.314   2.019  10.911 -0.1597 -0.5663 -0.4394
17926TIP3    H175269   6.269   2.072  10.976 -1.3664  0.4423 -2.0430
17926TIP3    H275270   6.399   2.062  10.898 -1.1734  1.1100 -1.8165
17927TIP3   OH275271   4.143   1.189  16.348 -0.3826 -0.6769  0.2703
17927TIP3    H175272   4.082   1.124  16.382  1.6490 -2.3881  0.7866
17927TIP3    H275273   4.230   1.154  16.366  0.8358  2.1367  0.4791
17928TIP3   OH275274   4.210   4.024  11.417 -0.0919 -0.4825  0.0003
17928TIP3    H175275   4.247   4.011  11.505 -0.9530 -1.9273  0.1942
17928TIP3    H275276   4.155   4.102  11.426  0.5692 -0.0624  0.4922
17929TIP3   OH275277   1.811   3.523  14.764  0.2178 -0.1390  0.4617
17929TIP3    H175278   1.877   3.545  14.829  0.6598 -1.3969  0.4722
17929TIP3    H275279   1.779   3.437  14.790 -1.3470  0.3930  0.3730
17930TIP3   OH275280   1.102   0.779   3.155 -0.1100  0.4468  0.1993
17930TIP3    H175281   1.191   0.798   3.184  0.2615 -0.3495 -0.3582
17930TIP3    H275282   1.050   0.852   3.186  0.3548 -0.0655  2.3361
17931TIP3   OH275283   2.604   0.791  11.995 -0.0069  0.1247  0.4027
17931TIP3    H175284   2.673   0.726  12.011 -0.4461 -0.2762  0.7000
17931TIP3    H275285   2.647   0.859  11.944  1.3928  1.3134  2.9873
17932TIP3   OH275286   3.393   1.426  13.419  0.4209  0.1644 -0.0921
17932TIP3    H175287   3.406   1.516  13.450  0.3960  0.1746 -0.1108
17932TIP3    H275288   3.473   1.406  13.369 -0.5158  0.9874 -2.0386
17933TIP3   OH275289   6.289   4.314  16.312  0.0355  0.0102  0.2766
17933TIP3    H175290   6.291   4.399  16.269 -1.9309 -1.2051 -2.5189
17933TIP3    H275291   6.227   4.325  16.385 -3.1629  0.2636 -2.2207
17934TIP3   OH275292   2.681   3.046  11.801  0.5794  0.3746  0.2495
17934TIP3    H175293   2.669   3.014  11.712 -1.0241  1.9919 -0.1937
17934TIP3    H275294   2.666   2.970  11.857 -2.1746  0.0737 -0.7610
17935TIP3   OH275295   3.453   4.550  16.451  0.0446 -0.0369  0.4123
17935TIP3    H175296   3.496   4.487  16.393 -1.9976 -0.4264 -0.7806
17935TIP3    H275297   3.441   4.503  16.533  0.9723 -0.2410  0.4475
17936TIP3   OH275298   0.297   3.208   3.598  0.4458  0.1377 -0.6078
17936TIP3    H175299   0.267   3.206   3.689  0.7915  1.3122 -0.4511
17936TIP3    H275300   0.283   3.119   3.566 -2.3812  0.3605 -0.2838
17937TIP3   OH275301   3.550   6.403  16.785 -0.2308 -0.1385 -0.4521
17937TIP3    H175302   3.574   6.329  16.730 -2.3477 -0.8319 -0.5292
17937TIP3    H275303   3.569   6.374  16.874 -0.3558 -0.5065 -0.5442
17938TIP3   OH275304   1.126   1.660  11.909 -0.3134  0.6580  0.8108
17938TIP3    H175305   1.031   1.669  11.902 -0.1513  0.7445 -2.2962
17938TIP3    H275306   1.142   1.566  11.909 -0.3640  0.6497  0.7670
17939TIP3   OH275307   5.685   2.137   2.946  0.2226 -0.0953 -0.1045
17939TIP3    H175308   5.593   2.158   2.932 -0.0168  1.1640  2.6899
17939TIP3    H275309   5.731   2.220   2.929  0.2305  0.6352  2.9546
17940TIP3   OH275310   2.326   3.578   3.522  0.2975  0.1832  0.2638
17940TIP3    H175311   2.338   3.590   3.428  0.5508  0.1546  0.2932
17940TIP3    H275312   2.386   3.641   3.562  1.6276 -1.1438  0.4277
17941TIP3   OH275313   3.263   0.224  16.881  0.6854 -0.5143 -0.3303
17941TIP3    H175314   3.234   0.133  16.882 -0.5122 -0.1630 -0.6650
17941TIP3    H275315   3.306   0.235  16.796  1.7319 -1.0136  0.1220
17942TIP3   OH275316   1.631   4.549  12.644 -0.1787  0.0880 -0.3690
17942TIP3    H175317   1.572   4.523  12.715  2.5894 -2.4270  1.2581
17942TIP3    H275318   1.573   4.573  12.572 -3.1817 -2.0932  1.0944
17943TIP3   OH275319   1.835   1.347  13.883 -0.6957 -0.0166  0.0595
17943TIP3    H175320   1.779   1.275  13.853 -1.6450  1.3087 -1.5015
17943TIP3    H275321   1.819   1.418  13.820  0.0643  1.6319  1.6360
17944TIP3   OH275322   6.564   1.503   0.275 -0.0602  0.4590 -0.3488
17944TIP3    H175323   6.566   1.510   0.370  0.3083  0.7393 -0.3743
17944TIP3    H275324   6.535   1.589   0.245 -0.1112  0.3925 -0.4906
17945TIP3   OH275325   2.202   1.068  15.137 -0.6433  0.0507 -0.0911
17945TIP3    H175326   2.278   1.109  15.178 -0.4474  1.8490 -2.0711
17945TIP3    H275327   2.238   0.998  15.083 -0.5228  0.0617 -0.0248
17946TIP3   OH275328   0.806   4.766   4.975 -0.1401 -0.3993 -0.1851
17946TIP3    H175329   0.736   4.737   4.918 -3.2202  1.1949  2.4627
17946TIP3    H275330   0.762   4.802   5.052  3.6316 -0.4041  2.2774
17947TIP3   OH275331   2.293   0.480   4.882 -0.1720 -0.0498 -0.0952
17947TIP3    H175332   2.363   0.425   4.917 -1.1433 -1.8849 -0.8940
17947TIP3    H275333   2.336   0.535   4.816  0.4854 -1.4388 -0.8679
17948TIP3   OH275334   0.191   5.361   0.785  0.4612 -0.0484  0.1742
17948TIP3    H175335   0.135   5.286   0.767 -0.3355  0.6073 -0.1373
17948TIP3    H275336   0.163   5.392   0.871  0.9578 -0.2529  0.4130
17949TIP3   OH275337   4.109   5.762  15.711  0.6793 -0.1555  0.1084
17949TIP3    H175338   4.104   5.778  15.616  2.4554 -1.1884 -0.2066
17949TIP3    H275339   4.125   5.668  15.719  1.3312  0.0377  1.3856
17950TIP3   OH275340   3.975   3.867  15.954  0.1534  0.2413  0.0766
17950TIP3    H175341   3.893   3.851  15.908  0.9235 -2.6090 -0.5284
17950TIP3    H275342   4.042   3.839  15.891  1.3911 -0.6888  1.7276
17951TIP3   OH275343   5.326   5.840  16.192 -0.1517 -0.4971  0.3221
17951TIP3    H175344   5.258   5.772  16.193 -2.6967  1.8587 -0.5164
17951TIP3    H275345   5.314   5.887  16.274 -0.2976  0.5969 -0.3078
17952TIP3   OH275346   3.693   2.643   5.499 -0.6659  0.2150 -0.3493
17952TIP3    H175347   3.713   2.730   5.533 -0.0352 -0.4629  1.0722
17952TIP3    H275348   3.627   2.659   5.431 -0.9181  1.7519  0.2186
17953TIP3   OH275349   1.073   2.799   4.516 -0.3327  0.1057  0.0710
17953TIP3    H175350   1.050   2.864   4.583  1.1356  0.6160  0.1270
17953TIP3    H275351   1.051   2.841   4.433 -2.6487 -0.7329  0.2035
17954TIP3   OH275352   6.447   5.874  15.055  0.5410 -0.2326  0.0487
17954TIP3    H175353   6.422   5.867  14.963 -0.2478  2.0615  0.0181
17954TIP3    H275354   6.539   5.901  15.053  1.0746 -1.9248  0.0203
17955TIP3   OH275355   1.545   4.039  14.209  0.4323  0.0820  0.0452
17955TIP3    H175356   1.563   3.954  14.250 -0.3384  0.1781  0.5998
17955TIP3    H275357   1.612   4.097  14.246  2.6339 -0.8132 -2.2889
17956TIP3   OH275358   2.480   5.295   2.297 -0.1953 -0.4558  0.0905
17956TIP3    H175359   2.416   5.238   2.254 -0.3872  0.0975 -0.3763
17956TIP3    H275360   2.428   5.363   2.339  0.0471 -0.4648  0.4162
17957TIP3   OH275361   2.198   3.737   0.144  0.6646  0.3289 -0.0826
17957TIP3    H175362   2.243   3.771   0.066  0.5399  1.3376  0.2730
17957TIP3    H275363   2.152   3.813   0.180 -0.7116 -0.5191 -0.0018
17958TIP3   OH275364   5.967   3.578  14.663 -0.3007 -0.0059  0.0779
17958TIP3    H175365   6.060   3.582  14.641 -0.1544 -1.8874  0.1795
17958TIP3    H275366   5.965   3.569  14.758 -0.6048  0.4796  0.1188
17959TIP3   OH275367   6.144   0.134  15.625  0.3141 -0.1406  0.1412
17959TIP3    H175368   6.177   0.156  15.538  0.5049 -3.1470 -0.6907
17959TIP3    H275369   6.120   0.041  15.618 -2.5650  0.2562  2.4389
17960TIP3   OH275370   4.731   5.452  13.274  0.5307 -0.0067  0.0782
17960TIP3    H175371   4.781   5.390  13.326  0.4001  0.6992  1.0708
17960TIP3    H275372   4.733   5.533  13.324 -0.4000  0.4348 -0.5590
17961TIP3   OH275373   1.351   0.085   2.185  0.3916 -0.2558 -0.4421
17961TIP3    H175374   1.369   0.170   2.225  0.5541 -0.4419 -0.1072
17961TIP3    H275375   1.423   0.029   2.216 -0.5108 -0.8979  0.5667
17962TIP3   OH275376   3.312   1.806   3.536  0.4624 -0.9922  0.1326
17962TIP3    H175377   3.279   1.826   3.623 -0.3123 -2.2618  0.1471
17962TIP3    H275378   3.407   1.803   3.547  0.3415 -1.9012  1.1185
17963TIP3   OH275379   5.760   1.464  14.170  0.1410 -0.1428 -0.0704
17963TIP3    H175380   5.680   1.515  14.165 -0.7557 -1.4604  0.4723
17963TIP3    H275381   5.804   1.495  14.249 -0.4957 -0.3477  0.3672
17964TIP3   OH275382   4.392   1.915  14.265  0.1399 -0.0674 -0.0855
17964TIP3    H175383   4.350   1.993  14.302 -0.6633 -0.5180 -0.0175
17964TIP3    H275384   4.346   1.900  14.182 -1.9689 -2.2884  1.3376
17965TIP3   OH275385   2.399   2.327   2.379  0.3050  0.2865 -0.2469
17965TIP3    H175386   2.324   2.282   2.419 -0.1485  2.1875  1.2323
17965TIP3    H275387   2.450   2.359   2.454  3.9628 -2.8386 -1.1125
17966TIP3   OH275388   4.471   2.922  16.653  0.8454 -0.2485  0.2835
17966TIP3    H175389   4.476   2.851  16.717 -1.6153  1.0566  2.0895
17966TIP3    H275390   4.381   2.921  16.623  1.3912  0.6072 -1.5303
17967TIP3   OH275391   0.931   4.048   0.175 -0.2641  0.5652 -0.3238
17967TIP3    H175392   0.935   4.099   0.094  0.0119 -0.4190 -0.9479
17967TIP3    H275393   0.957   3.960   0.149 -0.1503  0.2350  0.8481
17968TIP3   OH275394   3.240   1.240   0.554  0.2948 -0.1962  0.2465
17968TIP3    H175395   3.254   1.150   0.524  0.4472  0.5373 -2.0065
17968TIP3    H275396   3.326   1.267   0.588  0.5817 -0.4649 -0.2632
17969TIP3   OH275397   3.990   3.403  17.201 -0.0402 -0.6144  0.5127
17969TIP3    H175398   3.955   3.392  17.113  1.2286 -1.6054  0.0906
17969TIP3    H275399   3.988   3.315  17.239  0.5930 -0.4359  0.9840
17970TIP3   OH275400   1.385   0.512  10.791  0.5033 -0.1089  0.1835
17970TIP3    H175401   1.366   0.574  10.720 -2.9762 -0.1264  0.9524
17970TIP3    H275402   1.426   0.438  10.747  0.3737  0.7390 -1.4723
17971TIP3   OH275403   2.472   0.285   4.183 -0.3478  0.3436  0.0951
17971TIP3    H175404   2.483   0.368   4.229 -1.8675  1.9552 -2.1652
17971TIP3    H275405   2.404   0.239   4.232  1.3530 -0.2331  2.0774
17972TIP3   OH275406   6.536   2.237  10.875  0.0773  0.0796 -0.2674
17972TIP3    H175407   6.492   2.313  10.914  0.3642 -0.3548  0.9506
17972TIP3    H275408   6.593   2.274  10.808 -1.5134  0.7280 -1.3167
17973TIP3   OH275409   5.040   3.386   1.769  0.2637 -0.2897 -0.1247
17973TIP3    H175410   5.091   3.354   1.695  2.3666  0.7602  0.8044
17973TIP3    H275411   4.997   3.465   1.737 -0.1177 -0.7100 -0.6647
17974TIP3   OH275412   3.463   4.384   6.691 -0.4953 -0.4399 -0.2229
17974TIP3    H175413   3.547   4.351   6.660 -0.3058 -2.1924  1.8657
17974TIP3    H275414   3.483   4.471   6.726  0.2012 -0.3794 -0.7478
17975TIP3   OH275415   4.765   6.057  16.772  0.2927  0.2035  0.4421
17975TIP3    H175416   4.803   6.144  16.785 -1.1218  1.2704 -1.9314
17975TIP3    H275417   4.828   6.011  16.716  0.7174 -0.0885  1.1445
17976TIP3   OH275418   0.073   1.859   1.226 -0.5845  0.1469  0.3668
17976TIP3    H175419  -0.018   1.850   1.254 -0.7013 -0.4463 -0.1569
17976TIP3    H275420   0.071   1.926   1.158 -0.6659  0.0051  0.2272
17977TIP3   OH275421   6.755   2.695  14.107 -0.5887  0.2124 -0.2987
17977TIP3    H175422   6.811   2.714  14.182 -2.7083  0.2251  1.3585
17977TIP3    H275423   6.748   2.599  14.106 -1.5202  0.2637  0.2896
17978TIP3   OH275424   3.067   0.533   4.558  0.0554  0.1689 -0.0231
17978TIP3    H175425   3.069   0.611   4.613  0.8982  0.7480 -0.8404
17978TIP3    H275426   3.055   0.567   4.469 -2.7296 -0.8026 -0.1378
17979TIP3   OH275427   2.499   4.642   4.017  0.3639 -0.2294  0.0906
17979TIP3    H175428   2.478   4.588   4.093  2.0521  0.2732  0.9597
17979TIP3    H275429   2.552   4.714   4.052  1.1193  0.0635 -1.5414
17980TIP3   OH275430   6.760   0.766   1.984  0.7332 -0.3709  0.6141
17980TIP3    H175431   6.848   0.767   2.021  1.4098  0.8698 -0.9035
17980TIP3    H275432   6.713   0.834   2.034  1.3431  0.5971 -0.0954
17981TIP3   OH275433   3.241   3.758   1.214  0.6319 -0.6064 -0.2538
17981TIP3    H175434   3.257   3.853   1.212  2.2685 -0.7863  1.4480
17981TIP3    H275435   3.191   3.744   1.294  2.8087 -1.4205  1.0578
17982TIP3   OH275436   0.263   3.374  10.801 -0.4350 -0.2868 -0.0920
17982TIP3    H175437   0.173   3.368  10.831 -0.2617 -0.9413  0.3130
17982TIP3    H275438   0.266   3.318  10.723 -0.3744 -0.2791 -0.0954
17983TIP3   OH275439   3.568   5.838  15.257 -0.2275 -0.0060 -0.2277
17983TIP3    H175440   3.533   5.826  15.169 -2.1490 -0.0076  0.4842
17983TIP3    H275441   3.519   5.776  15.311  0.3654  0.5321  0.9721
17984TIP3   OH275442   1.934   3.372  12.072 -0.6413 -0.4104  0.3507
17984TIP3    H175443   2.014   3.410  12.107 -0.0299 -1.6488  0.3791
17984TIP3    H275444   1.865   3.406  12.128 -0.3467  1.8215 -0.5596
17985TIP3   OH275445   1.603   3.958   2.499 -0.3572  0.2442 -0.1036
17985TIP3    H175446   1.508   3.972   2.504 -0.5027 -0.6911 -0.1070
17985TIP3    H275447   1.614   3.883   2.441  0.2315 -1.0849  1.6313
17986TIP3   OH275448   1.365   3.697   2.555 -0.0411  0.3140 -0.0745
17986TIP3    H175449   1.425   3.756   2.511  1.5287 -2.8671 -2.6362
17986TIP3    H275450   1.283   3.706   2.506  0.2373  0.2818 -0.5574
17987TIP3   OH275451   0.162   1.030  13.454  0.1826  0.5969  0.7943
17987TIP3    H175452   0.128   1.109  13.495  0.1413  0.6045  0.7454
17987TIP3    H275453   0.150   0.961  13.519  1.3841  0.8785  1.3381
17988TIP3   OH275454   2.709   1.927   5.001 -0.1845 -0.0827  0.0400
17988TIP3    H175455   2.752   1.960   4.922  0.4206  0.9496  0.7674
17988TIP3    H275456   2.633   1.878   4.969  0.8520 -0.9304 -1.2273
17989TIP3   OH275457   6.061   3.250   1.407  0.1321  0.3783 -0.2975
17989TIP3    H175458   6.001   3.325   1.417  0.9541  1.1680 -1.0886
17989TIP3    H275459   6.111   3.249   1.488  0.7859  1.3164 -0.6668
17990TIP3   OH275460   5.052   4.078  14.393  0.4306 -0.6011 -0.1219
17990TIP3    H175461   5.073   4.085  14.486 -1.2144 -1.4569  0.3669
17990TIP3    H275462   4.971   4.128  14.383 -1.1281 -3.0027 -0.3924
17991TIP3   OH275463   3.630   2.921  15.708 -0.1028 -0.0434 -0.8610
17991TIP3    H175464   3.570   2.988  15.675  0.5669  0.5104 -0.9827
17991TIP3    H275465   3.585   2.839  15.692 -1.9575  0.4428  1.3174
17992TIP3   OH275466   2.777   3.086   4.428 -0.3562 -0.2181  0.2828
17992TIP3    H175467   2.796   2.993   4.443  0.7209  0.1436  1.2903
17992TIP3    H275468   2.685   3.095   4.450 -0.8870 -1.3165 -1.2455
17993TIP3   OH275469   6.624   3.329   3.555  0.2253 -0.3256 -0.2231
17993TIP3    H175470   6.679   3.261   3.517  0.1158 -1.7342  1.9520
17993TIP3    H275471   6.684   3.402   3.572  1.0527 -1.0995  0.2949
17994TIP3   OH275472   1.849   5.926  11.613 -0.3168 -0.7690  0.0912
17994TIP3    H175473   1.814   5.992  11.673 -0.7866 -0.7640 -0.1805
17994TIP3    H275474   1.927   5.893  11.657  0.4599  0.6218 -0.1957
17995TIP3   OH275475   1.550   6.137   5.278 -0.0947 -0.0827 -0.9599
17995TIP3    H175476   1.500   6.219   5.281  0.8836  0.5144 -0.2405
17995TIP3    H275477   1.637   6.163   5.248  0.6219 -0.6256  0.5121
17996TIP3   OH275478   1.923   4.337  15.793 -0.0224  0.9012 -0.1713
17996TIP3    H175479   1.950   4.421  15.829  0.4901  0.9892 -0.7362
17996TIP3    H275480   1.846   4.312  15.844 -1.3846  2.6333 -1.2487
17997TIP3   OH275481   5.082   3.444  17.282  0.1647 -0.1209  0.0166
17997TIP3    H175482   5.010   3.388  17.254  1.6768 -1.3629 -1.6743
17997TIP3    H275483   5.150   3.382  17.311  0.5674  1.0012  1.5694
17998TIP3   OH275484   3.516   3.605   5.664 -0.2479  0.1340  0.2855
17998TIP3    H175485   3.494   3.690   5.627  0.5513  0.0036 -0.5173
17998TIP3    H275486   3.572   3.625   5.739  1.7732  0.2826 -1.1934
17999TIP3   OH275487   6.133   5.331   6.577  0.1491  0.5960  0.0914
17999TIP3    H175488   6.163   5.294   6.494 -2.0106 -0.0168 -0.4853
17999TIP3    H275489   6.162   5.422   6.574  0.3111  0.5245 -1.2349
18000TIP3   OH275490   5.755   5.119  10.526 -0.2862 -0.2190 -0.0295
18000TIP3    H175491   5.702   5.152  10.453 -0.3003 -0.5578 -0.1707
18000TIP3    H275492   5.697   5.060  10.574 -1.3198  2.2747  2.0451
18001TIP3   OH275493   1.599   6.306  12.944 -0.7556  0.0846  0.1406
18001TIP3    H175494   1.590   6.253  13.023 -0.5469 -1.2528 -0.6974
18001TIP3    H275495   1.607   6.242  12.873  1.1401  1.2010 -0.7456
18002TIP3   OH275496   3.490   5.750  14.995  0.3985 -0.0001 -0.0600
18002TIP3    H175497   3.451   5.686  14.936  0.4539 -0.0941  0.0055
18002TIP3    H275498   3.580   5.759  14.964 -0.6160  3.1809 -2.7767
18003TIP3   OH275499   5.165   4.326  14.011 -0.0821  0.0631  0.0772
18003TIP3    H175500   5.248   4.373  14.024  2.5569 -3.4010 -2.4204
18003TIP3    H275501   5.169   4.253  14.073 -1.1017 -0.3611 -0.3440
18004TIP3   OH275502   1.354   4.967   1.875  0.2889  0.2370  0.7531
18004TIP3    H175503   1.326   5.025   1.804  1.5483  0.2057  0.1947
18004TIP3    H275504   1.446   4.989   1.889  1.0387 -2.0638  0.0413
18005TIP3   OH275505   2.893   4.989   3.207  0.1499  0.4366 -0.3464
18005TIP3    H175506   2.812   4.985   3.257  0.6891 -0.0458  0.5159
18005TIP3    H275507   2.960   5.013   3.271  1.0030 -1.0371 -0.6247
18006TIP3   OH275508   1.036   0.463   2.428  0.2301  0.1589 -0.4051
18006TIP3    H175509   0.972   0.489   2.494 -2.4313  0.8268 -3.0217
18006TIP3    H275510   1.112   0.436   2.478 -1.5825  0.6211  2.9039
18007TIP3   OH275511   4.777   4.641   5.970 -0.0817 -0.3981  0.1353
18007TIP3    H175512   4.822   4.645   6.054  0.3927  0.0149 -0.1266
18007TIP3    H275513   4.814   4.565   5.926  0.9723  0.3906 -0.3994
18008TIP3   OH275514   4.562   3.646  17.236  0.0067  0.1785  0.0223
18008TIP3    H175515   4.638   3.640  17.293  1.0440  2.5062 -0.9545
18008TIP3    H275516   4.492   3.679  17.292 -0.3400 -1.8854  0.9054
18009TIP3   OH275517   4.502   1.305  14.404 -0.3712  0.5134  0.0670
18009TIP3    H175518   4.488   1.254  14.325  0.1461 -0.3168  0.4974
18009TIP3    H275519   4.591   1.340  14.394  0.3195 -0.8980  0.9702
18010TIP3   OH275520   4.680   2.631   4.955 -0.2150  0.0279 -0.4128
18010TIP3    H175521   4.769   2.623   4.989  0.2072  0.9247 -1.2761
18010TIP3    H275522   4.639   2.547   4.978  0.6318 -0.1480  0.5708
18011TIP3   OH275523   4.095   1.631   1.393 -0.4783 -0.3226  0.1362
18011TIP3    H175524   4.089   1.688   1.316  2.6532 -0.3475 -0.2336
18011TIP3    H275525   4.157   1.563   1.367 -0.2694 -1.0148  2.3014
18012TIP3   OH275526   0.619   1.603  12.721 -0.0671  0.9221 -0.0480
18012TIP3    H175527   0.690   1.662  12.746  2.2749 -1.2649 -1.1323
18012TIP3    H275528   0.577   1.647  12.647  0.6207  1.9038  0.1184
18013TIP3   OH275529   4.169   1.386   1.326  0.6566 -0.2959  0.2208
18013TIP3    H175530   4.164   1.293   1.308  2.8588 -0.0985 -1.8605
18013TIP3    H275531   4.261   1.402   1.347  0.4185  1.4900  0.0622
18014TIP3   OH275532   2.910   5.772   4.929  0.1168 -0.2818  0.0154
18014TIP3    H175533   2.945   5.749   4.843 -1.5065 -2.2708 -0.1852
18014TIP3    H275534   2.906   5.689   4.977  0.3595  0.6781  1.7886
18015TIP3   OH275535   0.897   5.727  16.297 -0.1367 -0.1213  0.0598
18015TIP3    H175536   0.813   5.771  16.286 -0.6045 -1.1345 -0.6054
18015TIP3    H275537   0.959   5.781  16.248 -0.4894  0.3820  0.1644
18016TIP3   OH275538   2.093   3.012   4.330  0.0165 -0.1070 -0.6557
18016TIP3    H175539   2.184   3.038   4.310 -0.0620 -0.1843 -1.1408
18016TIP3    H275540   2.093   2.917   4.318 -0.4044  0.0200 -1.8561
18017TIP3   OH275541   4.781   3.459  15.198 -0.1829 -0.7286  0.0014
18017TIP3    H175542   4.794   3.515  15.275 -1.4130 -0.9035  0.3474
18017TIP3    H275543   4.796   3.517  15.123  2.3558 -0.8618  0.3247
18018TIP3   OH275544   2.172   6.176  11.455  0.2876 -0.7158 -0.0962
18018TIP3    H175545   2.159   6.186  11.549 -1.9986 -0.8725 -0.3206
18018TIP3    H275546   2.181   6.266  11.422  2.6940 -0.7241  0.4011
18019TIP3   OH275547   5.513   1.657   4.316  0.5875 -0.7795  0.3697
18019TIP3    H175548   5.493   1.674   4.224  1.6931 -1.2104  0.0382
18019TIP3    H275549   5.529   1.744   4.353  3.4791 -0.7804 -0.6656
18020TIP3   OH275550   6.694   2.033   4.388  0.1927 -0.4724  0.1714
18020TIP3    H175551   6.730   2.006   4.304 -0.3570 -1.4084  0.2248
18020TIP3    H275552   6.747   2.110   4.413  0.4375 -0.2551 -0.9548
18021TIP3   OH275553   6.482   1.476  12.870  0.2130 -0.4889  0.3218
18021TIP3    H175554   6.577   1.464  12.876  0.0626 -1.7407  0.2946
18021TIP3    H275555   6.451   1.475  12.961  0.2684  0.4050  0.3619
18022TIP3   OH275556   0.474   3.257  17.057  0.2361 -0.4152  0.0269
18022TIP3    H175557   0.439   3.272  16.970 -1.5838  0.8223  0.9232
18022TIP3    H275558   0.493   3.163  17.059 -0.1771 -0.5562 -1.5095
18023TIP3   OH275559   4.761   5.536   0.701  0.5597 -0.4113 -0.1218
18023TIP3    H175560   4.711   5.463   0.738 -0.0466  0.0642  0.0008
18023TIP3    H275561   4.700   5.609   0.700  1.5783  0.4999  1.1251
18024TIP3   OH275562   2.841   2.672   4.883 -0.2785  0.1284  0.7324
18024TIP3    H175563   2.763   2.725   4.898 -0.6903 -0.4358  0.6356
18024TIP3    H275564   2.901   2.730   4.837 -1.5897 -0.1335 -1.4601
18025TIP3   OH275565   3.919   0.556   4.596 -0.3822 -0.2745 -1.1496
18025TIP3    H175566   3.879   0.594   4.675  1.3838 -0.0029 -0.3258
18025TIP3    H275567   3.925   0.629   4.535  0.3787  0.1083 -0.6365
18026TIP3   OH275568   4.290   4.871  14.434 -0.1059 -0.8417 -0.4302
18026TIP3    H175569   4.277   4.786  14.476 -0.7672 -0.7622 -0.4657
18026TIP3    H275570   4.370   4.860  14.382 -1.8807 -2.5164 -3.0569
18027TIP3   OH275571   5.303   0.075   2.159  0.0503 -0.7504  0.1481
18027TIP3    H175572   5.258   0.007   2.109 -2.4687  2.1189 -1.8573
18027TIP3    H275573   5.338   0.134   2.093  0.0549  1.1603  1.7578
18028TIP3   OH275574   3.313   5.645   3.697 -0.0622 -0.4741 -0.3051
18028TIP3    H175575   3.338   5.612   3.784 -0.2936  1.1584  0.4180
18028TIP3    H275576   3.217   5.642   3.698 -0.0951  0.4639 -0.1156
18029TIP3   OH275577   5.675   5.433  12.128 -0.0027  0.7456 -0.7598
18029TIP3    H175578   5.597   5.377  12.127 -0.0477  0.8046 -1.5419
18029TIP3    H275579   5.748   5.372  12.136 -0.1280  0.6935  0.0447
18030TIP3   OH275580   3.287   4.847  15.049  0.0250 -0.4604  0.4922
18030TIP3    H175581   3.223   4.913  15.074  0.8203 -0.1937  1.9420
18030TIP3    H275582   3.288   4.850  14.954 -2.8068 -1.1712  0.3667
18031TIP3   OH275583   4.176   4.105  16.351  0.2572  0.5322 -0.4624
18031TIP3    H175584   4.091   4.068  16.373  0.1846 -0.5608 -2.3513
18031TIP3    H275585   4.239   4.054  16.402 -0.0748  0.0081 -0.5749
18032TIP3   OH275586   6.566   0.377   4.689 -0.9625  0.0422 -0.6989
18032TIP3    H175587   6.608   0.329   4.618  0.5865 -0.3811  0.4744
18032TIP3    H275588   6.553   0.465   4.653  0.6882  0.1052 -1.1927
18033TIP3   OH275589   2.754   0.148   0.674 -0.4370  0.2022  0.0106
18033TIP3    H175590   2.777   0.219   0.614  2.3684 -1.9863 -1.7213
18033TIP3    H275591   2.734   0.074   0.617 -0.8955 -1.0866  1.7786
18034TIP3   OH275592   4.758   2.858   3.991  0.0824  0.4904 -0.4660
18034TIP3    H175593   4.796   2.943   3.968  2.1302 -0.0858  0.5057
18034TIP3    H275594   4.770   2.805   3.912  1.0158  0.4428 -0.3132
18035TIP3   OH275595   6.466   1.633   4.667  0.0427  0.2191 -0.3063
18035TIP3    H175596   6.488   1.714   4.621  0.7230  0.0377 -0.3141
18035TIP3    H275597   6.545   1.580   4.660  0.2912  0.3161  1.3449
18036TIP3   OH275598   0.597   5.696   5.631 -0.3926  0.1176 -0.2365
18036TIP3    H175599   0.632   5.623   5.684 -0.6183  0.0753 -0.1439
18036TIP3    H275600   0.510   5.711   5.667 -0.1020  0.8615  0.1691
18037TIP3   OH275601   2.556   5.082   3.199 -0.5276  0.4649 -0.0019
18037TIP3    H175602   2.611   5.043   3.267  0.2543  0.5367 -0.5850
18037TIP3    H275603   2.483   5.120   3.247 -0.9801 -1.1330  0.6485
18038TIP3   OH275604   0.102   0.456   0.370 -0.0869 -0.4163  0.1833
18038TIP3    H175605   0.178   0.439   0.314 -0.1065 -1.3134  0.4120
18038TIP3    H275606   0.134   0.440   0.459  0.2434  2.0310  0.5658
18039TIP3   OH275607   0.620   2.400   5.678 -0.3540 -0.4152 -0.0144
18039TIP3    H175608   0.632   2.368   5.589  0.2489 -0.5465  0.1098
18039TIP3    H275609   0.597   2.322   5.729  2.3771 -0.9342  0.5359
18040TIP3   OH275610   2.393   6.155   5.791 -0.0314 -0.0929  0.0955
18040TIP3    H175611   2.320   6.124   5.846 -0.0455  1.5821  1.0836
18040TIP3    H275612   2.471   6.137   5.843  0.2255 -1.2109 -0.6474
18041TIP3   OH275613   6.777   5.707  11.483 -0.5257  0.3041 -0.8363
18041TIP3    H175614   6.807   5.631  11.532 -0.0108  1.8019  1.3396
18041TIP3    H275615   6.856   5.742  11.442 -0.4317  0.6260 -0.3929
18042TIP3   OH275616   0.648   1.982  17.320  0.2781 -0.1983 -0.2583
18042TIP3    H175617   0.600   1.929  17.257 -0.6784  0.5233 -0.1648
18042TIP3    H275618   0.582   2.009  17.384  0.3267  2.4824 -1.2062
18043TIP3   OH275619   2.637   3.211  10.592 -0.3186 -0.2421 -0.1053
18043TIP3    H175620   2.554   3.179  10.557  0.1869 -2.1752  0.3706
18043TIP3    H275621   2.704   3.165  10.542  0.4263 -1.6034  2.0199
18044TIP3   OH275622   3.051   3.568   2.789  0.2180  0.1939  0.0906
18044TIP3    H175623   3.000   3.505   2.841 -4.5084  1.9403 -1.9075
18044TIP3    H275624   3.085   3.516   2.717  0.6297 -0.8846  1.0195
18045TIP3   OH275625   0.870   5.119   1.161  0.1509  0.2537  0.1579
18045TIP3    H175626   0.847   5.068   1.083 -1.3211  2.8431 -1.2104
18045TIP3    H275627   0.962   5.142   1.148  0.5288 -1.0903  0.2795
18046TIP3   OH275628   5.748   3.329  14.764  0.7355 -0.7375 -0.0091
18046TIP3    H175629   5.709   3.415  14.754  0.1702 -0.9015  0.7167
18046TIP3    H275630   5.772   3.323  14.856  1.8061 -0.9276 -0.2876
18047TIP3   OH275631   6.097   6.312   0.403  0.3893 -0.2499 -0.5051
18047TIP3    H175632   6.065   6.257   0.332 -0.7569  1.4238 -1.3554
18047TIP3    H275633   6.049   6.281   0.480 -1.0465  0.2075 -1.1750
18048TIP3   OH275634   0.759   5.473   5.738  0.3048  0.2633 -0.5352
18048TIP3    H175635   0.734   5.388   5.774 -1.4724  1.1011  0.3302
18048TIP3    H275636   0.754   5.461   5.643  2.4861 -1.2400 -0.5302
18049TIP3   OH275637   6.052   5.302   0.937 -0.1682  0.3019 -0.2367
18049TIP3    H175638   6.094   5.240   0.877 -1.7528  0.4795 -1.6174
18049TIP3    H275639   6.012   5.246   1.003  0.2136 -0.0156 -0.2705
18050TIP3   OH275640   0.908   1.700  15.955  0.7171  0.1220 -0.2259
18050TIP3    H175641   0.959   1.620  15.971 -2.0071 -1.1331  3.5182
18050TIP3    H275642   0.966   1.771  15.983  1.4298 -1.0402  1.4400
18051TIP3   OH275643   3.145   2.292  16.840 -0.2855  0.5617  0.8113
18051TIP3    H175644   3.068   2.347  16.853 -0.2987  0.3968  1.4732
18051TIP3    H275645   3.127   2.213  16.891 -1.0074 -0.8216 -1.4689
18052TIP3   OH275646   6.735   5.039  11.410  0.5700  0.0247 -0.3401
18052TIP3    H175647   6.828   5.056  11.401  0.2783  1.9552 -0.0777
18052TIP3    H275648   6.713   5.067  11.499 -0.5151  1.1067 -0.9021
18053TIP3   OH275649   6.801   0.191   4.089 -0.1217  0.3819 -0.0426
18053TIP3    H175650   6.846   0.116   4.126 -1.2188  0.9788  2.7521
18053TIP3    H275651   6.855   0.266   4.113 -0.7359  0.7749  0.1489
18054TIP3   OH275652   0.014   2.346   1.025  0.1098  0.0471 -0.0208
18054TIP3    H175653   0.012   2.424   1.079  0.0117 -0.0181  0.0696
18054TIP3    H275654   0.069   2.370   0.950 -1.0798  0.6668 -0.7229
18055TIP3   OH275655   2.353   1.485   2.796  0.1173  0.7614 -0.2655
18055TIP3    H175656   2.392   1.572   2.787  0.0350  0.6580 -2.0434
18055TIP3    H275657   2.287   1.481   2.727  0.6715 -0.9914 -0.7430
18056TIP3   OH275658   4.629   6.589   5.370  0.4161 -0.4677 -0.4451
18056TIP3    H175659   4.578   6.666   5.394  0.9608 -0.4788  0.8692
18056TIP3    H275660   4.717   6.623   5.351  0.9198 -0.8266  1.0919
18057TIP3   OH275661   0.247   2.682  15.372  0.6206 -0.2415 -0.2018
18057TIP3    H175662   0.195   2.639  15.440  0.1093  0.4385 -0.1529
18057TIP3    H275663   0.303   2.612  15.337 -0.6732 -1.1136 -0.6039
18058TIP3   OH275664   2.416   4.911   5.809  0.5215  0.5264  0.0616
18058TIP3    H175665   2.431   4.829   5.763 -0.9797  0.2670 -0.0140
18058TIP3    H275666   2.401   4.886   5.900  1.6472  0.8794  0.3655
18059TIP3   OH275667   4.225   4.675   2.105 -0.2137 -0.8178  0.7271
18059TIP3    H175668   4.300   4.725   2.137 -0.2567  0.8339 -1.4784
18059TIP3    H275669   4.150   4.734   2.118 -0.6788 -1.3107  0.3220
18060TIP3   OH275670   5.565   5.353   5.829 -0.0480 -0.3241 -0.0801
18060TIP3    H175671   5.550   5.342   5.923 -0.5640 -0.4257 -0.1680
18060TIP3    H275672   5.656   5.327   5.815  0.5527  1.2505  0.6440
18061TIP3   OH275673   3.598   0.885  16.222  0.2208  0.0765  0.2124
18061TIP3    H175674   3.692   0.902  16.219  0.0244  1.2640  0.5488
18061TIP3    H275675   3.589   0.797  16.186  1.5870 -0.5883  1.3794
18062TIP3   OH275676   4.140   2.079   0.896  0.1164  0.1278  0.9611
18062TIP3    H175677   4.087   2.080   0.817 -0.4847 -1.0541  1.3208
18062TIP3    H275678   4.192   1.998   0.889 -0.2266 -0.1920  1.9365
18063TIP3   OH275679   1.442   2.507   3.288  0.0139  0.2711 -0.3773
18063TIP3    H175680   1.472   2.571   3.223  0.5301  0.8420  0.4149
18063TIP3    H275681   1.353   2.485   3.259  0.1001  0.7873 -1.0748
18064TIP3   OH275682   1.290   0.957   4.370 -0.7896 -0.2567  0.4797
18064TIP3    H175683   1.250   0.870   4.368 -0.4815 -0.3892 -0.0515
18064TIP3    H275684   1.355   0.952   4.441 -0.5731 -0.5508  0.2639
18065TIP3   OH275685   0.986   0.242   0.389 -0.4617 -0.3312 -0.0002
18065TIP3    H175686   0.898   0.246   0.353 -0.2142 -0.1357 -0.5965
18065TIP3    H275687   1.032   0.317   0.350  0.2768 -1.0518 -0.5315
18066TIP3   OH275688   5.351   4.138   5.174 -0.6016  0.5746 -0.3784
18066TIP3    H175689   5.281   4.089   5.130  0.2612  0.9054 -2.2184
18066TIP3    H275690   5.346   4.226   5.137  0.3300  0.7916 -0.0171
18067TIP3   OH275691   3.729   0.176  15.396  0.1922  0.1193 -0.8659
18067TIP3    H175692   3.736   0.201  15.304 -0.6246 -3.6078 -2.1022
18067TIP3    H275693   3.659   0.231  15.431 -0.0761  1.0078 -2.7036
18068TIP3   OH275694   2.472   0.863  15.076 -0.4224  0.2321  0.2187
18068TIP3    H175695   2.537   0.877  15.144 -0.0722  1.4139 -0.3312
18068TIP3    H275696   2.505   0.911  15.000 -1.3533 -0.1184 -0.4363
18069TIP3   OH275697   0.688   6.502   0.688  0.7194 -0.0904 -0.6026
18069TIP3    H175698   0.650   6.478   0.772  2.4507 -2.3348 -0.3688
18069TIP3    H275699   0.614   6.528   0.633 -0.6259 -0.3920  1.0295
18070TIP3   OH275700   5.883   1.115  13.556  0.2197 -0.0544 -0.0549
18070TIP3    H175701   5.811   1.157  13.603 -2.4057 -0.7509 -3.1261
18070TIP3    H275702   5.902   1.036  13.606 -1.4713 -0.0980  0.5685
18071TIP3   OH275703   5.636   4.999  13.390 -0.0401  0.5288 -0.5352
18071TIP3    H175704   5.665   4.923  13.341  1.5432  1.8829 -1.8266
18071TIP3    H275705   5.628   5.068  13.324 -0.1901  1.7989  0.7732
18072TIP3   OH275706   4.701   0.730   4.431 -0.2775 -0.0997 -0.0839
18072TIP3    H175707   4.620   0.779   4.442  0.4921  1.2667 -0.2526
18072TIP3    H275708   4.745   0.774   4.358 -0.8523 -2.8584 -2.2462
18073TIP3   OH275709   6.130   3.979  15.383  0.4588 -0.6042  0.1250
18073TIP3    H175710   6.206   3.926  15.359  1.1430  0.9427 -1.3164
18073TIP3    H275711   6.166   4.051  15.434 -0.3242 -0.9268  1.1567
18074TIP3   OH275712   0.091   0.553  12.724  0.2888  0.1077 -0.5466
18074TIP3    H175713   0.122   0.479  12.775  1.2120  0.9573  0.1579
18074TIP3    H275714   0.159   0.568  12.659 -0.5919 -0.5794 -1.6661
18075TIP3   OH275715   0.136   1.937   4.775 -0.1758  0.0673  0.0895
18075TIP3    H175716   0.102   2.012   4.823 -1.5003 -0.7067  0.3921
18075TIP3    H275717   0.218   1.969   4.736 -0.9357  1.8054 -0.1707
18076TIP3   OH275718   4.979   3.861   2.240  0.0366  0.6678 -0.1514
18076TIP3    H175719   4.968   3.945   2.194  1.1524 -0.8622 -3.5379
18076TIP3    H275720   5.071   3.839   2.228 -0.0176 -0.6372  1.5146
18077TIP3   OH275721   1.516   6.265  13.914  1.0286  0.3608  0.5480
18077TIP3    H175722   1.529   6.210  13.991  0.4865  0.0432  0.4175
18077TIP3    H275723   1.423   6.288  13.916  1.1512  0.8906  0.3481
18078TIP3   OH275724   4.386   3.741   3.971  0.2067  0.1575 -0.0437
18078TIP3    H175725   4.335   3.742   3.890  0.9756  0.0615 -0.5316
18078TIP3    H275726   4.320   3.735   4.040 -0.3898 -1.7733 -0.7256
18079TIP3   OH275727   4.091   1.763   0.211 -0.0825 -0.1313 -0.1964
18079TIP3    H175728   4.168   1.800   0.255 -0.1759 -0.3611  0.1648
18079TIP3    H275729   4.122   1.736   0.125  0.3091 -0.4899  0.0571
18080TIP3   OH275730   5.831   0.386  13.527  0.9239 -0.2493  0.3747
18080TIP3    H175731   5.856   0.371  13.436 -0.4254  0.2482 -0.1123
18080TIP3    H275732   5.888   0.457  13.557 -0.4920  1.5697 -1.0191
18081TIP3   OH275733   5.547   4.462  15.994 -0.5566  0.0944  0.0798
18081TIP3    H175734   5.514   4.412  15.919  0.0587  0.5739 -0.5226
18081TIP3    H275735   5.528   4.553  15.972 -1.0688  0.1946  0.8697
18082TIP3   OH275736   3.841   2.635   3.786  0.1211 -0.7192  0.2578
18082TIP3    H175737   3.873   2.710   3.736 -1.5819 -0.6817 -0.8486
18082TIP3    H275738   3.913   2.573   3.786  1.9249  1.1731  1.9146
18083TIP3   OH275739   4.975   4.859   3.321 -0.0772  0.0707  0.7217
18083TIP3    H175740   5.058   4.811   3.322  1.2585  2.0894 -1.6700
18083TIP3    H275741   4.997   4.946   3.352 -1.2436  0.6916 -0.1038
18084TIP3   OH275742   5.336   4.489   2.262 -0.3606  0.8625  0.1566
18084TIP3    H175743   5.361   4.496   2.170 -0.5990  0.8122  0.0867
18084TIP3    H275744   5.266   4.553   2.273  1.1508  2.4630  0.8462
18085TIP3   OH275745   6.735   4.307   1.767 -0.2426 -0.3530 -0.2369
18085TIP3    H175746   6.666   4.342   1.710  0.1070  0.3711 -0.2210
18085TIP3    H275747   6.816   4.324   1.720 -0.0076 -0.4322  0.1387
18086TIP3   OH275748   1.530   4.114  14.773 -0.4299  0.3115 -0.2068
18086TIP3    H175749   1.489   4.168  14.840 -0.0311 -0.3890  0.6174
18086TIP3    H275750   1.592   4.172  14.730 -0.1054  0.5536  0.5753
18087TIP3   OH275751   1.326   3.485   2.265 -0.0492 -0.6536  0.1191
18087TIP3    H175752   1.260   3.458   2.328  0.9096  1.8201  2.3821
18087TIP3    H275753   1.314   3.580   2.257  3.1865 -0.0807  0.7296
18088TIP3   OH275754   3.535   2.654   6.079 -0.3456  0.0205  0.3607
18088TIP3    H175755   3.572   2.583   6.027 -0.0595 -0.0957  0.7171
18088TIP3    H275756   3.507   2.719   6.014 -0.4108 -0.3186  0.0428
18089TIP3   OH275757   3.255   2.142  15.957 -0.2587 -0.4095 -0.1667
18089TIP3    H175758   3.288   2.106  16.039  1.5035  1.7823  0.2186
18089TIP3    H275759   3.178   2.193  15.982  1.0036  1.3197  0.4677
18090TIP3   OH275760   0.447   5.748   6.538 -0.1023  0.2987 -0.0053
18090TIP3    H175761   0.524   5.741   6.480 -0.4629  3.3194 -1.0423
18090TIP3    H275762   0.484   5.758   6.625  0.5636 -0.8012 -0.1361
18091TIP3   OH275763   3.779   0.208  13.872  0.3472 -0.1290 -0.2534
18091TIP3    H175764   3.717   0.233  13.804 -0.8524  1.2197  1.2438
18091TIP3    H275765   3.743   0.126  13.907  0.7190 -0.5851 -0.9170
18092TIP3   OH275766   3.598   6.096   0.475 -0.3644 -0.3085  0.0022
18092TIP3    H175767   3.525   6.142   0.436  0.6062  1.0094 -0.3292
18092TIP3    H275768   3.668   6.100   0.409 -0.1483 -2.0312  0.0701
18093TIP3   OH275769   2.769   2.226   5.987  0.0579 -0.1044 -0.1758
18093TIP3    H175770   2.684   2.197   6.018 -0.4207 -0.5019 -1.7556
18093TIP3    H275771   2.819   2.245   6.066 -1.7576  0.9215  0.7665
18094TIP3   OH275772   5.034   2.904   5.039 -0.2545 -0.2480 -0.2600
18094TIP3    H175773   5.094   2.962   4.991 -0.5749 -0.3508 -0.7963
18094TIP3    H275774   4.954   2.955   5.047 -0.1379 -0.1574  0.3493
18095TIP3   OH275775   0.631   1.552   4.987  0.3114  0.2107  0.1288
18095TIP3    H175776   0.664   1.583   4.903 -0.1067 -0.2179 -0.2036
18095TIP3    H275777   0.686   1.476   5.008  0.1179  0.0425  0.0210
18096TIP3   OH275778   2.614   1.978  17.144  0.1248  0.3682  0.0803
18096TIP3    H175779   2.682   1.926  17.188 -0.0390  0.4232  0.4015
18096TIP3    H275780   2.619   2.064  17.186 -0.6554  0.1503  0.6350
18097TIP3   OH275781   5.298   1.039  11.477  0.1221  0.0439  0.0783
18097TIP3    H175782   5.233   1.100  11.512  1.0802  0.5441  1.0392
18097TIP3    H275783   5.296   0.964  11.537 -0.9151 -0.8176 -0.9890
18098TIP3   OH275784   0.961   0.835  14.397  0.0995  0.4456  0.1098
18098TIP3    H175785   0.948   0.760  14.339  3.6603 -1.9627  2.0537
18098TIP3    H275786   0.878   0.843  14.445 -1.2103 -0.5754 -1.8632
18099TIP3   OH275787   3.960   0.185  14.704 -0.3137  0.1562  0.4054
18099TIP3    H175788   3.935   0.134  14.626  1.5783 -1.0133  0.4944
18099TIP3    H275789   3.883   0.181  14.761 -1.0919 -0.4937 -0.6523
18100TIP3   OH275790   4.495   1.643   5.040  0.0087  0.5196  0.1650
18100TIP3    H175791   4.548   1.684   4.972 -2.7227  1.5722 -1.4585
18100TIP3    H275792   4.517   1.550   5.035  1.9540  0.9522 -0.1203
18101TIP3   OH275793   5.793   5.770  14.501  0.9994  0.0356  0.1127
18101TIP3    H175794   5.745   5.843  14.539  1.7376  0.5342  0.0953
18101TIP3    H275795   5.761   5.693  14.550 -0.9330  0.1199 -0.9092
18102TIP3   OH275796   4.886   6.276  16.879  0.5549  0.3834  0.6500
18102TIP3    H175797   4.838   6.308  16.955 -0.4476 -1.5773  0.9004
18102TIP3    H275798   4.977   6.268  16.910  0.6305  1.8741  0.8782
18103TIP3   OH275799   1.950   5.290   0.932  0.2451 -0.0934 -0.1534
18103TIP3    H175800   1.859   5.271   0.954  0.6608 -1.5277  0.4258
18103TIP3    H275801   1.947   5.375   0.888 -1.4566 -0.5119 -0.8999
18104TIP3   OH275802   6.502   3.076   1.868 -1.2019 -0.0370  0.0035
18104TIP3    H175803   6.409   3.095   1.877 -1.0780  1.0702 -0.9369
18104TIP3    H275804   6.520   3.087   1.775 -0.2454 -0.8130  0.0858
18105TIP3   OH275805   1.912   6.407  15.070 -0.1436  0.7294  0.2919
18105TIP3    H175806   1.874   6.495  15.075  2.2130  1.9291 -1.3191
18105TIP3    H275807   1.916   6.388  14.976  2.2115  0.2597  0.4361
18106TIP3   OH275808   4.298   1.982  16.074  0.3148 -0.2481  0.3394
18106TIP3    H175809   4.245   2.020  16.143  1.7661  2.1602  0.2311
18106TIP3    H275810   4.287   1.887  16.085 -0.9793  0.0889  2.6370
18107TIP3   OH275811   5.309   6.668   0.801  0.2799 -0.5690 -0.8482
18107TIP3    H175812   5.327   6.591   0.856 -0.4513  0.5817  1.1129
18107TIP3    H275813   5.364   6.737   0.839 -0.8435  0.4589 -1.0636
18108TIP3   OH275814   2.888   0.929  15.428  0.0627 -0.2081  0.0264
18108TIP3    H175815   2.843   1.003  15.469 -0.3252  0.2948 -1.2594
18108TIP3    H275816   2.975   0.963  15.407  0.6138 -0.7653  1.2683
18109TIP3   OH275817   5.015   2.683  16.411 -0.4631 -0.4280  0.6382
18109TIP3    H175818   4.998   2.763  16.461  1.0104 -0.2748  0.9343
18109TIP3    H275819   4.957   2.689  16.336  1.3480  2.1747 -0.6962
18110TIP3   OH275820   3.773   0.326   5.545 -0.2109  0.2062 -0.1217
18110TIP3    H175821   3.809   0.368   5.623  0.7717 -3.0592  1.3494
18110TIP3    H275822   3.823   0.365   5.473 -0.6816  2.8150  0.8339
18111TIP3   OH275823   5.340   6.524  13.434 -0.2652 -0.2457  0.3412
18111TIP3    H175824   5.316   6.596  13.376 -0.5453 -0.6530 -0.0561
18111TIP3    H275825   5.323   6.445  13.383 -0.1532 -0.6023  0.8431
18112TIP3   OH275826   4.485   1.615   5.375 -0.3341 -0.1098 -0.1662
18112TIP3    H175827   4.413   1.563   5.340  0.6239 -0.8766 -1.0790
18112TIP3    H275828   4.461   1.633   5.465 -1.5405 -0.5640 -0.3775
18113TIP3   OH275829   4.911   0.798  16.927 -0.0966 -0.3924  0.2942
18113TIP3    H175830   4.827   0.827  16.963  0.6943 -0.8347  2.6540
18113TIP3    H275831   4.890   0.720  16.875 -1.2701  0.1831 -0.1342
18114TIP3   OH275832   6.619   1.386   5.190 -0.0443  0.3227  0.1996
18114TIP3    H175833   6.684   1.455   5.192 -0.9854  1.2300  1.2004
18114TIP3    H275834   6.542   1.425   5.148  0.2157 -0.9221 -1.5553
18115TIP3   OH275835   6.340   2.163  15.177 -0.0784 -0.6148  0.5818
18115TIP3    H175836   6.300   2.184  15.092  1.8073 -1.7554 -0.6623
18115TIP3    H275837   6.266   2.143  15.234 -1.3454 -1.3042 -1.2127
18116TIP3   OH275838   6.193   4.098  14.303  0.1684  0.0931  0.7737
18116TIP3    H175839   6.279   4.140  14.314 -0.2837  1.1605  0.3287
18116TIP3    H275840   6.143   4.126  14.380  0.2659 -0.6858  1.1310
18117TIP3   OH275841   3.338   1.177  12.501 -0.0828 -0.0934 -0.7638
18117TIP3    H175842   3.375   1.256  12.462 -0.5526  0.3396 -0.3497
18117TIP3    H275843   3.413   1.118  12.511  0.4145  0.5878 -0.3728
18118TIP3   OH275844   4.818   4.276   3.703 -0.3743  0.0143 -0.3058
18118TIP3    H175845   4.791   4.225   3.627 -1.8049  0.5891 -0.2203
18118TIP3    H275846   4.892   4.328   3.672  0.0546 -0.9010 -0.8440
18119TIP3   OH275847   1.115   3.759   0.660  0.5346 -0.5088  0.0105
18119TIP3    H175848   1.053   3.820   0.619 -0.7584 -1.9064 -0.1804
18119TIP3    H275849   1.129   3.796   0.747 -1.6298 -0.8352  0.5576
18120TIP3   OH275850   0.283   2.884   1.608 -0.3682  0.7067  0.0231
18120TIP3    H175851   0.280   2.970   1.568 -0.0504  0.3453 -0.7970
18120TIP3    H275852   0.323   2.898   1.694  0.4412  1.2467 -0.4375
18121TIP3   OH275853   1.907   4.454  14.059  0.0689 -0.3579  0.4757
18121TIP3    H175854   1.851   4.492  13.991  0.9068  0.4720  0.2288
18121TIP3    H275855   1.863   4.475  14.141 -1.0890 -1.5881  0.2115
18122TIP3   OH275856   0.907   3.179   1.488 -0.6039 -0.0809  0.0640
18122TIP3    H175857   0.990   3.225   1.477 -0.2570 -0.5954  0.5208
18122TIP3    H275858   0.931   3.087   1.499 -1.2742 -0.3434 -0.5440
18123TIP3   OH275859   2.323   4.520   2.376  0.0607  0.0681  0.2544
18123TIP3    H175860   2.297   4.493   2.464 -0.1137 -0.8162 -0.0632
18123TIP3    H275861   2.287   4.609   2.367  2.2617  1.2456  2.0104
18124TIP3   OH275862   0.612   3.994   5.077  0.0902  0.3851 -0.4035
18124TIP3    H175863   0.533   4.009   5.026  0.4243  0.9784 -0.7518
18124TIP3    H275864   0.680   4.044   5.032  0.9484 -1.1027 -0.8391
18125TIP3   OH275865   6.764   3.647  13.664 -0.3308 -0.0050 -0.1886
18125TIP3    H175866   6.802   3.694  13.739  0.8105  2.1839 -2.0066
18125TIP3    H275867   6.833   3.589  13.634 -1.0669 -1.4824  0.8788
18126TIP3   OH275868   3.897   4.492  11.143  0.1998  0.2632 -0.1875
18126TIP3    H175869   3.941   4.571  11.114 -0.0100 -0.1458 -1.7208
18126TIP3    H275870   3.952   4.420  11.111 -1.3038 -0.2485 -1.8225
18127TIP3   OH275871   5.560   4.637  14.902  0.2272  0.1856  0.0296
18127TIP3    H175872   5.612   4.679  14.833  0.1628  0.5399  0.1907
18127TIP3    H275873   5.488   4.698  14.918  0.1966  0.0694  0.3510
18128TIP3   OH275874   5.438   6.269  17.346 -0.0288  0.1096  0.6425
18128TIP3    H175875   5.481   6.186  17.322 -0.9659 -0.5277  1.1063
18128TIP3    H275876   5.386   6.247  17.424 -2.2799  0.4890 -0.6723
18129TIP3   OH275877   2.707   3.526  15.133  0.8441  0.5263 -0.3773
18129TIP3    H175878   2.645   3.598  15.145 -1.7978 -1.5853 -0.4773
18129TIP3    H275879   2.691   3.495  15.044  1.4430 -0.6289 -0.1026
18130TIP3   OH275880   4.306   6.432   0.573 -0.5581  0.1186 -0.4878
18130TIP3    H175881   4.299   6.383   0.655  1.1582 -0.0042 -0.3705
18130TIP3    H275882   4.246   6.506   0.584 -0.4355  0.0472  0.8516
18131TIP3   OH275883   0.699   2.571  16.439  0.1843 -0.4480 -0.0349
18131TIP3    H175884   0.632   2.507  16.412 -1.7506  1.1178  0.7958
18131TIP3    H275885   0.669   2.654  16.402  1.6223  0.3387  0.4942
18132TIP3   OH275886   2.689   4.492   4.233 -0.5722 -0.2654  0.2458
18132TIP3    H175887   2.594   4.489   4.245 -0.8571  1.2402 -1.2608
18132TIP3    H275888   2.711   4.585   4.234  1.1403 -0.6322  2.0735
18133TIP3   OH275889   4.076   4.071   6.109  0.5326 -0.1683 -0.2888
18133TIP3    H175890   3.997   4.109   6.069  1.3432  0.9750 -0.8517
18133TIP3    H275891   4.101   4.001   6.049  0.6842  0.3313 -0.8184
18134TIP3   OH275892   1.298   4.153  12.258  0.6524  0.0725  0.3702
18134TIP3    H175893   1.222   4.196  12.219 -0.1659 -1.1224  0.6027
18134TIP3    H275894   1.370   4.171  12.197 -0.8315 -2.8581 -2.5342
18135TIP3   OH275895   1.944   5.125  13.106  0.0415 -0.1488  0.0594
18135TIP3    H175896   1.993   5.060  13.054  0.4961 -0.3845  0.7758
18135TIP3    H275897   2.004   5.150  13.176 -0.2510  0.8202 -0.0300
18136TIP3   OH275898   4.678   5.593  15.336 -0.2672  0.6746  0.5274
18136TIP3    H175899   4.643   5.521  15.284  1.6549  0.4700 -0.5865
18136TIP3    H275900   4.710   5.551  15.416  0.3109  0.3613  0.1399
18137TIP3   OH275901   3.965   3.702   6.099  0.6152  0.0498 -0.1827
18137TIP3    H175902   3.912   3.756   6.040  0.5926 -0.9336 -1.0882
18137TIP3    H275903   4.020   3.764   6.145 -0.6052  1.0072  0.0435
18138TIP3   OH275904   3.516   4.625  13.265 -0.6219 -0.0706 -0.5924
18138TIP3    H175905   3.457   4.631  13.190  0.0396 -2.5235 -1.4226
18138TIP3    H275906   3.536   4.532  13.272  0.8420  0.3237  1.4877
18139TIP3   OH275907   3.005   3.626   4.196  0.3815  0.2264  0.6160
18139TIP3    H175908   3.040   3.715   4.205  2.0386 -0.4838  1.4779
18139TIP3    H275909   3.068   3.570   4.241  0.0358 -1.5612 -0.9954
18140TIP3   OH275910   1.763   4.143   0.739 -0.0368 -0.2654 -0.1165
18140TIP3    H175911   1.815   4.165   0.816 -0.9742 -0.7147  0.6706
18140TIP3    H275912   1.698   4.213   0.732  0.9196  0.5421 -1.3667
18141TIP3   OH275913   3.472   5.429  12.776 -0.1734  0.4502  0.0626
18141TIP3    H175914   3.400   5.483  12.745 -1.5240 -0.7814  0.9290
18141TIP3    H275915   3.540   5.438  12.708 -1.3140  1.2606 -1.0139
18142TIP3   OH275916   2.208   5.931   0.493 -0.3274  0.3669  0.5630
18142TIP3    H175917   2.180   5.840   0.499  1.0592 -0.2087 -0.9228
18142TIP3    H275918   2.150   5.978   0.553 -1.4575 -1.3905  0.9277
18143TIP3   OH275919   2.290   4.097  16.232 -0.0585 -0.2307  0.0822
18143TIP3    H175920   2.195   4.105  16.227 -0.1008 -0.2926  0.7508
18143TIP3    H275921   2.323   4.172  16.182 -0.4508  1.2567  1.9549
18144TIP3   OH275922   0.920   5.270   0.397 -0.1202 -0.0867 -0.2300
18144TIP3    H175923   0.939   5.319   0.477 -0.5044  0.1869 -0.3026
18144TIP3    H275924   1.006   5.246   0.362  0.0429 -0.9574  0.7171
18145TIP3   OH275925   0.258   4.989  17.010  0.5954 -0.3597 -0.1171
18145TIP3    H175926   0.262   5.080  16.981  1.1152 -0.2367  0.3254
18145TIP3    H275927   0.346   4.970  17.041 -0.1129 -0.2221  2.1338
18146TIP3   OH275928   4.650   2.314  15.510 -0.0370 -0.3584  0.2988
18146TIP3    H175929   4.614   2.390  15.555  3.2718  0.1251  2.4927
18146TIP3    H275930   4.691   2.349  15.431  1.2908  0.1865  1.1959
18147TIP3   OH275931   1.239   0.319  14.837 -0.3643 -0.3301  0.0808
18147TIP3    H175932   1.228   0.393  14.896 -0.7690 -1.5198  1.5542
18147TIP3    H275933   1.267   0.247  14.893  2.5062 -0.7333 -1.6335
18148TIP3   OH275934   0.052   4.513   5.881 -0.0461  0.5561 -0.0310
18148TIP3    H175935   0.031   4.423   5.856  2.8832 -0.4035  0.6001
18148TIP3    H275936   0.015   4.522   5.969 -0.9145  0.2235 -0.3493
18149TIP3   OH275937   6.032   4.218   6.257 -0.5474  0.1960  0.0544
18149TIP3    H175938   5.936   4.228   6.260 -1.0585 -3.0356 -1.2985
18149TIP3    H275939   6.051   4.157   6.329  0.1025 -1.0476 -1.1267
18150TIP3   OH275940   0.220   0.455  15.104 -0.1049 -0.2774 -0.4836
18150TIP3    H175941   0.283   0.382  15.098 -0.0517 -0.4894  1.9168
18150TIP3    H275942   0.166   0.434  15.180  0.2929  2.4689  0.6612
18151TIP3   OH275943   2.466   0.750  11.278  0.3522  0.2483  0.1781
18151TIP3    H175944   2.502   0.785  11.360  1.0114 -0.7860  0.3472
18151TIP3    H275945   2.384   0.799  11.265  0.9023  1.3550  0.7475
18152TIP3   OH275946   0.053   4.049   5.459  0.4727 -0.2190 -0.0872
18152TIP3    H175947  -0.036   4.084   5.469  0.6016  0.3770 -0.9476
18152TIP3    H275948   0.073   4.012   5.545 -0.1000  0.8229  0.5241
18153TIP3   OH275949   6.428   3.520  15.107 -0.4530 -0.3286  0.5232
18153TIP3    H175950   6.495   3.588  15.118 -0.3756 -0.5344  1.3492
18153TIP3    H275951   6.446   3.483  15.020  1.8269 -1.8117  1.5430
18154TIP3   OH275952   2.416   2.473   0.431 -0.7616  0.2127 -0.1453
18154TIP3    H175953   2.335   2.506   0.469 -2.0717 -1.2899 -1.4859
18154TIP3    H275954   2.389   2.399   0.377  1.5370 -0.4303 -0.5271
18155TIP3   OH275955   0.074   1.068   0.697  0.3977 -0.4963  0.5003
18155TIP3    H175956   0.080   1.006   0.624 -0.5366 -0.5379  0.4512
18155TIP3    H275957  -0.002   1.039   0.747 -0.0349  0.5743  0.5010
18156TIP3   OH275958   2.984   2.897   4.794  0.6145 -0.3527  0.0578
18156TIP3    H175959   2.968   2.983   4.755 -0.5479 -1.1566 -1.3330
18156TIP3    H275960   3.054   2.859   4.741 -1.6262 -1.8438 -2.0928
18157TIP3   OH275961   6.539   1.735   5.899 -0.3612 -0.1054 -0.2259
18157TIP3    H175962   6.469   1.671   5.887 -2.2214  1.7268  0.2894
18157TIP3    H275963   6.513   1.809   5.844  0.6588  0.9963  0.7259
18158TIP3   OH275964   3.061   2.601   3.392 -0.0773 -0.3951  0.5701
18158TIP3    H175965   3.147   2.632   3.366  0.9108 -0.0785  3.7375
18158TIP3    H275966   3.073   2.508   3.411 -0.4232 -0.3678  0.9582
18159TIP3   OH275967   4.940   2.627   5.056  0.2586  0.4177  0.2477
18159TIP3    H175968   5.014   2.588   5.010  1.2851  0.1638  2.0051
18159TIP3    H275969   4.958   2.721   5.056  0.0870  0.4545 -0.1122
18160TIP3   OH275970   4.171   4.926   1.627  0.2872 -0.1500  0.8380
18160TIP3    H175971   4.165   4.960   1.538  0.0213 -2.7339 -0.2327
18160TIP3    H275972   4.094   4.871   1.638 -0.7725  1.6504  3.4753
18161TIP3   OH275973   4.389   6.081  12.866  0.7785 -0.5363  0.5221
18161TIP3    H175974   4.437   6.163  12.852 -2.5456  1.5493  0.3531
18161TIP3    H275975   4.404   6.030  12.786  1.7945  0.4595  0.0499
18162TIP3   OH275976   6.669   5.115  12.588 -0.7784 -0.6084 -0.3273
18162TIP3    H175977   6.686   5.207  12.611 -2.6425 -0.2005 -0.4117
18162TIP3    H275978   6.727   5.098  12.514 -1.2514  0.8982 -1.0860
18163TIP3   OH275979   5.509   5.334   1.930 -0.4073  0.0742 -0.0354
18163TIP3    H175980   5.479   5.408   1.982 -0.8876 -0.6394  0.7340
18163TIP3    H275981   5.603   5.329   1.947 -0.7265 -0.8072  1.6647
18164TIP3   OH275982   3.966   5.785   0.572 -0.1569  0.0617 -0.1237
18164TIP3    H175983   3.904   5.719   0.540 -1.2184  0.7670  0.4116
18164TIP3    H275984   3.997   5.749   0.655 -1.1207  0.4409  0.4182
18165TIP3   OH275985   2.396   6.720   0.974  0.1402 -0.0187  0.3506
18165TIP3    H175986   2.392   6.814   0.956  0.1383 -0.0241  0.3223
18165TIP3    H275987   2.448   6.684   0.902  0.3904  0.0013  0.5209
18166TIP3   OH275988   6.441   3.491  14.816 -0.4601 -0.3191  0.2150
18166TIP3    H175989   6.413   3.580  14.794  0.1294 -0.2875 -0.4164
18166TIP3    H275990   6.371   3.434  14.782 -1.1689 -0.0692  1.2092
18167TIP3   OH275991   5.922   2.821  15.717  0.2708 -0.3793  0.0599
18167TIP3    H175992   5.901   2.824  15.623 -0.2749  3.4818  0.1666
18167TIP3    H275993   6.016   2.804  15.720  0.9049  2.2788 -1.4298
18168TIP3   OH275994   5.464   3.579  15.747  0.4886 -0.4082 -0.1746
18168TIP3    H175995   5.426   3.492  15.751 -0.1289 -0.1362  0.0994
18168TIP3    H275996   5.556   3.567  15.769  0.3690 -0.9633  0.0364
18169TIP3   OH275997   4.195   6.347  11.373 -0.3285  0.1567 -0.1485
18169TIP3    H175998   4.172   6.414  11.437  1.5316  1.4863 -0.7687
18169TIP3    H275999   4.177   6.388  11.288 -4.0059 -2.0356 -0.6056
18170TIP3   OH276000   1.553   5.020  15.757 -0.0980  0.3876 -0.5731
18170TIP3    H176001   1.518   5.101  15.794  0.5446  1.1550 -1.5936
18170TIP3    H276002   1.559   4.960  15.831 -0.8774  1.1638  0.1429
18171TIP3   OH276003   4.739   4.432  16.084 -0.3171  0.3160  0.1381
18171TIP3    H176004   4.726   4.508  16.028 -0.4558  0.0580 -0.1826
18171TIP3    H276005   4.670   4.371  16.059  0.3661 -0.3067 -0.2737
18172TIP3   OH276006   4.378   0.384   5.135  0.1078 -0.2048 -0.0135
18172TIP3    H176007   4.325   0.445   5.187  0.6845  0.7516 -0.5242
18172TIP3    H276008   4.388   0.307   5.191 -0.7904  0.0905  0.5703
18173TIP3   OH276009   5.868   0.307  11.310  0.3505  0.0213 -0.1991
18173TIP3    H176010   5.801   0.368  11.279 -1.2390 -1.9257 -0.8681
18173TIP3    H276011   5.859   0.308  11.405 -0.1279  0.3216 -0.2431
18174TIP3   OH276012   2.711   2.777   1.122  0.2301 -0.2542  0.5410
18174TIP3    H176013   2.631   2.733   1.092  0.4261 -0.1364 -0.1680
18174TIP3    H276014   2.712   2.860   1.075  1.5272 -0.8814 -0.6153
18175TIP3   OH276015   6.204   1.782   4.691  0.0586  0.9758  0.1450
18175TIP3    H176016   6.245   1.698   4.712 -2.4163 -0.4795 -0.5353
18175TIP3    H276017   6.229   1.839   4.764  0.5658 -0.7845  1.4196
18176TIP3   OH276018   4.676   3.294  13.035  0.5303 -0.1253 -0.2764
18176TIP3    H176019   4.638   3.365  12.982  1.6325 -0.2843 -1.3431
18176TIP3    H276020   4.672   3.217  12.978  3.5707  0.1305 -1.0110
18177TIP3   OH276021   2.496   2.160  12.187  0.1444 -0.2240  0.0066
18177TIP3    H176022   2.568   2.202  12.140 -0.3909 -1.7591 -2.3053
18177TIP3    H276023   2.536   2.085  12.231  0.9429  2.0032  3.4848
18178TIP3   OH276024   4.027   2.011   1.384  0.0124 -0.0205 -0.2826
18178TIP3    H176025   4.052   2.100   1.409  0.6304  0.0188 -1.0134
18178TIP3    H276026   4.004   2.018   1.291  1.7825 -0.9406 -0.8341
18179TIP3   OH276027   0.942   6.226   3.699 -0.1601  0.0313  1.0248
18179TIP3    H176028   0.895   6.190   3.624  0.8807 -0.1652  0.4469
18179TIP3    H276029   1.028   6.184   3.695  0.8836  2.0902  0.7024
18180TIP3   OH276030   0.945   0.102   0.616 -0.7396 -0.2192 -0.1877
18180TIP3    H176031   0.949   0.165   0.545 -0.7952  0.7379  0.6444
18180TIP3    H276032   0.936   0.154   0.695  0.1267 -1.2198  0.6181
18181TIP3   OH276033   0.930   5.548  17.334  0.0941 -0.1849  0.6271
18181TIP3    H176034   0.939   5.475  17.274  0.9471 -1.6366  2.4048
18181TIP3    H276035   0.984   5.618  17.296 -1.4392 -0.0964 -1.5518
18182TIP3   OH276036   3.477   3.857   0.141 -0.0979  0.8270  0.3429
18182TIP3    H176037   3.434   3.772   0.128 -0.2548  0.8671  0.5805
18182TIP3    H276038   3.569   3.841   0.119 -0.6612  1.4347 -2.9870
18183TIP3   OH276039   0.460   0.215  12.785 -0.7688  0.2125  0.1291
18183TIP3    H176040   0.489   0.235  12.696  0.5394  0.9117  0.6849
18183TIP3    H276041   0.537   0.178  12.827 -0.7833  1.7420  1.5555
18184TIP3   OH276042   5.489   5.603   0.045  0.0362  0.0069 -0.3897
18184TIP3    H176043   5.541   5.534   0.085 -0.4535 -0.3983 -0.4300
18184TIP3    H276044   5.401   5.590   0.081 -0.8251 -1.3786 -2.7061
18185TIP3   OH276045   2.181   5.602   5.834  0.5806 -0.2997  0.3794
18185TIP3    H176046   2.125   5.582   5.909 -1.1208  1.3821 -0.3577
18185TIP3    H276047   2.128   5.662   5.781  2.1901 -0.5446 -1.5799
18186TIP3   OH276048   4.346   5.320  11.256  0.1022  0.5061  0.2571
18186TIP3    H176049   4.330   5.353  11.168 -0.1020  1.8658  0.7836
18186TIP3    H276050   4.427   5.363  11.284  0.3606 -0.1811  0.6208
18187TIP3   OH276051   4.345   1.586   5.966 -0.1633 -0.5823 -0.2870
18187TIP3    H176052   4.429   1.550   5.994  1.2584  1.9878 -0.9375
18187TIP3    H276053   4.310   1.630   6.044  0.1286  0.0924 -0.5232
18188TIP3   OH276054   0.732   0.431  17.002  0.4152 -0.0501 -0.6200
18188TIP3    H176055   0.788   0.373  16.950 -2.2468 -1.1775 -2.4459
18188TIP3    H276056   0.703   0.498  16.940  0.7671  1.3072  0.6302
18189TIP3   OH276057   6.668   0.139  14.425  0.7725  0.3281  0.3428
18189TIP3    H176058   6.651   0.077  14.354 -3.4527  1.2302  0.2813
18189TIP3    H276059   6.603   0.118  14.492  2.3293  1.7385  2.4609
18190TIP3   OH276060   0.542   3.870  13.438 -0.3628 -0.4303 -0.1913
18190TIP3    H176061   0.504   3.936  13.497 -0.6891  0.5882 -1.4959
18190TIP3    H276062   0.515   3.898  13.350  0.2033 -1.8490 -0.8452
18191TIP3   OH276063   1.118   4.313   2.999  0.4361 -0.7149 -0.2566
18191TIP3    H176064   1.097   4.399   3.035  1.0054 -1.5231  2.1618
18191TIP3    H276065   1.202   4.324   2.956  0.8562 -0.2119  0.6834
18192TIP3   OH276066   5.385   0.523  17.058 -0.6501  0.0694  0.1545
18192TIP3    H176067   5.383   0.476  16.975 -0.7990 -1.3079  0.8922
18192TIP3    H276068   5.478   0.536  17.077 -0.3409 -3.0820  1.5473
18193TIP3   OH276069   2.570   6.452   2.448 -0.1835 -0.6753 -0.2576
18193TIP3    H176070   2.639   6.419   2.506 -0.7803  0.0172  0.8843
18193TIP3    H276071   2.510   6.499   2.506 -0.6315  0.3407 -1.4904
18194TIP3   OH276072   5.600   5.649  13.754 -0.1816 -0.1357  0.0737
18194TIP3    H176073   5.571   5.655  13.664 -1.9850 -3.2274  0.2894
18194TIP3    H276074   5.547   5.713  13.802 -0.9672 -0.1827 -0.7227
18195TIP3   OH276075   1.288   5.845   6.836 -0.1578 -0.2023  0.7528
18195TIP3    H176076   1.360   5.826   6.776  0.7776  3.2492  0.5413
18195TIP3    H276077   1.255   5.759   6.863  2.5675 -1.8971 -0.8711
18196TIP3   OH276078   3.886   3.807  13.762 -0.3501 -0.2536 -0.1544
18196TIP3    H176079   3.793   3.828  13.755  0.0674  1.1844 -2.7710
18196TIP3    H276080   3.928   3.888  13.789  0.1287 -1.1000  1.8144
18197TIP3   OH276081   1.053   4.662   1.857 -0.7889 -0.3936 -0.3441
18197TIP3    H176082   1.113   4.686   1.787 -1.1171 -1.2535 -0.9468
18197TIP3    H276083   1.007   4.585   1.823 -0.6861 -1.0660  0.9680
18198TIP3   OH276084   0.663   2.909  12.732 -0.1214  0.1108 -0.3026
18198TIP3    H176085   0.758   2.906  12.727  0.2171  2.2590  2.3832
18198TIP3    H276086   0.639   2.841  12.795 -0.2493  0.1380 -0.3206
18199TIP3   OH276087   1.324   4.329   2.792 -0.4773  0.3024  0.2984
18199TIP3    H176088   1.374   4.410   2.803 -0.1827  0.6541 -2.8348
18199TIP3    H276089   1.389   4.259   2.795 -0.3562  0.4120  0.1835
18200TIP3   OH276090   5.911   3.432  15.756  0.0988 -0.3858 -0.0319
18200TIP3    H176091   5.981   3.430  15.821 -0.6159  2.5983  0.9981
18200TIP3    H276092   5.952   3.468  15.678  0.0232  0.1531  0.1709
18201TIP3   OH276093   5.379   2.564  11.067  0.1759 -0.0355  0.3391
18201TIP3    H176094   5.348   2.654  11.073 -0.4504 -0.2757  0.7706
18201TIP3    H276095   5.473   2.572  11.052 -0.2651  0.7670 -3.0227
18202TIP3   OH276096   2.917   1.024   2.510  0.1664 -0.3287  0.3528
18202TIP3    H176097   2.936   0.977   2.428 -0.1081  0.8192 -0.3915
18202TIP3    H276098   2.956   0.970   2.578  0.6636 -1.1617 -0.5659
18203TIP3   OH276099   1.554   0.754   1.555  0.1021  0.6642  0.5020
18203TIP3    H176100   1.490   0.687   1.532  0.1971  0.9660 -0.6989
18203TIP3    H276101   1.622   0.706   1.604  1.4628 -0.7030 -2.4689
18204TIP3   OH276102   3.352   6.173  12.303  0.0073 -0.0222  0.8499
18204TIP3    H176103   3.359   6.189  12.208  1.0685 -0.0128  0.9105
18204TIP3    H276104   3.333   6.259  12.340 -0.2152  0.0117  0.6590
18205TIP3   OH276105   5.983   0.700  14.407 -0.3358 -0.2279  0.1610
18205TIP3    H176106   6.030   0.780  14.380 -0.6458  0.2499  1.0023
18205TIP3    H276107   6.031   0.629  14.364  1.7117  0.1613  1.6186
18206TIP3   OH276108   6.729   2.386  15.320 -0.2400  0.9358  0.2930
18206TIP3    H176109   6.773   2.431  15.392  1.7154  1.6321 -1.2692
18206TIP3    H276110   6.700   2.455  15.262  0.7588  0.3204 -0.9917
18207TIP3   OH276111   1.387   3.476   4.338 -0.4993 -0.3685 -0.0823
18207TIP3    H176112   1.468   3.528   4.331 -0.5424 -0.3612 -0.5608
18207TIP3    H276113   1.407   3.409   4.404 -0.1335 -0.3034 -0.1257
18208TIP3   OH276114   0.360   0.049  12.500  0.1651  0.3326  0.5256
18208TIP3    H176115   0.296  -0.013  12.535 -0.1034 -1.4546 -2.7647
18208TIP3    H276116   0.445   0.006  12.511  0.7128  1.8217  3.0072
18209TIP3   OH276117   5.252   3.772  13.964  0.4138  0.3769 -0.0645
18209TIP3    H176118   5.284   3.687  13.996  0.5684  0.2879 -0.4406
18209TIP3    H276119   5.188   3.800  14.029 -1.8332 -1.3983 -1.3658
18210TIP3   OH276120   3.899   0.920   5.312  0.1206  0.0005 -0.9177
18210TIP3    H176121   3.826   0.979   5.291  0.0158 -0.6714 -2.6189
18210TIP3    H276122   3.891   0.849   5.249  1.9677 -0.3584 -0.8053
18211TIP3   OH276123   1.804   5.768  11.405  0.4008 -0.0864 -0.3906
18211TIP3    H176124   1.801   5.683  11.448 -0.8970 -0.4682 -1.1674
18211TIP3    H276125   1.773   5.830  11.471 -1.1541 -0.6051 -0.5948
18212TIP3   OH276126   0.609   6.101  16.405  0.2824  0.5786  0.1548
18212TIP3    H176127   0.622   6.181  16.456 -2.1477  0.1586  1.5960
18212TIP3    H276128   0.525   6.114  16.361 -0.1649 -1.1687  0.4270
18213TIP3   OH276129   3.675   5.459  16.125 -0.0407  0.4284 -0.0344
18213TIP3    H176130   3.660   5.468  16.031  1.6348  1.0946 -0.2712
18213TIP3    H276131   3.765   5.427  16.132 -1.6564 -4.8177  1.2063
18214TIP3   OH276132   0.854   4.158  11.618 -1.0355  0.5858  0.0373
18214TIP3    H176133   0.862   4.065  11.596 -1.2317  0.8799 -1.3874
18214TIP3    H276134   0.783   4.161  11.683 -2.2066 -0.1231 -1.1428
18215TIP3   OH276135   4.221   6.531   4.167  0.7375 -0.0407 -0.2975
18215TIP3    H176136   4.278   6.473   4.217 -0.1462 -1.6633 -1.0733
18215TIP3    H276137   4.144   6.542   4.223  1.3511  1.3252  0.3183
18216TIP3   OH276138   6.038   4.598  13.445 -0.3499  0.2685 -0.0574
18216TIP3    H176139   6.087   4.632  13.520  0.5704 -1.0302 -0.0351
18216TIP3    H276140   6.065   4.506  13.438 -2.0053 -0.2099 -0.7000
18217TIP3   OH276141   1.847   4.646  16.933  0.0594  0.0615 -0.3592
18217TIP3    H176142   1.816   4.557  16.919  0.4835  0.0865 -1.5597
18217TIP3    H276143   1.779   4.702  16.898  0.3197  0.1808 -0.6755
18218TIP3   OH276144   6.372   2.242  14.686  0.5332 -0.1666  0.1455
18218TIP3    H176145   6.345   2.259  14.776  0.6626 -0.4287  0.2338
18218TIP3    H276146   6.406   2.326  14.655 -1.2588  0.4424 -0.2848
18219TIP3   OH276147   2.781   6.104   2.368  0.8368 -0.5619  0.5398
18219TIP3    H176148   2.827   6.155   2.301 -0.1260  0.2068  0.4478
18219TIP3    H276149   2.851   6.073   2.426  1.4851  0.5442  0.3797
18220TIP3   OH276150   1.754   2.128  16.427  0.0729 -0.4307 -0.0084
18220TIP3    H176151   1.830   2.071  16.441  0.6180  0.7350  2.3281
18220TIP3    H276152   1.784   2.214  16.455 -2.0814  0.0825  0.8710
18221TIP3   OH276153   3.066   2.855   0.934 -0.3490  0.7172 -0.1257
18221TIP3    H176154   3.124   2.887   0.864 -0.5661  1.6894  0.1192
18221TIP3    H276155   3.125   2.827   1.003 -0.1029 -1.0576 -1.0069
18222TIP3   OH276156   6.505   0.299   1.502 -0.2814  0.8758 -0.2535
18222TIP3    H176157   6.457   0.319   1.422 -0.8390  0.4145 -0.0419
18222TIP3    H276158   6.446   0.328   1.572 -0.3838  0.0308  0.0165
18223TIP3   OH276159   5.221   3.026  14.230 -0.1905  0.4007  0.3645
18223TIP3    H176160   5.162   2.952  14.216  0.4095  0.3304 -2.3647
18223TIP3    H276161   5.177   3.100  14.188  0.6939  0.8168  0.1469
18224TIP3   OH276162   4.031   4.226   5.245 -0.5629  0.0164  0.4856
18224TIP3    H176163   3.965   4.158   5.234  0.3794 -1.1388  1.7186
18224TIP3    H276164   4.091   4.212   5.172 -1.8992  1.4096 -0.9564
18225TIP3   OH276165   3.810   5.652  15.545 -0.0901  0.6279  0.4427
18225TIP3    H176166   3.838   5.575  15.497  0.3404 -0.1525  1.8781
18225TIP3    H276167   3.860   5.650  15.626 -2.7068  0.3190  2.1958
18226TIP3   OH276168   2.251   0.165  16.613 -0.0287  0.7624 -0.0150
18226TIP3    H176169   2.327   0.185  16.557  0.7106  1.4870  1.1922
18226TIP3    H276170   2.175   0.190  16.561  0.6599  1.8164 -0.5400
18227TIP3   OH276171   3.123   0.626   1.578  0.1525 -0.5299  0.2469
18227TIP3    H176172   3.031   0.611   1.598  0.2281  0.3806  1.4029
18227TIP3    H276173   3.135   0.721   1.589  1.3644 -0.7137  0.7573
18228TIP3   OH276174   5.035   3.143   0.907  0.3492  0.2099  0.2356
18228TIP3    H176175   5.072   3.232   0.909 -0.7203  0.6567  1.2395
18228TIP3    H276176   4.956   3.151   0.854  1.1837 -0.5658 -1.1964
18229TIP3   OH276177   0.677   1.805   2.436 -0.3836 -0.0774 -0.3866
18229TIP3    H176178   0.672   1.733   2.372  0.7565 -0.3130 -0.2263
18229TIP3    H276179   0.726   1.768   2.509 -3.4066 -0.4870  1.5876
18230TIP3   OH276180   4.669   3.598   1.846  0.5615 -0.3453 -0.3494
18230TIP3    H176181   4.745   3.574   1.794  0.0684  0.0827 -1.2905
18230TIP3    H276182   4.600   3.539   1.816  0.5981 -0.9795  0.7536
18231TIP3   OH276183   0.441   2.897  14.035  0.3295 -0.0031  0.3421
18231TIP3    H176184   0.412   2.812  14.002  0.0987  0.0888  0.3005
18231TIP3    H276185   0.455   2.883  14.129 -1.8974  0.4471  0.8000
18232TIP3   OH276186   0.913   3.731  11.199  0.2738  0.0873 -0.1189
18232TIP3    H176187   0.970   3.751  11.125  0.6453 -0.2701  0.0697
18232TIP3    H276188   0.866   3.813  11.215 -2.2531 -0.6444 -2.8253
18233TIP3   OH276189   6.155   5.985  15.542 -0.0509 -0.0540  0.0397
18233TIP3    H176190   6.152   5.946  15.455  1.7477 -1.0502  0.3796
18233TIP3    H276191   6.126   5.915  15.601  0.4956  0.0050  0.3936
18234TIP3   OH276192   1.878   5.762  13.479 -0.1003  0.2374 -0.1041
18234TIP3    H176193   1.792   5.803  13.470  0.9859  2.5632 -0.5825
18234TIP3    H276194   1.891   5.715  13.396 -0.1798  1.3730 -0.7780
18235TIP3   OH276195   5.876   5.531  13.660  0.1686  0.1822  0.1269
18235TIP3    H176196   5.870   5.581  13.742  0.1841 -0.5136  0.5638
18235TIP3    H276197   5.791   5.490  13.650  0.3933 -0.3070  0.1753
18236TIP3   OH276198   2.244   6.321   3.533 -0.5321 -0.7878 -0.0928
18236TIP3    H176199   2.265   6.291   3.445  0.9030  0.2877 -0.1501
18236TIP3    H276200   2.162   6.277   3.555  0.2429 -2.8114 -1.0699
18237TIP3   OH276201   4.036   2.478  14.385  0.0155 -0.5364 -0.6246
18237TIP3    H176202   4.106   2.438  14.333 -0.6208 -1.5873 -0.7061
18237TIP3    H276203   3.969   2.501  14.321  1.1977  2.6570 -0.8746
18238TIP3   OH276204   3.463   5.435  11.436  0.6515 -0.2625  0.4174
18238TIP3    H176205   3.454   5.392  11.351 -0.2335 -0.0029  0.3708
18238TIP3    H276206   3.557   5.434  11.454  0.8830  0.0309 -0.7411
18239TIP3   OH276207   5.872   1.356  13.414  0.0632  0.3002 -0.2522
18239TIP3    H176208   5.789   1.393  13.443 -1.0662 -1.0876 -1.6034
18239TIP3    H276209   5.904   1.307  13.491 -0.6935  0.3077  0.0796
18240TIP3   OH276210   6.627   4.954   1.721  0.0129 -0.0304  0.1476
18240TIP3    H176211   6.699   4.918   1.772  1.0940  0.6320 -0.8519
18240TIP3    H276212   6.642   4.921   1.632 -0.3245  0.9579 -0.2881
18241TIP3   OH276213   0.710   1.872   3.116 -0.1836  0.1955  0.1842
18241TIP3    H176214   0.680   1.897   3.204 -0.0356 -0.7349  0.5075
18241TIP3    H276215   0.804   1.892   3.117 -0.3383  0.9756 -0.0586
18242TIP3   OH276216   1.606   0.379   3.482 -0.5677 -0.3730  0.5544
18242TIP3    H176217   1.577   0.433   3.556 -1.2441 -0.0820  0.0782
18242TIP3    H276218   1.596   0.289   3.514  1.0891 -0.2477  1.5500
18243TIP3   OH276219   2.285   1.408  16.426 -0.4484 -0.1449 -0.5951
18243TIP3    H176220   2.320   1.431  16.340  0.8127  0.4529  0.0527
18243TIP3    H276221   2.249   1.320  16.414  1.2649 -0.7873 -1.3224
18244TIP3   OH276222   4.867   1.860  17.049  0.1927  0.2665 -0.0195
18244TIP3    H176223   4.849   1.892  16.960  0.6393 -0.0586 -0.2261
18244TIP3    H276224   4.807   1.786  17.060  0.5941 -0.1032 -0.2920
18245TIP3   OH276225   0.192   3.962  15.258 -0.0320 -0.4124  0.1064
18245TIP3    H176226   0.199   3.879  15.210  1.7763  0.1318 -0.6593
18245TIP3    H276227   0.184   3.935  15.350  1.4420 -1.4675 -0.0320
18246TIP3   OH276228   0.061   2.710   2.805  0.3008  0.2763 -0.0422
18246TIP3    H176229   0.087   2.626   2.843  0.6438  0.6878  0.6545
18246TIP3    H276230   0.136   2.736   2.751 -0.9523 -1.2649 -2.7112
18247TIP3   OH276231   2.562   1.751  16.458 -0.1383  0.1999  0.2982
18247TIP3    H176232   2.636   1.708  16.414 -0.1529  0.4970 -0.0186
18247TIP3    H276233   2.542   1.694  16.532  1.2934  0.8012  1.1943
18248TIP3   OH276234   4.794   0.807   2.037 -0.2896  0.3959 -0.4590
18248TIP3    H176235   4.877   0.764   2.060 -1.1727 -1.7717 -1.0782
18248TIP3    H276236   4.763   0.759   1.961 -2.3218  0.8980 -0.0015
18249TIP3   OH276237   6.300   3.701   1.754 -0.1703 -0.7946 -0.1197
18249TIP3    H176238   6.245   3.734   1.825  2.5167  2.2862  0.8016
18249TIP3    H276239   6.246   3.635   1.710 -3.2001 -0.4737  2.7125
18250TIP3   OH276240   5.611   4.288  10.341  0.2279  0.2923  0.4888
18250TIP3    H176241   5.696   4.266  10.379 -0.8254  1.2690  3.7887
18250TIP3    H276242   5.549   4.234  10.390 -1.1491  0.0187 -1.4591
18251TIP3   OH276243   0.225   1.683  13.678 -0.3284 -0.0809 -0.4102
18251TIP3    H176244   0.215   1.653  13.587  0.3600 -1.1680 -0.1506
18251TIP3    H276245   0.171   1.623  13.729 -1.1363  0.8624 -0.1452
18252TIP3   OH276246   3.158   5.735  11.921  0.3872 -0.2486  0.6106
18252TIP3    H176247   3.251   5.757  11.929  0.1032  0.4309  2.7334
18252TIP3    H276248   3.121   5.808  11.871  0.6370  0.6492  1.7030
18253TIP3   OH276249   1.403   5.646   1.807 -0.2238  0.3408  0.4461
18253TIP3    H176250   1.415   5.682   1.719 -0.5796 -2.1127 -0.6671
18253TIP3    H276251   1.312   5.664   1.828 -0.7262 -0.8788 -0.5923
18254TIP3   OH276252   0.895   6.342   4.201  0.1580  0.3518  0.4603
18254TIP3    H176253   0.870   6.343   4.108  0.0688 -1.7229  0.4115
18254TIP3    H276254   0.923   6.251   4.217  1.4220  0.9945  2.1461
18255TIP3   OH276255   1.182   4.475   3.217  0.0699 -0.0442 -0.1585
18255TIP3    H176256   1.103   4.487   3.269  0.1621  0.1144 -0.0513
18255TIP3    H276257   1.253   4.483   3.281  0.3548  3.0735 -0.7105
18256TIP3   OH276258   0.666   4.627   1.574 -0.4089 -0.3084  0.3191
18256TIP3    H176259   0.672   4.719   1.548  0.4904  0.0028  1.5291
18256TIP3    H276260   0.580   4.620   1.615 -0.6965 -0.1453 -0.2441
18257TIP3   OH276261   5.957   0.549  12.101 -0.3803  0.0967  0.2315
18257TIP3    H176262   6.049   0.522  12.104  0.5884  3.0903  1.0476
18257TIP3    H276263   5.908   0.469  12.120  1.8602 -2.1404 -2.4191
18258TIP3   OH276264   3.161   1.480   0.491  0.5007 -0.0567  0.0441
18258TIP3    H176265   3.199   1.393   0.506  0.0325 -0.9521 -3.2515
18258TIP3    H276266   3.235   1.534   0.463  0.3293 -0.2726 -0.8735
18259TIP3   OH276267   1.129   3.609   3.095  0.0894 -0.0571 -0.0496
18259TIP3    H176268   1.184   3.677   3.135 -2.4450  2.7350 -0.9160
18259TIP3    H276269   1.052   3.604   3.151 -0.7461 -0.6452 -1.2095
18260TIP3   OH276270   5.044   0.640   6.196 -0.1546  0.2275 -0.4093
18260TIP3    H176271   5.107   0.573   6.221  0.0316  0.7456  0.5880
18260TIP3    H276272   4.959   0.596   6.201  0.0720 -0.2905 -1.0894
18261TIP3   OH276273   5.725   1.569   1.825  0.2312  0.8040 -0.2284
18261TIP3    H176274   5.800   1.624   1.846  0.6918 -0.7445  2.9389
18261TIP3    H276275   5.762   1.483   1.807 -0.6886  0.2883  0.2223
18262TIP3   OH276276   1.302   0.624   5.001  0.5146 -0.1235 -0.2982
18262TIP3    H176277   1.246   0.548   4.986 -0.0939  0.6557 -2.4292
18262TIP3    H276278   1.391   0.592   4.989  0.5067 -1.0802  1.7712
18263TIP3   OH276279   4.458   0.694  16.765  0.1550 -0.7030 -0.0027
18263TIP3    H176280   4.534   0.704  16.822 -0.1068 -1.2655  0.4546
18263TIP3    H276281   4.436   0.601  16.772 -1.0336 -0.3941  0.4619
18264TIP3   OH276282   3.746   2.351   5.982 -0.2395 -0.4382  0.2133
18264TIP3    H176283   3.702   2.279   5.937 -1.2824  1.2417 -1.6289
18264TIP3    H276284   3.750   2.421   5.916  2.9070  0.4078  1.1222
18265TIP3   OH276285   1.533   4.211   4.246  0.0185  0.2750 -0.0422
18265TIP3    H176286   1.446   4.238   4.275 -0.2519 -0.7883  0.1833
18265TIP3    H276287   1.587   4.217   4.325 -0.5946 -2.0969  0.6230
18266TIP3   OH276288   2.931   6.405   6.144 -0.5801 -0.5229  0.1030
18266TIP3    H176289   2.914   6.498   6.133  1.2290 -0.2675 -0.9890
18266TIP3    H276290   2.871   6.377   6.213 -2.5058  1.0091 -0.8631
18267TIP3   OH276291   1.135   3.960   5.501 -0.7198 -0.2371  0.0328
18267TIP3    H176292   1.163   4.051   5.503  2.7370 -1.1350 -0.4770
18267TIP3    H276293   1.108   3.946   5.410  0.2596 -0.0754 -0.2976
18268TIP3   OH276294   6.396   6.669   5.641 -0.0065  0.1801  0.0911
18268TIP3    H176295   6.440   6.754   5.651 -1.3784  0.9785 -0.4391
18268TIP3    H276296   6.307   6.684   5.672  0.3920 -1.7898  2.5454
18269TIP3   OH276297   5.590   4.539   0.547 -0.1745  0.1845 -0.1103
18269TIP3    H176298   5.500   4.548   0.579 -0.3049  2.2486 -0.8827
18269TIP3    H276299   5.596   4.448   0.519 -2.3757  0.2188 -0.9555
18270TIP3   OH276300   2.996   2.982   0.030 -0.1892  0.0636  0.2367
18270TIP3    H176301   3.070   2.962   0.087  0.5437  1.8277 -0.0254
18270TIP3    H276302   2.949   3.052   0.074 -2.3023 -1.6138  0.8408
18271TIP3   OH276303   4.634   5.957  15.020  0.0571 -0.3906  0.1373
18271TIP3    H176304   4.707   5.923  15.070  0.2211 -0.2361  0.0062
18271TIP3    H276305   4.655   5.936  14.929 -0.2386 -0.6705  0.1356
18272TIP3   OH276306   5.945   5.486   3.898 -0.2500 -0.1276 -0.4495
18272TIP3    H176307   5.933   5.566   3.847 -1.0435  0.6119  0.8397
18272TIP3    H276308   6.029   5.499   3.942 -0.1855 -0.1871 -0.5543
18273TIP3   OH276309   6.516   6.005  16.961 -0.3425 -0.0621  0.0319
18273TIP3    H176310   6.437   6.047  16.997 -0.3190 -0.3982  0.4925
18273TIP3    H276311   6.588   6.052  17.002 -0.3177 -0.9652  1.0701
18274TIP3   OH276312   3.854   0.457   5.790  0.1842 -0.0729 -0.0317
18274TIP3    H176313   3.795   0.476   5.863  0.4335  0.2170  0.0954
18274TIP3    H276314   3.855   0.538   5.738 -0.1353 -0.3344 -0.4625
18275TIP3   OH276315   0.064   2.784   5.636 -0.0865 -0.0124  0.2744
18275TIP3    H176316   0.145   2.736   5.619  0.1645  0.2464  0.7087
18275TIP3    H276317   0.039   2.820   5.551  0.2491 -0.1065  0.1351
18276TIP3   OH276318   2.020   0.199   2.494 -0.0320  0.5391 -0.2775
18276TIP3    H176319   2.023   0.127   2.432  0.3825 -0.0072  0.3651
18276TIP3    H276320   2.104   0.195   2.540  0.2430  1.7813 -0.6234
18277TIP3   OH276321   0.699   4.411   1.024  0.1437  0.2655  0.0345
18277TIP3    H176322   0.717   4.404   1.118 -2.0917  0.1104  0.5147
18277TIP3    H276323   0.679   4.503   1.010  0.2841  0.2521 -0.2546
18278TIP3   OH276324   2.027   4.064   4.734  0.6072 -0.0441  0.1298
18278TIP3    H176325   1.945   4.114   4.729  1.6974  1.6652 -1.7158
18278TIP3    H276326   2.001   3.974   4.713 -0.5177  0.8673 -2.8115
18279TIP3   OH276327   1.885   2.727   0.296 -0.1029 -0.3224 -0.3909
18279TIP3    H176328   1.970   2.755   0.264 -0.8093  0.2823 -1.8105
18279TIP3    H276329   1.900   2.706   0.388  1.1268  1.8473 -0.0294
18280TIP3   OH276330   1.675   1.789  15.657 -0.3662 -0.7055 -0.3758
18280TIP3    H176331   1.591   1.754  15.627 -0.8359  1.1161 -1.3101
18280TIP3    H276332   1.735   1.775  15.584 -0.0765 -1.1549 -0.0620
18281TIP3   OH276333   4.167   3.235   3.312  0.5211 -0.2149 -0.2798
18281TIP3    H176334   4.162   3.144   3.343 -0.1564  0.2320  1.0322
18281TIP3    H276335   4.084   3.274   3.340  1.7041  1.4012  1.1986
18282TIP3   OH276336   1.544   5.697   4.936  0.3655  0.6061  0.5394
18282TIP3    H176337   1.566   5.768   4.876 -0.8108  1.6728  1.3009
18282TIP3    H276338   1.623   5.682   4.988  0.5755  1.4965  0.4830
18283TIP3   OH276339   4.884   5.220  13.425 -0.1774  0.2028 -0.6326
18283TIP3    H176340   4.947   5.281  13.389 -1.3121  0.8064 -1.6667
18283TIP3    H276341   4.911   5.134  13.392  0.8015  0.2570 -0.0313
18284TIP3   OH276342   5.394   5.958  13.236 -0.0438  0.2382  0.0659
18284TIP3    H176343   5.451   6.033  13.220 -0.3004  0.3871 -0.1820
18284TIP3    H276344   5.449   5.882  13.221 -0.0502  0.3765 -0.7436
18285TIP3   OH276345   5.564   5.381  10.465  0.7706  0.5674  0.0171
18285TIP3    H176346   5.484   5.341  10.499  1.2347  0.4682  1.0277
18285TIP3    H276347   5.534   5.450  10.406 -0.0487 -0.2729 -0.5601
18286TIP3   OH276348   4.791   1.916  16.800  0.3167  0.1889 -0.4285
18286TIP3    H176349   4.781   1.832  16.756 -0.0250  0.3892 -0.7399
18286TIP3    H276350   4.843   1.969  16.740  3.4575 -0.8401  1.1771
18287TIP3   OH276351   6.543   1.035   1.290 -0.3363  0.0511  0.4770
18287TIP3    H176352   6.463   1.038   1.238 -0.9186  4.6991  1.2266
18287TIP3    H276353   6.513   1.035   1.381  0.3298  2.6970  0.7878
18288TIP3   OH276354   6.485   2.257  16.053 -0.9953 -0.4528 -0.1417
18288TIP3    H176355   6.511   2.200  16.126 -0.4777  1.2052  1.0225
18288TIP3    H276356   6.394   2.234  16.036 -1.6201  0.1109  2.0446
18289TIP3   OH276357   1.439   2.671   5.585 -0.2299  0.1811 -0.0099
18289TIP3    H176358   1.344   2.678   5.597 -0.2962 -0.2503 -0.2993
18289TIP3    H276359   1.456   2.577   5.578  0.4135  0.1362  1.6328
18290TIP3   OH276360   0.464   5.389  17.334 -0.0715  0.0357 -0.2864
18290TIP3    H176361   0.392   5.368  17.392  0.4041  0.8520  0.6275
18290TIP3    H276362   0.425   5.446  17.267 -0.2407  0.6296  0.3111
18291TIP3   OH276363   6.264   3.493  16.361 -0.5014  0.2621  0.3705
18291TIP3    H176364   6.358   3.508  16.350 -0.2347 -1.9014 -0.9767
18291TIP3    H276365   6.224   3.560  16.305  0.2751  0.4202 -0.0234
18292TIP3   OH276366   1.534   4.666   3.257  0.2327 -0.3530  0.3509
18292TIP3    H176367   1.562   4.682   3.347  1.4579 -1.1728  0.1392
18292TIP3    H276368   1.468   4.596   3.264  0.4822 -0.5642  0.5991
18293TIP3   OH276369   1.703   5.763   4.690 -0.0402  0.0353  0.2859
18293TIP3    H176370   1.703   5.851   4.651 -1.2736 -0.3090 -0.5250
18293TIP3    H276371   1.793   5.751   4.720  0.2978  1.3417 -0.1357
18294TIP3   OH276372   4.692   3.725   0.912 -0.4283 -0.5227  0.3619
18294TIP3    H176373   4.749   3.657   0.876  0.9501  0.8323 -0.1171
18294TIP3    H276374   4.607   3.708   0.872  0.1059 -1.4591 -0.4244
18295TIP3   OH276375   4.033   5.609   4.658 -0.1624 -0.1221  0.2748
18295TIP3    H176376   4.013   5.620   4.565 -0.5087 -2.1645  0.0635
18295TIP3    H276377   3.951   5.629   4.703  0.1340  1.3387  0.2065
18296TIP3   OH276378   6.083   5.904   2.301 -0.0072 -0.2080  0.4473
18296TIP3    H176379   6.112   5.848   2.229 -1.5273  0.2952 -0.6017
18296TIP3    H276380   6.046   5.844   2.366 -0.6695 -0.5100 -0.2041
18297TIP3   OH276381   4.652   1.842  11.349  0.2485  0.4263 -0.0200
18297TIP3    H176382   4.618   1.760  11.385 -2.3587  1.7520  0.8404
18297TIP3    H276383   4.730   1.861  11.401  0.1558 -0.8404  0.6257
18298TIP3   OH276384   0.161   4.361   4.507 -0.7915 -0.0257 -0.1707
18298TIP3    H176385   0.164   4.432   4.572  0.3535  0.6549 -0.9184
18298TIP3    H276386   0.226   4.298   4.538 -0.8862 -0.1330 -0.1901
18299TIP3   OH276387   6.581   5.236  15.317 -0.0858  0.2176  0.3846
18299TIP3    H176388   6.667   5.257  15.354 -0.2009  0.1560  0.6940
18299TIP3    H276389   6.526   5.217  15.394 -0.5968  1.0728  0.2355
18300TIP3   OH276390   0.430   3.503   4.484  0.1963  0.1387  0.1731
18300TIP3    H176391   0.521   3.476   4.490  0.7488  1.9240  0.4451
18300TIP3    H276392   0.419   3.566   4.555 -0.6101  1.6375 -1.2216
18301TIP3   OH276393   0.457   0.493  12.958  0.0528 -0.2691  0.0465
18301TIP3    H176394   0.387   0.435  12.930  1.7648 -2.6855  0.3592
18301TIP3    H276395   0.439   0.509  13.051 -0.4182 -0.3777 -0.0268
18302TIP3   OH276396   2.427   5.032   5.341 -0.3554  0.2041  0.3168
18302TIP3    H176397   2.371   5.101   5.377 -0.8319 -0.3220  0.6090
18302TIP3    H276398   2.475   4.999   5.417  0.7640  1.0120 -0.0188
18303TIP3   OH276399   2.279   1.372  11.328 -0.5437  0.1414  0.5252
18303TIP3    H176400   2.221   1.326  11.268  2.5003 -2.5106 -0.6620
18303TIP3    H276401   2.275   1.321  11.409 -1.6011  1.3635  1.2746
18304TIP3   OH276402   0.232   1.663  15.692  0.1328  0.1042 -0.3192
18304TIP3    H176403   0.253   1.748  15.653  0.4999  1.2725  2.2291
18304TIP3    H276404   0.312   1.637  15.737 -0.5357 -0.7079  0.4254
18305TIP3   OH276405   0.768   4.943  12.838  0.5455  0.1210 -0.2035
18305TIP3    H176406   0.704   4.931  12.768  1.0491 -0.9413 -0.5102
18305TIP3    H276407   0.723   4.997  12.903 -1.1458 -1.6338  0.1907
18306TIP3   OH276408   4.302   3.260   1.294 -0.7272 -0.7433 -0.1628
18306TIP3    H176409   4.285   3.333   1.353 -0.6807 -0.3339 -0.6509
18306TIP3    H276410   4.352   3.198   1.347  2.1973  1.0259 -0.6228
18307TIP3   OH276411   6.338   2.804   5.163  0.1792 -0.1557  0.2017
18307TIP3    H176412   6.375   2.886   5.133 -1.9725 -0.0336 -2.5858
18307TIP3    H276413   6.381   2.737   5.110 -1.5620 -0.2598 -1.1591
18308TIP3   OH276414   1.497   5.832  15.745  0.0592  0.2584  0.1125
18308TIP3    H176415   1.517   5.739  15.736  0.0680  0.3468 -0.8266
18308TIP3    H276416   1.582   5.875  15.742  0.0042  0.3492 -0.1444
18309TIP3   OH276417   4.870   0.760  14.823 -0.3612 -0.6303 -0.0549
18309TIP3    H176418   4.855   0.853  14.843  0.7637 -0.6806  1.1331
18309TIP3    H276419   4.965   0.753  14.812 -0.1942 -1.9481  1.7310
18310TIP3   OH276420   5.642   2.094  16.727  0.1124 -0.4650  0.1438
18310TIP3    H176421   5.591   2.114  16.649  1.3396 -1.5439 -0.9850
18310TIP3    H276422   5.593   2.024  16.770  1.5856 -3.0527 -2.0829
18311TIP3   OH276423   4.915   3.235  15.511 -0.0201 -0.1965 -0.0014
18311TIP3    H176424   4.960   3.316  15.487 -1.0443  0.0444 -1.2440
18311TIP3    H276425   4.887   3.249  15.601 -0.4070  0.9467 -0.2826
18312TIP3   OH276426   4.090   4.333  15.528 -0.3881  0.0779  0.1852
18312TIP3    H176427   4.113   4.261  15.588  0.7177  0.6354  0.4660
18312TIP3    H276428   4.152   4.325  15.456 -2.1497 -1.0074 -1.3124
18313TIP3   OH276429   2.726   0.892   0.976 -0.2183  0.6207  0.0525
18313TIP3    H176430   2.676   0.818   0.941  0.8414  0.5724 -1.4587
18313TIP3    H276431   2.659   0.953   1.007 -1.2561  0.4602 -1.7116
18314TIP3   OH276432   4.105   2.773   3.972  0.2062 -0.4904 -0.0636
18314TIP3    H176433   4.161   2.792   4.047  1.1146 -1.1305 -0.5531
18314TIP3    H276434   4.032   2.722   4.008  0.0751  0.1131  0.5361
18315TIP3   OH276435   4.833   4.624  13.934  0.7416 -0.1283 -0.2869
18315TIP3    H176436   4.834   4.684  13.860  3.0227 -1.0258 -1.0691
18315TIP3    H276437   4.756   4.650  13.985  0.1947  1.7410 -1.9446
18316TIP3   OH276438   6.487   3.301  15.986  1.0877 -0.8385  0.7272
18316TIP3    H176439   6.545   3.288  15.911 -1.1525 -0.2340 -1.2074
18316TIP3    H276440   6.470   3.213  16.019  1.2244 -1.2091 -0.1642
18317TIP3   OH276441   4.539   0.466  13.991 -0.0992  0.0615 -0.0668
18317TIP3    H176442   4.461   0.520  14.003  0.1606  0.1856  1.1275
18317TIP3    H276443   4.512   0.399  13.927 -1.4813 -0.4651  1.0187
18318TIP3   OH276444   0.159   0.889   2.426 -0.2617  0.5287  0.5370
18318TIP3    H176445   0.086   0.851   2.376 -0.2020  0.1852  0.7100
18318TIP3    H276446   0.136   0.982   2.433 -1.9748  0.0211  2.7625
18319TIP3   OH276447   4.133   2.469   0.236  0.4540 -0.9375 -0.1697
18319TIP3    H176448   4.202   2.437   0.294  0.8880 -1.2411 -0.8422
18319TIP3    H276449   4.161   2.443   0.148 -0.1833 -0.4736 -0.5224
18320TIP3   OH276450   4.932   0.623   2.348  0.1208  0.3217 -0.3367
18320TIP3    H176451   4.855   0.667   2.382 -0.5969 -1.2477  0.1767
18320TIP3    H276452   4.973   0.584   2.425  0.1477 -0.7505 -0.8696
18321TIP3   OH276453   1.250   2.902  16.515 -0.2732 -0.7539  0.1392
18321TIP3    H176454   1.162   2.918  16.549 -0.4053 -0.7996 -0.1779
18321TIP3    H276455   1.236   2.855  16.433 -0.1607  2.3272 -1.8290
18322TIP3   OH276456   5.731   6.680   3.006  0.2375  0.4256  0.3387
18322TIP3    H176457   5.646   6.678   3.050 -0.7074  0.1543 -1.4263
18322TIP3    H276458   5.735   6.766   2.964  1.8011  1.3081  2.1396
18323TIP3   OH276459   4.459   1.716  15.158  0.5962  0.0656  0.2272
18323TIP3    H176460   4.537   1.719  15.214 -0.0538  2.8833  1.1478
18323TIP3    H276461   4.388   1.694  15.218  0.3769 -0.4402 -0.2135
18324TIP3   OH276462   3.352   3.148   1.670  0.0059  0.0593 -0.3181
18324TIP3    H176463   3.324   3.077   1.728 -2.3834  0.9603 -0.2544
18324TIP3    H276464   3.376   3.219   1.729 -2.1453  0.8758 -0.3610
18325TIP3   OH276465   4.441   3.930  16.500 -0.2580  0.1086  0.0984
18325TIP3    H176466   4.361   3.884  16.527  0.8185 -1.3602  0.9546
18325TIP3    H276467   4.475   3.967  16.581  0.1758  0.3217 -0.1819
18326TIP3   OH276468   1.852   1.277  11.259  0.5947 -0.2749 -0.5327
18326TIP3    H176469   1.819   1.361  11.228  0.2888 -0.1816  0.0294
18326TIP3    H276470   1.795   1.212  11.217 -0.9534 -0.0814  1.1281
18327TIP3   OH276471   1.487   3.144  15.637 -0.1925 -0.9330  0.1179
18327TIP3    H176472   1.482   3.208  15.709 -1.2520  0.3820 -1.0690
18327TIP3    H276473   1.558   3.175  15.582  1.0626 -2.3170  0.8967
18328TIP3   OH276474   4.808   3.760  11.270  0.1332 -0.2877  0.2756
18328TIP3    H176475   4.854   3.837  11.303  0.4018 -0.2265 -0.2303
18328TIP3    H276476   4.808   3.771  11.175 -2.5256  0.6394  0.2913
18329TIP3   OH276477   1.515   5.691  10.856 -0.2089 -0.0815 -0.3995
18329TIP3    H176478   1.448   5.647  10.909 -1.3277 -0.2476 -1.8628
18329TIP3    H276479   1.464   5.744  10.794  0.9057 -1.5439 -2.7033
18330TIP3   OH276480   0.040   6.002  11.042 -0.0834  0.4356 -0.2166
18330TIP3    H176481  -0.041   6.043  11.011  0.1068  0.5938 -0.5182
18330TIP3    H276482   0.057   6.043  11.127  0.3131  1.2853 -0.6903
18331TIP3   OH276483   3.327   6.639   2.960 -0.1895 -0.4122 -0.0711
18331TIP3    H176484   3.318   6.657   3.054 -0.1688 -0.5333 -0.0458
18331TIP3    H276485   3.328   6.725   2.919  1.2702 -0.3068  0.1639
18332TIP3   OH276486   3.309   4.667   0.275  0.1405 -0.6606  0.6063
18332TIP3    H176487   3.276   4.603   0.338 -0.7440 -1.2166 -0.3859
18332TIP3    H276488   3.379   4.620   0.229  2.1819  0.3898  2.4524
18333TIP3   OH276489   2.631   2.327  12.008  0.0298 -0.4060  0.2710
18333TIP3    H176490   2.622   2.272  11.930  1.6672 -1.0636  0.5029
18333TIP3    H276491   2.579   2.405  11.989 -0.8317 -1.2198 -0.8371
18334TIP3   OH276492   0.431   4.653  12.758  0.0111 -0.3082 -0.0679
18334TIP3    H176493   0.401   4.568  12.723  1.7446 -1.6399  1.5030
18334TIP3    H276494   0.522   4.638  12.782  0.1894  1.8675  0.7927
18335TIP3   OH276495   3.045   3.559  12.525  0.3420 -0.0528  0.1315
18335TIP3    H176496   3.132   3.531  12.497 -0.5423 -0.7166 -2.1918
18335TIP3    H276497   3.050   3.654  12.526  0.9366 -0.0633 -0.5997
18336TIP3   OH276498   6.343   1.891   5.400 -0.0433 -0.4074  0.1391
18336TIP3    H176499   6.270   1.880   5.461  0.2230 -0.1972  0.5018
18336TIP3    H276500   6.417   1.917   5.456  0.2058 -0.2202 -0.2737
18337TIP3   OH276501   3.450   5.691   0.112  0.2669  0.0932 -0.5674
18337TIP3    H176502   3.456   5.606   0.068  0.9518 -0.0663 -0.1805
18337TIP3    H276503   3.537   5.705   0.149 -0.0415  0.6511 -0.0394
18338TIP3   OH276504   1.729   2.939   5.968  0.4317 -0.2636 -0.3367
18338TIP3    H176505   1.717   2.886   5.889 -0.5572 -1.9016  0.8528
18338TIP3    H276506   1.804   2.996   5.948 -0.5817  0.2958 -2.8916
18339TIP3   OH276507   5.646   2.739   6.405 -0.2508  0.1812 -0.0035
18339TIP3    H176508   5.733   2.699   6.410 -0.5112 -0.2660  1.1615
18339TIP3    H276509   5.660   2.819   6.353  0.8125  0.0175  0.0013
18340TIP3   OH276510   2.814   4.798   4.508  0.5466  0.0814  0.0354
18340TIP3    H176511   2.902   4.784   4.545  0.9268  0.1169 -0.8390
18340TIP3    H276512   2.827   4.865   4.441 -0.3012  0.6843  0.4675
18341TIP3   OH276513   1.292   4.169  15.355  0.7365  0.4323 -0.0850
18341TIP3    H176514   1.209   4.122  15.359 -0.5499  2.6220  0.5194
18341TIP3    H276515   1.335   4.149  15.438  1.1849 -1.2650 -0.6861
18342TIP3   OH276516   2.521   3.289   4.358  0.4551 -0.8807  0.3130
18342TIP3    H176517   2.496   3.214   4.410  1.2285 -0.6961  0.9784
18342TIP3    H276518   2.440   3.319   4.317  0.4364 -3.2969 -1.6296
18343TIP3   OH276519   0.015   4.531  12.698 -0.5586  0.0915  0.4090
18343TIP3    H176520   0.051   4.526  12.787 -0.3577  0.4309  0.3495
18343TIP3    H276521   0.072   4.594  12.653 -0.1752 -0.6913 -0.2039
18344TIP3   OH276522   0.425   5.297  11.841 -0.7525 -0.1437 -0.4666
18344TIP3    H176523   0.330   5.303  11.831 -0.8806 -1.6828 -0.5008
18344TIP3    H276524   0.459   5.310  11.753 -0.9575 -0.0450 -0.5329
18345TIP3   OH276525   1.381   6.694   4.597  0.0984 -0.0327  0.0301
18345TIP3    H176526   1.431   6.638   4.657  1.5907 -0.1422 -1.2467
18345TIP3    H276527   1.447   6.740   4.546 -1.0889 -0.2632 -1.8323
18346TIP3   OH276528   1.303   0.989   6.047  0.2957 -0.5962  0.1790
18346TIP3    H176529   1.283   1.002   5.954  1.8701  0.5755 -0.0505
18346TIP3    H276530   1.230   1.029   6.093  1.4908  2.7989 -0.5941
18347TIP3   OH276531   5.615   3.671   3.360 -0.2687  0.1276  0.2488
18347TIP3    H176532   5.615   3.604   3.428  1.4100  1.5861  1.7952
18347TIP3    H276533   5.573   3.747   3.401  0.0747  0.8041 -0.6238
18348TIP3   OH276534   3.790   6.343  11.988 -0.0814 -0.6388 -0.0490
18348TIP3    H176535   3.792   6.317  11.896 -1.3519 -1.5195  0.1426
18348TIP3    H276536   3.805   6.262  12.036  0.2581 -0.2417  0.5217
18349TIP3   OH276537   5.098   0.609  14.942  0.1391  0.0668 -0.5442
18349TIP3    H176538   5.165   0.562  14.991  0.0331  0.0452 -0.4198
18349TIP3    H276539   5.122   0.701  14.949  0.5461  0.0040 -1.0872
18350TIP3   OH276540   5.822   4.985  13.029 -0.0572  0.3344 -0.2923
18350TIP3    H176541   5.736   5.013  12.997 -0.7683 -2.2696 -0.9280
18350TIP3    H276542   5.804   4.949  13.116 -0.0539 -1.9383 -1.1540
18351TIP3   OH276543   5.399   4.536  13.981 -0.4406 -0.1120  0.4103
18351TIP3    H176544   5.476   4.589  14.001 -0.3644  0.8022 -1.9321
18351TIP3    H276545   5.325   4.596  13.995 -0.8122 -1.0530  2.8727
18352TIP3   OH276546   6.413   0.495  15.720  0.2594 -0.0190 -0.5285
18352TIP3    H176547   6.320   0.510  15.702  0.7071  2.4974 -1.2074
18352TIP3    H276548   6.442   0.438  15.649 -0.7668 -0.8943 -0.2683
18353TIP3   OH276549   0.467   2.277  14.238 -0.6664  0.1923 -0.0412
18353TIP3    H176550   0.402   2.343  14.261 -2.5165 -0.7674 -2.0585
18353TIP3    H276551   0.415   2.206  14.199  1.5112 -1.2132 -0.5563
18354TIP3   OH276552   6.122   5.300   4.162  0.1174 -0.2032  0.0123
18354TIP3    H176553   6.053   5.239   4.187 -0.5851 -0.1502 -1.6595
18354TIP3    H276554   6.184   5.247   4.112 -0.8241  0.5076 -2.0116
18355TIP3   OH276555   1.274   3.505   1.017 -0.6452 -0.2954  0.1692
18355TIP3    H176556   1.302   3.446   0.947 -0.8413 -1.6655  1.2056
18355TIP3    H276557   1.302   3.462   1.097  1.7283  2.3654  0.9316
18356TIP3   OH276558   4.312   4.834   3.099 -0.2079 -0.2947 -0.2717
18356TIP3    H176559   4.218   4.831   3.112 -0.7597  2.3771 -2.7170
18356TIP3    H276560   4.328   4.781   3.021  0.5912 -1.8188  0.8594
18357TIP3   OH276561   6.514   0.946  15.347 -0.7294 -0.1697  0.0699
18357TIP3    H176562   6.503   1.029  15.301  0.4446  0.1850  0.3917
18357TIP3    H276563   6.436   0.938  15.402 -0.4900  1.1126  0.6218
18358TIP3   OH276564   3.466   6.021  12.509 -0.0256  0.0935  0.1657
18358TIP3    H176565   3.554   6.057  12.523 -0.4474  1.4545 -0.5348
18358TIP3    H276566   3.429   6.074  12.439 -1.3244 -0.6180  0.2837
18359TIP3   OH276567   2.167   2.849   2.220  0.4914  0.1311  0.5814
18359TIP3    H176568   2.182   2.900   2.141  1.8509 -0.3577  0.4961
18359TIP3    H276569   2.237   2.876   2.280 -0.9689  1.0939  1.9571
18360TIP3   OH276570   3.149   6.336   0.369  0.6772 -0.1228 -0.1502
18360TIP3    H176571   3.069   6.368   0.410  0.9454  0.4055 -0.0279
18360TIP3    H276572   3.124   6.316   0.279  0.0655 -1.3578  0.2734
18361TIP3   OH276573   0.977   2.892  16.567 -0.2236  0.3245  0.3623
18361TIP3    H176574   0.882   2.891  16.580 -0.7278  0.6425 -2.5179
18361TIP3    H276575   1.003   2.800  16.571 -0.2703  0.3540  2.9616
18362TIP3   OH276576   5.581   1.694  11.233  0.1211  0.4199  0.3056
18362TIP3    H176577   5.546   1.774  11.192 -0.5126 -0.2440 -0.4857
18362TIP3    H276578   5.676   1.706  11.232  0.1500  0.3032 -1.6745
18363TIP3   OH276579   0.864   5.271  11.082 -0.3480  0.3091 -0.2687
18363TIP3    H176580   0.878   5.242  10.992  0.2340  0.7619 -0.3377
18363TIP3    H276581   0.945   5.318  11.104 -0.1543 -0.4758  0.7625
18364TIP3   OH276582   6.008   2.395   4.023  0.2307 -0.1362  0.3611
18364TIP3    H176583   5.964   2.456   4.082  0.6952 -0.1449  0.7168
18364TIP3    H276584   6.027   2.447   3.945  0.8999  0.2722  0.7816
18365TIP3   OH276585   2.953   1.682  12.982 -0.6595 -0.3480 -0.0739
18365TIP3    H176586   2.986   1.592  12.982 -0.6186 -0.3406  0.8297
18365TIP3    H276587   3.026   1.735  13.014 -0.7283 -0.0060 -0.4720
18366TIP3   OH276588   5.731   3.923   5.456 -0.1252  0.2310  0.3855
18366TIP3    H176589   5.718   3.998   5.398  0.9170  0.5476  0.5463
18366TIP3    H276590   5.826   3.909   5.456 -0.4366 -2.7193 -1.6937
18367TIP3   OH276591   3.243   2.206   4.382  0.2165  0.0586  0.2503
18367TIP3    H176592   3.290   2.243   4.307  1.1698 -1.3048  0.1268
18367TIP3    H276593   3.173   2.153   4.343  0.6842 -0.6140  0.3033
18368TIP3   OH276594   1.272   3.988   6.214  0.0533 -0.0687 -0.0410
18368TIP3    H176595   1.213   4.009   6.142  1.0882  1.3693 -0.4995
18368TIP3    H276596   1.220   3.930   6.271 -1.7306  0.9697 -0.5198
18369TIP3   OH276597   4.570   0.896  11.517  0.4324  0.3800  0.2060
18369TIP3    H176598   4.643   0.944  11.556 -0.5907  1.1045  1.3098
18369TIP3    H276599   4.507   0.886  11.588 -0.9073  0.5160 -0.9235
18370TIP3   OH276600   6.454   2.052   2.307 -0.1714  0.4729  0.2423
18370TIP3    H176601   6.451   1.961   2.335  0.4858  0.5745  0.6891
18370TIP3    H276602   6.529   2.056   2.247 -0.4918  0.6206 -0.1505
18371TIP3   OH276603   2.630   3.963   2.498 -0.1285  0.5611 -0.1473
18371TIP3    H176604   2.702   3.976   2.436  1.0913  1.0191  1.3294
18371TIP3    H276605   2.648   3.878   2.538 -0.9675  0.2240 -0.4540
18372TIP3   OH276606   2.614   2.008   1.528  0.2032  0.2179  0.1188
18372TIP3    H176607   2.688   1.975   1.477  0.3584 -0.2078  0.6171
18372TIP3    H276608   2.637   2.099   1.548  0.6443  0.0532  0.3725
18373TIP3   OH276609   4.023   5.197   3.786  0.9788 -0.3149 -0.0247
18373TIP3    H176610   4.008   5.114   3.832  0.0471  0.8836  1.9882
18373TIP3    H276611   3.938   5.217   3.745  0.4164  0.8019  1.5887
18374TIP3   OH276612   5.776   2.441   4.502  0.1788  0.5028 -0.5506
18374TIP3    H176613   5.682   2.425   4.509 -0.1720  2.9932  2.4755
18374TIP3    H276614   5.807   2.376   4.438 -2.9979 -2.6348  0.7932
18375TIP3   OH276615   4.397   3.678   4.797  0.8853 -0.6282 -0.5692
18375TIP3    H176616   4.326   3.712   4.744  1.0636  1.7581  0.5691
18375TIP3    H276617   4.355   3.616   4.857  0.0097 -0.2794 -0.8075
18376TIP3   OH276618   6.550   6.142   4.071 -0.0797 -0.2686  0.2702
18376TIP3    H176619   6.536   6.055   4.109 -0.1732 -0.5207 -0.3317
18376TIP3    H276620   6.570   6.198   4.146  0.9775 -1.0127  0.5587
18377TIP3   OH276621   3.809   1.302  10.591  0.7515  0.0570  1.0614
18377TIP3    H176622   3.897   1.331  10.568  0.4381  1.0168  1.0400
18377TIP3    H276623   3.788   1.349  10.672  0.7195 -1.0802  1.7332
18378TIP3   OH276624   4.922   6.339   6.403  0.3308 -0.3666 -0.2319
18378TIP3    H176625   4.996   6.396   6.381 -0.4729  0.6484 -0.3627
18378TIP3    H276626   4.947   6.300   6.487  0.0733  1.6883  0.8508
18379TIP3   OH276627   1.874   5.396   3.317  0.5349 -0.7240 -0.1170
18379TIP3    H176628   1.923   5.330   3.365 -1.0369 -1.5455  0.4346
18379TIP3    H276629   1.906   5.479   3.351  1.4214 -1.2319  0.3257
18380TIP3   OH276630   0.884   3.788   5.504  0.4465  0.1278 -0.0952
18380TIP3    H176631   0.868   3.798   5.410  1.5446  1.8533 -0.1515
18380TIP3    H276632   0.971   3.748   5.510  0.8404  0.9921  0.1606
18381TIP3   OH276633   2.964   3.708   4.913 -0.3671 -0.2286  0.0043
18381TIP3    H176634   2.917   3.677   4.990 -1.7681  1.8146  0.0541
18381TIP3    H276635   3.056   3.688   4.931 -0.7753 -0.6605  1.7681
18382TIP3   OH276636   0.417   5.883   5.409 -0.0108 -0.2170 -0.1315
18382TIP3    H176637   0.429   5.958   5.350  1.3540 -0.3319 -0.0484
18382TIP3    H276638   0.499   5.834   5.402 -0.0349 -0.5305  1.4357
18383TIP3   OH276639   1.582   3.835   1.117 -0.5918  0.3273  0.2200
18383TIP3    H176640   1.486   3.828   1.127 -0.9372  2.4096 -1.1490
18383TIP3    H276641   1.610   3.884   1.194 -0.6939  0.1569  0.3668
18384TIP3   OH276642   1.597   4.210   5.908  0.1628  0.5372 -0.1959
18384TIP3    H176643   1.655   4.272   5.952 -0.9761  0.5098  1.4405
18384TIP3    H276644   1.509   4.242   5.927 -0.3967  0.1557 -1.9904
18385TIP3   OH276645   0.925   6.304   1.269  0.0610 -0.3322  0.0910
18385TIP3    H176646   0.958   6.218   1.244  0.6485 -0.4735  1.2890
18385TIP3    H276647   0.942   6.310   1.363  0.3816  1.2484 -0.0479
18386TIP3   OH276648   2.066   0.786  16.908 -0.4715 -0.3001  0.2628
18386TIP3    H176649   1.989   0.778  16.964 -0.1004 -2.1636  0.5559
18386TIP3    H276650   2.121   0.711  16.930  0.2992 -0.3782 -1.6757
18387TIP3   OH276651   4.151   1.332  14.079 -0.5791  0.2843  0.2579
18387TIP3    H176652   4.198   1.396  14.133 -1.8817  0.3257  1.3916
18387TIP3    H276653   4.146   1.254  14.134 -0.3096 -0.3164 -0.5448
18388TIP3   OH276654   3.111   0.957  11.172 -0.3388  0.2033  0.1157
18388TIP3    H176655   3.169   0.881  11.183  0.8795  0.7807 -1.8666
18388TIP3    H276656   3.132   1.014  11.246  0.6830 -0.1927  0.1468
18389TIP3   OH276657   0.443   0.963  12.468  0.0690 -0.1250  0.4348
18389TIP3    H176658   0.477   0.953  12.557  1.5401 -1.2961 -0.2158
18389TIP3    H276659   0.500   0.907  12.415  0.3355  1.9106 -1.5289
18390TIP3   OH276660   0.169   1.059   3.359 -0.2882  0.0772 -0.2955
18390TIP3    H176661   0.076   1.080   3.364 -0.2016  0.3034  0.5907
18390TIP3    H276662   0.214   1.141   3.378  0.0696 -0.3348  0.7324
18391TIP3   OH276663   5.434   2.882  11.834  0.4492  0.1043 -0.0282
18391TIP3    H176664   5.442   2.957  11.894  1.4681  0.0267 -0.0599
18391TIP3    H276665   5.501   2.896  11.768  0.6699 -0.8580 -0.0211
18392TIP3   OH276666   1.248   0.569   0.473  0.3607 -0.0975 -0.0838
18392TIP3    H176667   1.314   0.502   0.487  0.9598  0.1130 -1.7212
18392TIP3    H276668   1.169   0.534   0.514  0.9243 -1.3512 -0.0340
18393TIP3   OH276669   3.426   2.709  14.432 -0.0740 -0.6409  0.2690
18393TIP3    H176670   3.491   2.744  14.372 -0.2712  0.2861  0.5737
18393TIP3    H276671   3.471   2.704  14.516 -0.1252 -0.8850  0.2826
18394TIP3   OH276672   4.442   4.554   6.322 -0.4004 -0.5197  0.3699
18394TIP3    H176673   4.470   4.581   6.410 -1.1096  1.6689 -0.0274
18394TIP3    H276674   4.380   4.482   6.338  0.8930 -1.4346  1.5321
18395TIP3   OH276675   6.108   5.552  13.114 -0.6306  0.4859  0.3254
18395TIP3    H176676   6.039   5.487  13.124 -1.0342  0.7544 -0.5642
18395TIP3    H276677   6.188   5.500  13.103 -0.7857  0.1631  0.6833
18396TIP3   OH276678   3.139   1.192  13.555 -0.7580  0.2404  0.2626
18396TIP3    H176679   3.109   1.237  13.477  0.6613  1.4287  0.3551
18396TIP3    H276680   3.061   1.186  13.611 -1.2655  1.5005 -0.2703
18397TIP3   OH276681   5.800   4.709  15.394  0.1687 -0.0909 -0.3208
18397TIP3    H176682   5.789   4.629  15.445  1.4100  0.4342  0.7990
18397TIP3    H276683   5.850   4.682  15.317  0.2437 -0.4589 -0.1435
18398TIP3   OH276684   0.892   6.133   3.109 -0.3806  0.3505  0.4431
18398TIP3    H176685   0.876   6.090   3.025  2.4016  0.1772 -0.0987
18398TIP3    H276686   0.844   6.080   3.173 -1.2686 -0.4486 -0.8414
18399TIP3   OH276687   4.412   3.605  16.841  0.2763 -0.4343  0.1136
18399TIP3    H176688   4.432   3.659  16.764  0.4441 -0.6772 -0.0153
18399TIP3    H276689   4.446   3.655  16.915 -0.7881  0.2843  0.1451
18400TIP3   OH276690   3.842   4.278   4.442  0.4686 -0.3592  0.1114
18400TIP3    H176691   3.799   4.244   4.521  0.9835  0.1202  0.6058
18400TIP3    H276692   3.866   4.368   4.464  2.3397 -0.8162  0.1082
18401TIP3   OH276693   1.921   6.075  12.873 -0.0666 -0.0200 -1.1700
18401TIP3    H176694   1.977   6.053  12.798 -1.6300 -0.9669 -2.1287
18401TIP3    H276695   1.841   6.109  12.833 -0.7205 -0.0013  0.1084
18402TIP3   OH276696   0.212   2.159  13.627  0.4501 -0.0677 -0.5435
18402TIP3    H176697   0.144   2.107  13.584  0.7465 -0.2447 -0.7913
18402TIP3    H276698   0.293   2.134  13.585  1.2756 -2.6930  2.2228
18403TIP3   OH276699   0.554   0.440   1.113  0.0238  0.2806  0.2748
18403TIP3    H176700   0.575   0.505   1.181 -0.5514  0.5008  0.2417
18403TIP3    H276701   0.479   0.477   1.067  0.2068 -0.0276 -0.2745
18404TIP3   OH276702   1.425   2.960  16.065  0.0619  0.1928  0.3131
18404TIP3    H176703   1.374   2.963  15.985  0.8680  2.4534 -0.1825
18404TIP3    H276704   1.504   2.911  16.042 -0.3526 -0.3966  0.1412
18405TIP3   OH276705   0.300   2.222   3.555 -0.1530 -0.7352 -0.0107
18405TIP3    H176706   0.369   2.284   3.582  0.4596 -0.7805 -1.4027
18405TIP3    H276707   0.247   2.272   3.493 -1.0659 -0.8816  0.6389
18406TIP3   OH276708   4.758   1.803  11.689 -0.0510  0.4585 -0.2288
18406TIP3    H176709   4.769   1.844  11.775 -1.0575 -0.0306  0.1435
18406TIP3    H276710   4.756   1.877  11.628 -0.7213  0.8993  0.3155
18407TIP3   OH276711   0.759   4.755   2.273 -0.3708  0.2202  0.4643
18407TIP3    H176712   0.764   4.768   2.179  0.8736  0.2826  0.5301
18407TIP3    H276713   0.764   4.844   2.309 -2.1250  0.3253  0.5810
18408TIP3   OH276714   5.561   0.126  12.463  0.8533 -0.6883 -0.5880
18408TIP3    H176715   5.636   0.088  12.510  0.5655 -1.4069 -0.6935
18408TIP3    H276716   5.486   0.074  12.492  0.1566  0.8942  0.5540
18409TIP3   OH276717   4.611   3.890  15.889 -0.6398  0.3503 -0.2097
18409TIP3    H176718   4.614   3.803  15.850 -2.0596 -0.2544  0.9130
18409TIP3    H276719   4.542   3.936  15.842 -0.1238  0.7723 -0.5720
18410TIP3   OH276720   1.639   2.628  12.789  0.2664 -0.2622  0.1169
18410TIP3    H176721   1.686   2.651  12.869  2.3668 -1.9301 -0.5419
18410TIP3    H276722   1.641   2.708  12.737 -0.0681  0.4937  1.2261
18411TIP3   OH276723   0.235   5.750  16.959 -0.3023 -0.3184  0.4418
18411TIP3    H176724   0.309   5.783  17.009  0.0248 -0.7017  0.2232
18411TIP3    H276725   0.164   5.813  16.975  0.0091 -0.0579  0.8098
18412TIP3   OH276726   0.058   3.292   5.122  0.2838 -0.0876  0.4891
18412TIP3    H176727   0.144   3.283   5.163  1.0669 -0.3760 -1.1098
18412TIP3    H276728   0.031   3.202   5.104 -0.1841  0.0196  0.6523
18413TIP3   OH276729   1.351   0.914  13.897  0.1720  0.5438 -0.0656
18413TIP3    H176730   1.267   0.940  13.861  0.0339 -0.1667 -0.2646
18413TIP3    H276731   1.405   0.893  13.821  0.2300  0.1062  0.0928
18414TIP3   OH276732   0.707   1.614   4.728 -0.3411  0.4788 -0.3425
18414TIP3    H176733   0.769   1.568   4.671  0.2178 -0.1621  0.7509
18414TIP3    H276734   0.623   1.607   4.683  0.4656  2.0450 -2.2526
18415TIP3   OH276735   3.869   2.303   3.071  0.0836  0.0835  0.3145
18415TIP3    H176736   3.871   2.387   3.026  0.8906 -0.0481  0.0917
18415TIP3    H276737   3.877   2.325   3.164  2.7165  0.1718  0.1378
18416TIP3   OH276738   6.400   3.766  14.724 -0.2424 -0.1253  0.3754
18416TIP3    H176739   6.317   3.793  14.764 -1.1891  1.1133 -2.1655
18416TIP3    H276740   6.387   3.783  14.631  2.9058  0.1261 -0.1091
18417TIP3   OH276741   2.949   0.891  11.453 -0.1507  0.4758 -0.5513
18417TIP3    H176742   2.963   0.861  11.363 -0.3863 -0.3228 -0.3268
18417TIP3    H276743   2.882   0.833  11.488  1.6879 -0.8796  0.9558
18418TIP3   OH276744   3.685   2.611  13.275  0.9008 -0.0706 -0.3017
18418TIP3    H176745   3.748   2.591  13.344  1.7681 -0.5047 -1.1943
18418TIP3    H276746   3.733   2.596  13.193 -0.2145  0.0667 -1.0040
18419TIP3   OH276747   1.388   5.590  15.981 -0.0923  0.2031  0.3196
18419TIP3    H176748   1.427   5.588  15.893 -2.6938 -1.0586 -0.9065
18419TIP3    H276749   1.457   5.627  16.036  1.8692  0.4854 -2.1163
18420TIP3   OH276750   3.051   3.258  16.804  0.0953  0.1381  0.1091
18420TIP3    H176751   3.015   3.221  16.723  1.9460  0.9340 -1.1633
18420TIP3    H276752   2.981   3.313  16.839 -0.6081  0.0934 -1.1806
18421TIP3   OH276753   0.938   4.236   3.805  0.1826 -0.2467 -0.2546
18421TIP3    H176754   0.936   4.148   3.842  0.5755 -0.6525 -1.1794
18421TIP3    H276755   1.016   4.277   3.844  0.8309 -0.8117 -0.9309
18422TIP3   OH276756   1.185   3.692   5.351  0.1707  0.1508  0.3574
18422TIP3    H176757   1.183   3.781   5.318  2.5259  0.0158 -0.4048
18422TIP3    H276758   1.115   3.646   5.303 -0.3380  1.3271 -0.0515
18423TIP3   OH276759   1.704   1.318  14.455 -0.2859 -0.1611  0.2623
18423TIP3    H176760   1.655   1.397  14.434 -1.6296 -0.7571  0.9877
18423TIP3    H276761   1.720   1.276  14.371  3.2142  2.3280 -0.5438
18424TIP3   OH276762   0.961   0.029   3.045 -0.3579  0.0068  0.4240
18424TIP3    H176763   0.869   0.030   3.073 -0.3180  0.3756  0.5366
18424TIP3    H276764   0.996  -0.053   3.081 -0.5950 -0.0473  0.5319
18425TIP3   OH276765   5.831   1.996   1.894 -0.0568 -0.5916 -0.6299
18425TIP3    H176766   5.870   2.043   1.821 -0.9033 -0.8723 -1.2757
18425TIP3    H276767   5.872   1.910   1.892  1.3596  0.0165  0.4414
18426TIP3   OH276768   5.280   1.980  15.446 -0.5289  0.1038 -0.4480
18426TIP3    H176769   5.194   2.014  15.421  0.0449  0.5928 -1.8391
18426TIP3    H276770   5.331   1.980  15.365  0.5355 -0.9562  0.1910
18427TIP3   OH276771   4.460   2.742  16.962 -0.4275 -0.1135 -0.3933
18427TIP3    H176772   4.401   2.731  16.887 -0.3094 -1.2923 -0.3379
18427TIP3    H276773   4.429   2.677  17.026 -0.3309  0.6661  0.4608
18428TIP3   OH276774   2.993   2.490  11.004 -0.5784  0.4252 -0.1455
18428TIP3    H176775   2.953   2.411  10.968  1.1852  0.7256 -3.0689
18428TIP3    H276776   2.969   2.559  10.942  1.6286  1.2364 -0.1850
18429TIP3   OH276777   4.587   3.095   4.176  0.0932  0.3397 -0.3051
18429TIP3    H176778   4.631   3.024   4.130  0.6732  1.4107 -1.4750
18429TIP3    H276779   4.565   3.058   4.262 -0.0484 -1.3783 -1.0335
18430TIP3   OH276780   0.188   0.193  13.362  0.1714 -0.0102  0.1107
18430TIP3    H176781   0.247   0.249  13.311 -0.4813 -0.7261 -1.4908
18430TIP3    H276782   0.174   0.241  13.443  1.4735  1.0430 -0.2503
18431TIP3   OH276783   4.389   6.276   2.899 -0.3780  0.4113 -0.0272
18431TIP3    H176784   4.409   6.185   2.879 -0.1930  0.4117  0.1527
18431TIP3    H276785   4.316   6.272   2.960 -1.2836  0.4245 -1.0791
18432TIP3   OH276786   4.382   3.195  13.088 -0.0326  0.0672  0.5288
18432TIP3    H176787   4.408   3.239  13.169 -0.7391  0.1147  0.7388
18432TIP3    H276788   4.449   3.127  13.075  1.2133  1.3533  0.0557
18433TIP3   OH276789   1.803   2.830   5.726  0.4667  0.3598  0.1249
18433TIP3    H176790   1.751   2.841   5.646 -0.1780 -3.5843 -0.1925
18433TIP3    H276791   1.892   2.854   5.699 -0.1542  1.6338 -0.9528
18434TIP3   OH276792   5.563   4.303  13.133  0.2956  0.4459  0.2849
18434TIP3    H176793   5.554   4.395  13.106  0.6743  0.2141 -0.6384
18434TIP3    H276794   5.485   4.287  13.187 -0.8953  0.7132 -1.2815
18435TIP3   OH276795   1.052   1.468  15.701  0.4635 -0.2122 -0.0899
18435TIP3    H176796   1.039   1.383  15.743 -1.4193  0.1580  0.1938
18435TIP3    H276797   0.963   1.504  15.695  0.8191  0.3708 -3.0737
18436TIP3   OH276798   5.854   4.828   3.760  0.1797 -0.4243 -0.4989
18436TIP3    H176799   5.922   4.883   3.721  0.1742 -0.8512 -1.1285
18436TIP3    H276800   5.813   4.884   3.826  1.5048 -0.3358  0.2966
18437TIP3   OH276801   5.157   0.448   3.334 -0.1094  0.0931 -0.1394
18437TIP3    H176802   5.178   0.511   3.265  0.0961 -1.2910 -1.3906
18437TIP3    H276803   5.062   0.442   3.333 -0.4251  2.5980  2.0994
18438TIP3   OH276804   5.920   2.558   5.520 -0.3726  0.2709  0.5973
18438TIP3    H176805   6.002   2.542   5.566 -0.3554  0.6545  0.7084
18438TIP3    H276806   5.933   2.643   5.478 -1.0753  0.8228  1.4575
18439TIP3   OH276807   2.691   4.589   1.119 -0.2469  0.6574 -0.5370
18439TIP3    H176808   2.601   4.616   1.100 -0.7104 -0.4251  0.0742
18439TIP3    H276809   2.695   4.497   1.095  0.4556  0.4627  0.2789
18440TIP3   OH276810   6.502   0.392  13.635 -0.2521 -0.0161 -0.2183
18440TIP3    H176811   6.540   0.312  13.671 -0.3453  0.3023  0.6177
18440TIP3    H276812   6.408   0.372  13.626 -0.5627  0.5040  1.5140
18441TIP3   OH276813   3.809   2.225  15.520 -0.2718  0.1067 -0.2346
18441TIP3    H176814   3.785   2.186  15.604  0.5981 -0.3519 -0.1857
18441TIP3    H276815   3.760   2.174  15.455 -2.1292  1.4090  0.0406
18442TIP3   OH276816   2.662   5.967  12.145 -0.3942 -0.1685  0.2726
18442TIP3    H176817   2.608   5.966  12.066  0.5025  0.2387 -0.3660
18442TIP3    H276818   2.699   6.055  12.148 -1.0871  0.1018  1.6373
18443TIP3   OH276819   3.872   3.540  12.932  0.2225 -0.1081 -0.0371
18443TIP3    H176820   3.858   3.604  13.001  0.0348  1.3435 -1.3718
18443TIP3    H276821   3.820   3.464  12.958  2.0482 -0.5841  2.6003
18444TIP3   OH276822   6.124   3.499  13.771  0.4191  0.2334 -0.6473
18444TIP3    H176823   6.100   3.434  13.705 -0.1421 -0.2954  0.0611
18444TIP3    H276824   6.178   3.450  13.833  2.9278  1.2599 -1.8918
18445TIP3   OH276825   4.265   1.452  16.053 -0.1666 -0.7578  0.3627
18445TIP3    H176826   4.235   1.364  16.032  0.4789 -0.6578 -1.1016
18445TIP3    H276827   4.249   1.502  15.973  1.0779  0.0232  0.5859
18446TIP3   OH276828   6.513   2.851   0.775 -0.7409 -0.1796  0.4387
18446TIP3    H176829   6.435   2.888   0.817 -0.7955 -0.9749  1.0681
18446TIP3    H276830   6.570   2.827   0.847 -0.3129 -0.4710  0.0084
18447TIP3   OH276831   0.118   2.806  13.650  0.0426 -0.1926 -0.1073
18447TIP3    H176832   0.168   2.882  13.679  0.3285 -0.4763  0.1461
18447TIP3    H276833   0.027   2.832  13.663  0.0866  0.5850 -1.2089
18448TIP3   OH276834   0.070   3.476  16.590 -0.0509 -0.0695  0.6629
18448TIP3    H176835   0.075   3.547  16.654 -0.8040  2.6539 -2.1085
18448TIP3    H276836   0.161   3.455  16.570  0.2742  2.2852 -0.6435
18449TIP3   OH276837   5.758   5.885   5.191 -0.2453 -0.0484  0.4696
18449TIP3    H176838   5.823   5.953   5.171 -0.2009 -0.1339  0.3186
18449TIP3    H276839   5.697   5.888   5.117  1.1915 -1.9282 -0.9066
18450TIP3   OH276840   6.392   4.405  12.997 -0.5972 -0.1038 -0.5197
18450TIP3    H176841   6.433   4.468  12.938 -0.1157 -0.0723 -0.1530
18450TIP3    H276842   6.298   4.424  12.990 -0.5013  0.2643 -0.8551
18451TIP3   OH276843   5.892   2.097  12.338 -0.1857 -0.0821 -0.6008
18451TIP3    H176844   5.904   2.165  12.403  1.1931  2.0002 -2.8454
18451TIP3    H276845   5.799   2.100  12.315 -0.0970  1.3100 -0.8642
18452TIP3   OH276846   2.746   2.685   5.200  0.3607 -0.3144 -0.1514
18452TIP3    H176847   2.733   2.634   5.120  1.3423  0.4742 -0.8369
18452TIP3    H276848   2.831   2.656   5.233  1.3885  1.5043 -1.0722
18453TIP3   OH276849   3.209   5.766   5.434  0.0462 -0.2608  0.2197
18453TIP3    H176850   3.159   5.760   5.516 -1.5671 -0.8609 -0.7555
18453TIP3    H276851   3.145   5.796   5.369  1.1071 -0.4993 -0.9812
18454TIP3   OH276852   4.030   1.600   3.036 -0.5742 -0.3532  0.3900
18454TIP3    H176853   4.091   1.667   3.066 -0.2407 -0.5354  0.1283
18454TIP3    H276854   4.086   1.529   3.004 -0.8709  0.3299 -1.8273
18455TIP3   OH276855   3.560   2.703   1.464  0.4548 -0.1956  0.0710
18455TIP3    H176856   3.544   2.791   1.431 -1.9582 -0.9940 -1.1217
18455TIP3    H276857   3.523   2.703   1.552 -2.4319 -0.7585 -1.0302
18456TIP3   OH276858   3.487   4.369  17.227  0.0457 -0.3317 -0.4052
18456TIP3    H176859   3.512   4.293  17.175  0.9370 -0.5868  0.3743
18456TIP3    H276860   3.570   4.409  17.252 -0.3499  2.0382 -2.3962
18457TIP3   OH276861   1.020   4.960   4.064 -0.2472 -0.3111 -0.5829
18457TIP3    H176862   0.938   4.989   4.102  0.7090  0.1350  1.2580
18457TIP3    H276863   1.012   4.865   4.059 -0.6615 -0.3193  0.1423
18458TIP3   OH276864   3.455   4.326  13.828 -0.2161  0.3299  0.3957
18458TIP3    H176865   3.406   4.405  13.852 -1.3019  0.4416 -1.8707
18458TIP3    H276866   3.547   4.349  13.843 -0.4562  2.2744 -0.7197
18459TIP3   OH276867   4.041   4.624  13.379  0.4773  0.0172  0.1018
18459TIP3    H176868   3.993   4.548  13.345 -0.6859  1.2253 -1.0902
18459TIP3    H276869   4.061   4.601  13.470 -0.8010 -1.2665  0.0952
18460TIP3   OH276870   3.764   0.368   2.619  0.0288 -0.4457 -0.5173
18460TIP3    H176871   3.825   0.442   2.628 -0.3537 -0.1843 -0.0695
18460TIP3    H276872   3.711   0.371   2.698 -0.8152 -0.4511 -1.0777
18461TIP3   OH276873   2.781   0.862   5.989 -0.5425  0.1100  0.5771
18461TIP3    H176874   2.864   0.862   5.943  0.4943  1.1289  2.3188
18461TIP3    H276875   2.739   0.944   5.965 -0.7530 -0.1102  0.1916
18462TIP3   OH276876   5.994   5.265  12.504 -0.4983  0.6374 -0.7327
18462TIP3    H176877   6.043   5.187  12.529  1.7062  1.6726 -1.5551
18462TIP3    H276878   5.915   5.262  12.558 -0.4076 -2.0332 -0.6204
18463TIP3   OH276879   6.172   2.303   1.073 -0.2511 -0.4448  0.5094
18463TIP3    H176880   6.209   2.384   1.038 -0.3628 -0.1635  1.0325
18463TIP3    H276881   6.079   2.309   1.053 -0.1185 -0.8759 -0.2731
18464TIP3   OH276882   2.922   3.632   1.211 -0.2656 -0.2448  1.0792
18464TIP3    H176883   2.952   3.565   1.272 -0.9363 -0.3629  1.2847
18464TIP3    H276884   2.983   3.626   1.137  0.9934  0.3872  2.0388
18465TIP3   OH276885   5.024   4.108  16.751 -0.1439  0.1218 -0.1705
18465TIP3    H176886   5.102   4.161  16.734 -0.2999  0.4425  0.1157
18465TIP3    H276887   5.051   4.046  16.818  0.2815 -0.7147 -1.0862
18466TIP3   OH276888   4.473   5.894  11.048  0.1529  0.0953 -0.2727
18466TIP3    H176889   4.505   5.812  11.084  1.0313  0.7473  0.5096
18466TIP3    H276890   4.552   5.945  11.030 -0.3752  1.3445  0.6979
18467TIP3   OH276891   6.182   5.354   1.789  0.2900 -0.0834  0.2825
18467TIP3    H176892   6.172   5.278   1.731  1.6078  0.8354 -1.2156
18467TIP3    H276893   6.274   5.377   1.783 -0.3229  2.4920 -0.4368
18468TIP3   OH276894   4.807   5.661  16.408 -0.4799 -0.0606  0.1026
18468TIP3    H176895   4.785   5.643  16.317 -1.4201 -1.9864  0.6588
18468TIP3    H276896   4.764   5.591  16.457  0.8695  0.3278  1.9311
18469TIP3   OH276897   6.299   2.660  17.371 -0.1450  0.2210 -0.1684
18469TIP3    H176898   6.338   2.677  17.456 -0.6449  0.3744  0.0327
18469TIP3    H276899   6.328   2.571  17.348  2.5495  1.2859 -1.2663
18470TIP3   OH276900   2.942   6.655   0.764 -0.8446  0.3496  0.1534
18470TIP3    H176901   2.994   6.733   0.745  0.7322 -0.4169  1.1247
18470TIP3    H276902   2.961   6.595   0.692  1.9948 -1.0266  1.8806
18471TIP3   OH276903   6.576   0.388  10.742 -0.4548  0.3709 -0.2551
18471TIP3    H176904   6.495   0.386  10.691  0.8237 -0.7561 -2.3893
18471TIP3    H276905   6.610   0.298  10.736  1.1966  0.9349  0.1494
18472TIP3   OH276906   6.422   6.793   1.827 -0.3645 -0.2520  0.0630
18472TIP3    H176907   6.332   6.798   1.794  0.3657 -0.5136 -2.1497
18472TIP3    H276908   6.454   6.708   1.797  0.9341  0.2458 -0.0191
18473TIP3   OH276909   6.727   3.793  11.291  0.0047  0.6005 -0.0555
18473TIP3    H176910   6.784   3.860  11.253  0.5295  0.5890  0.7115
18473TIP3    H276911   6.752   3.788  11.383 -0.2936 -0.3802 -0.0132
18474TIP3   OH276912   3.289   5.701  16.901 -0.3528  0.1137  0.1655
18474TIP3    H176913   3.254   5.649  16.973 -0.1319 -0.1397  0.0903
18474TIP3    H276914   3.359   5.753  16.940  0.8538 -1.2144 -0.1927
18475TIP3   OH276915   1.906   4.482  12.968  0.1634  0.4418  0.1389
18475TIP3    H176916   1.979   4.509  13.025 -0.5613 -0.2292  1.4298
18475TIP3    H276917   1.926   4.391  12.945  2.1182  1.5847 -3.4351
18476TIP3   OH276918   3.878   1.428   2.006  0.1480  0.1485 -1.0237
18476TIP3    H176919   3.820   1.353   1.993  1.1549 -0.5234 -1.7978
18476TIP3    H276920   3.839   1.477   2.078 -0.5348 -1.1222 -0.5111
18477TIP3   OH276921   1.893   3.729  14.214  0.0277 -0.5260  0.7439
18477TIP3    H176922   1.811   3.763  14.251  1.4651 -0.1468  3.9381
18477TIP3    H276923   1.952   3.804  14.212  0.7864 -1.1212 -0.0105
18478TIP3   OH276924   3.525   3.588   2.565 -0.6822  0.0413  0.4170
18478TIP3    H176925   3.445   3.573   2.616  0.4857 -1.1674  2.0247
18478TIP3    H276926   3.595   3.558   2.623  0.6051 -4.3408 -2.8887
18479TIP3   OH276927   5.297   2.377   4.370  0.7170  0.4192 -0.6554
18479TIP3    H176928   5.245   2.334   4.303  0.4757 -1.7783  0.8628
18479TIP3    H276929   5.366   2.422   4.321 -0.6187  0.6145 -2.4736
18480TIP3   OH276930   4.618   3.988  14.674 -0.3089 -0.0553  0.1464
18480TIP3    H176931   4.641   3.919  14.736  0.3577 -0.4742 -0.5444
18480TIP3    H276932   4.523   3.981  14.663 -0.3436 -0.3811  0.6450
18481TIP3   OH276933   5.242   3.596   5.270  0.8068 -0.6269  0.2638
18481TIP3    H176934   5.222   3.621   5.179 -0.1831  1.4100  0.9617
18481TIP3    H276935   5.334   3.568   5.268  1.4888  1.4574 -1.0278
18482TIP3   OH276936   0.861   3.631  16.590 -0.3231 -0.3388  0.8950
18482TIP3    H176937   0.784   3.601  16.543  0.6466 -1.1460 -0.2144
18482TIP3    H276938   0.898   3.552  16.629  0.3188 -0.0570  0.8640
18483TIP3   OH276939   6.036   5.560   4.526  0.0561  0.6798  0.1118
18483TIP3    H176940   6.019   5.633   4.586  1.2165  1.4222 -0.4424
18483TIP3    H276941   6.129   5.565   4.507 -0.1092 -0.1298 -1.0122
18484TIP3   OH276942   5.505   4.621   4.133  0.5922  0.1745  0.0341
18484TIP3    H176943   5.545   4.666   4.059  0.1019 -1.0669 -1.0143
18484TIP3    H276944   5.413   4.647   4.131 -0.1281 -2.2287 -1.7213
18485TIP3   OH276945   4.618   2.774  15.528 -0.2631 -0.1024  0.3787
18485TIP3    H176946   4.582   2.849  15.575 -1.8426  1.2113 -2.6972
18485TIP3    H276947   4.708   2.799  15.508  0.0608 -0.2028  1.6177
18486TIP3   OH276948   2.347   3.902  12.878 -0.1789  0.5979  0.2424
18486TIP3    H176949   2.417   3.921  12.940 -0.2153 -0.5387  0.6727
18486TIP3    H276950   2.278   3.864  12.932 -1.1528  1.7242 -0.1736
18487TIP3   OH276951   6.651   6.736  14.779 -0.4191  0.7849  0.3315
18487TIP3    H176952   6.570   6.713  14.733  0.9530 -1.3792 -1.1719
18487TIP3    H276953   6.627   6.734  14.871 -1.5832 -2.2301  0.0557
18488TIP3   OH276954   4.421   4.147  14.165  0.1180 -0.4483 -0.3117
18488TIP3    H176955   4.339   4.149  14.213  0.5842 -0.7086  0.5131
18488TIP3    H276956   4.405   4.200  14.086 -0.2993  0.9840  0.6951
18489TIP3   OH276957   6.622   1.746  12.990 -0.0752 -0.3417  0.1772
18489TIP3    H176958   6.626   1.677  13.057 -1.6656 -3.0404 -2.3033
18489TIP3    H276959   6.545   1.798  13.014 -1.6838 -2.3449 -0.3905
18490TIP3   OH276960   2.391   3.581   4.192 -0.2905 -0.1623  0.9334
18490TIP3    H176961   2.353   3.494   4.206 -0.9167 -0.4099 -1.8070
18490TIP3    H276962   2.332   3.623   4.130  0.5538  1.8737  1.4459
18491TIP3   OH276963   5.870   0.197   3.861 -0.3721 -0.2630 -0.3953
18491TIP3    H176964   5.843   0.134   3.794 -0.9927 -1.7793  1.2138
18491TIP3    H276965   5.837   0.281   3.829 -1.3015 -1.0659 -1.6331
18492TIP3   OH276966   1.479   2.652   5.877  0.6884 -0.0980  0.8173
18492TIP3    H176967   1.498   2.681   5.788  0.8456  0.2405  0.9601
18492TIP3    H276968   1.393   2.611   5.871  0.4677  0.3905  0.6095
18493TIP3   OH276969   3.975   5.586  17.008  0.1749 -0.2800 -0.5220
18493TIP3    H176970   3.958   5.577  17.101 -2.7208 -0.3979 -0.9563
18493TIP3    H276971   3.964   5.680  16.991 -2.7482 -0.6216 -1.1700
18494TIP3   OH276972   3.928   0.389   3.573  0.3287 -1.1551  0.9618
18494TIP3    H176973   3.919   0.481   3.598 -0.2521 -0.7836 -0.5117
18494TIP3    H276974   4.013   0.362   3.608  0.0023 -0.4056  2.4036
18495TIP3   OH276975   3.682   1.453  10.777 -0.2950  0.1389  0.4852
18495TIP3    H176976   3.588   1.441  10.761 -0.4381  0.1100  1.3190
18495TIP3    H276977   3.697   1.547  10.765 -0.7090  0.3815  1.6866
18496TIP3   OH276978   0.132   3.377   5.407  0.0993 -0.2401  0.2375
18496TIP3    H176979   0.064   3.325   5.449  0.5371  0.1726  1.4902
18496TIP3    H276980   0.205   3.316   5.394  0.0227 -0.3263  0.2074
18497TIP3   OH276981   3.344   4.058   2.505  0.3452  0.1796 -0.3152
18497TIP3    H176982   3.405   4.075   2.577 -1.3795  0.2933  1.1946
18497TIP3    H276983   3.396   4.010   2.441  2.2323  1.0059  0.5053
18498TIP3   OH276984   4.348   2.868  13.232 -0.0065  0.0013 -0.7739
18498TIP3    H176985   4.268   2.816  13.235  0.4756 -0.6958  0.9271
18498TIP3    H276986   4.330   2.945  13.287  0.7423 -0.5713  0.3060
18499TIP3   OH276987   0.424   4.351  16.995  0.3162 -0.4192 -0.9015
18499TIP3    H176988   0.353   4.354  17.059  0.5766 -0.9225 -0.5778
18499TIP3    H276989   0.407   4.424  16.936  1.0685  1.1813  0.7900
18500TIP3   OH276990   1.681   5.302   4.095  0.3232  0.3035  0.5539
18500TIP3    H176991   1.699   5.208   4.084 -1.2468  0.1785 -2.0183
18500TIP3    H276992   1.765   5.341   4.116  1.7165 -1.3162 -1.5731
18501TIP3   OH276993   6.207   2.313   1.632  0.4237 -0.3912 -0.4203
18501TIP3    H176994   6.223   2.403   1.660 -0.8905  0.4979 -2.3620
18501TIP3    H276995   6.240   2.260   1.705  0.5932  1.6425  1.0857
18502TIP3   OH276996   3.589   1.840  11.319  0.2534 -0.2809  0.1052
18502TIP3    H176997   3.562   1.748  11.309 -0.6939 -0.0915  0.8677
18502TIP3    H276998   3.516   1.882  11.364  0.5067  0.9483 -0.5926
18503TIP3   OH276999   1.159   4.251   5.426  0.3422 -0.1700 -0.0759
18503TIP3    H177000   1.119   4.209   5.350 -0.9027  1.4629 -0.3945
18503TIP3    H277001   1.240   4.289   5.392 -0.9969  1.9688 -1.0731
18504TIP3   OH277002   1.684   5.472   1.245  0.0274  0.4651  0.4261
18504TIP3    H177003   1.676   5.561   1.278 -0.9571  0.4103  0.3704
18504TIP3    H277004   1.627   5.470   1.168  1.2312  0.2082 -0.4836
18505TIP3   OH277005   0.118   3.450   0.297 -0.2571  0.2580  0.0301
18505TIP3    H177006   0.049   3.511   0.271 -2.2472 -0.8357  2.2993
18505TIP3    H277007   0.070   3.375   0.334  2.1380 -0.2442  2.4255
18506TIP3   OH277008   0.530   6.446   0.936  0.2279 -0.1539 -0.2892
18506TIP3    H177009   0.611   6.395   0.943  0.3207  0.2331  2.0835
18506TIP3    H277010   0.461   6.381   0.947  0.3499  0.1719  3.9197
18507TIP3   OH277011   2.259   6.632   3.564  0.2661 -0.2153 -0.2238
18507TIP3    H177012   2.242   6.585   3.482  0.1178 -1.0071  0.2451
18507TIP3    H277013   2.324   6.578   3.610 -0.1472 -0.1383  0.4679
18508TIP3   OH277014   0.021   2.835   3.424 -0.1706  0.1001 -0.2257
18508TIP3    H177015   0.004   2.838   3.330 -1.3452  1.1046  0.0035
18508TIP3    H277016  -0.059   2.868   3.464  0.5373  0.2504  1.1080
18509TIP3   OH277017   3.246   1.861   4.011  0.5630  0.4681 -0.0460
18509TIP3    H177018   3.218   1.794   4.073 -0.6754  1.1938  0.2195
18509TIP3    H277019   3.318   1.821   3.963 -0.6249 -1.3455 -0.4235
18510TIP3   OH277020   1.074   5.358  12.454 -0.1661 -0.0610  0.5259
18510TIP3    H177021   1.081   5.342  12.548  0.4699  1.7442  0.8397
18510TIP3    H277022   1.024   5.439  12.448  0.0141 -0.0263 -0.6798
18511TIP3   OH277023   1.100   4.037   4.984 -0.8027  0.2640 -0.2766
18511TIP3    H177024   1.063   3.992   4.908  0.0513 -1.5569  0.3348
18511TIP3    H277025   1.122   4.124   4.951  0.8799 -0.9181 -2.5616
18512TIP3   OH277026   2.059   0.559  14.461 -0.0365  0.2803  0.1772
18512TIP3    H177027   2.004   0.511  14.399  0.9295  0.0006 -0.4808
18512TIP3    H277028   2.007   0.563  14.541 -1.0742  0.1535 -0.4757
18513TIP3   OH277029   2.872   4.777  16.812 -0.1106 -0.1747 -0.4649
18513TIP3    H177030   2.859   4.765  16.718 -1.1971  1.9345 -0.6580
18513TIP3    H277031   2.849   4.869  16.827 -0.2135 -0.5348  1.9119
18514TIP3   OH277032   0.469   1.330  16.183 -0.2474  0.2847  0.5483
18514TIP3    H177033   0.490   1.236  16.180  0.6430  0.4796  0.5884
18514TIP3    H277034   0.508   1.366  16.104  0.9239  0.9126  1.3805
18515TIP3   OH277035   6.768   0.070   3.185  0.3067  0.6341  0.3971
18515TIP3    H177036   6.843   0.011   3.195 -0.2539 -0.3786 -1.0463
18515TIP3    H277037   6.692   0.014   3.200 -0.2256  1.0679 -0.5908
18516TIP3   OH277038   2.361   0.427  15.965  0.0359 -0.2593 -0.3461
18516TIP3    H177039   2.426   0.433  15.894  0.2238 -1.0356 -0.2426
18516TIP3    H277040   2.292   0.371  15.930  0.4517 -1.2100  0.3218
18517TIP3   OH277041   0.936   2.062   2.566 -0.5198 -0.1905 -0.4187
18517TIP3    H177042   0.960   2.154   2.567  2.0971 -0.7750  0.1342
18517TIP3    H277043   1.009   2.019   2.521 -1.7834 -1.9792 -0.8977
18518TIP3   OH277044   2.853   6.190   3.958 -0.1613 -0.2140  0.1834
18518TIP3    H177045   2.913   6.151   3.894 -1.3516 -0.6828 -0.6926
18518TIP3    H277046   2.893   6.274   3.981  2.1480 -1.6225  1.6448
18519TIP3   OH277047   6.120   6.023   5.588 -0.5231  0.8688 -0.2355
18519TIP3    H177048   6.162   6.107   5.605  1.0100 -0.4979  4.4923
18519TIP3    H277049   6.040   6.025   5.640 -2.7532  0.7993 -3.4457
18520TIP3   OH277050   6.195   4.521  12.789 -0.0758 -0.3028  0.0363
18520TIP3    H177051   6.104   4.512  12.761  0.7137 -1.3176 -2.4103
18520TIP3    H277052   6.204   4.613  12.813 -1.0815  0.5012 -2.4185
18521TIP3   OH277053   2.658   2.545   0.279 -0.0287 -0.1138  0.0480
18521TIP3    H177054   2.596   2.503   0.339 -1.3117  2.0621  0.3373
18521TIP3    H277055   2.629   2.636   0.274  2.2165  0.6114 -1.0793
18522TIP3   OH277056   4.230   0.013   3.732 -0.2544 -0.1083 -0.2384
18522TIP3    H177057   4.157  -0.015   3.677 -0.1044  2.1008 -1.6989
18522TIP3    H277058   4.263  -0.067   3.772 -1.9201 -1.4711 -1.4697
18523TIP3   OH277059   3.526   5.778  12.841 -0.3338 -0.1735 -0.5691
18523TIP3    H177060   3.613   5.739  12.841 -0.9343 -1.5482 -0.5202
18523TIP3    H277061   3.467   5.707  12.865 -1.7620  0.0640 -3.0177
18524TIP3   OH277062   3.788   5.819   2.457 -0.2459 -0.2516 -0.0337
18524TIP3    H177063   3.721   5.782   2.400  0.6999 -0.4935 -1.0166
18524TIP3    H277064   3.829   5.888   2.404  0.3467 -0.1733  0.5178
18525TIP3   OH277065   2.115   0.543  12.024  0.3217 -0.3207  0.1611
18525TIP3    H177066   2.023   0.571  12.028  0.5889  0.7709 -0.8356
18525TIP3    H277067   2.153   0.595  11.953  1.9936  0.0799  1.2900
18526TIP3   OH277068   2.047   4.266   3.461 -0.1272 -0.5713 -0.1972
18526TIP3    H177069   1.971   4.315   3.429  1.4222  2.2331  0.0784
18526TIP3    H277070   2.011   4.203   3.523 -2.3526 -0.5724 -1.3853
18527TIP3   OH277071   6.436   4.204   0.829  0.2597  0.3182 -0.0221
18527TIP3    H177072   6.350   4.238   0.802 -0.8690 -2.3918 -0.1758
18527TIP3    H277073   6.440   4.222   0.923 -0.0065  1.3833 -0.2044
18528TIP3   OH277074   5.189   2.556   3.073 -0.0672  0.0727  0.6681
18528TIP3    H177075   5.221   2.635   3.117  1.3091  0.5800 -1.1396
18528TIP3    H277076   5.268   2.505   3.055 -0.5640 -0.1064 -1.1826
18529TIP3   OH277077   2.449   0.113  11.580 -0.4151  0.1317  0.5488
18529TIP3    H177078   2.504   0.097  11.503  1.4631  0.7015  1.7308
18529TIP3    H277079   2.363   0.077  11.555  0.2081  0.0268 -1.6795
18530TIP3   OH277080   1.507   5.278   6.730 -0.1342  0.2021  0.4090
18530TIP3    H177081   1.587   5.303   6.777 -1.5920  0.2720  3.0508
18530TIP3    H277082   1.529   5.195   6.688  1.0874 -0.2147  1.7981
18531TIP3   OH277083   5.528   4.592  11.784  0.3331 -0.0928 -0.3348
18531TIP3    H177084   5.565   4.616  11.869 -0.7473  0.7417 -0.0767
18531TIP3    H277085   5.523   4.675  11.736 -0.5861 -0.2770 -0.5802
18532TIP3   OH277086   4.341   5.748  14.067  0.0812  0.5328 -0.0332
18532TIP3    H177087   4.351   5.829  14.017 -0.2002  0.0349 -0.9122
18532TIP3    H277088   4.339   5.776  14.159  1.9239  1.3526 -0.2041
18533TIP3   OH277089   5.278   1.252   3.284 -0.8905 -0.3710  1.0070
18533TIP3    H177090   5.275   1.337   3.240 -2.3409 -0.7959  0.2060
18533TIP3    H277091   5.220   1.196   3.232 -1.1436 -1.4425  2.3774
18534TIP3   OH277092   2.531   3.562  16.408 -0.4227 -0.5248 -0.1593
18534TIP3    H177093   2.610   3.569  16.353 -1.6533 -0.6298 -2.0261
18534TIP3    H277094   2.505   3.653  16.422  0.6174 -0.4272  1.4452
18535TIP3   OH277095   6.468   3.304   5.259  0.3819  0.0571 -0.0092
18535TIP3    H177096   6.436   3.363   5.328 -1.2587  1.3680 -1.7992
18535TIP3    H277097   6.462   3.355   5.179  0.5324 -2.0088 -1.4075
18536TIP3   OH277098   5.531   4.111   1.413 -0.3845 -0.1185  0.1382
18536TIP3    H177099   5.454   4.056   1.431 -0.3936 -0.3838 -0.6613
18536TIP3    H277100   5.495   4.199   1.406 -0.9726 -0.4655 -2.1841
18537TIP3   OH277101   3.723   3.122   1.215 -0.1999 -0.1899  0.1617
18537TIP3    H177102   3.763   3.092   1.297  0.0862  0.6128  0.3274
18537TIP3    H277103   3.736   3.049   1.154  0.5308 -0.3870  0.5299
18538TIP3   OH277104   3.663   4.620   0.675  0.1369 -0.0533 -0.0864
18538TIP3    H177105   3.663   4.530   0.708 -4.9057 -0.7608 -1.0782
18538TIP3    H277106   3.655   4.611   0.580  1.3804  1.5608 -0.3908
18539TIP3   OH277107   0.588   5.024   0.597 -0.6109 -0.2842 -0.0139
18539TIP3    H177108   0.559   4.980   0.517  0.1054 -0.2140 -0.3142
18539TIP3    H277109   0.672   4.984   0.617 -0.7368 -0.2216  0.6471
18540TIP3   OH277110   1.045   2.774  13.597 -0.4107  0.0165 -0.0334
18540TIP3    H177111   1.011   2.741  13.680  0.6983  1.0200  0.8651
18540TIP3    H277112   1.133   2.737  13.590  0.0190  0.9971 -0.0731
18541TIP3   OH277113   2.593   5.042   4.706 -0.6142  0.0282 -0.1522
18541TIP3    H177114   2.529   5.000   4.763  1.5569  0.3757  2.7419
18541TIP3    H277115   2.632   4.970   4.656  1.0012 -1.1407  2.5998
18542TIP3   OH277116   4.937   2.003  11.137  0.3740 -0.2930 -0.5718
18542TIP3    H177117   5.006   2.061  11.104 -0.0559  1.4046  1.2808
18542TIP3    H277118   4.973   1.915  11.129  0.7163  0.0124 -4.4088
18543TIP3   OH277119   5.366   4.481  13.653  0.1465  0.4334 -0.5697
18543TIP3    H177120   5.424   4.417  13.613 -1.0530 -2.1612  1.4917
18543TIP3    H277121   5.394   4.484  13.745 -1.6406  0.6512  0.0072
18544TIP3   OH277122   0.502   5.923   0.398 -0.4197 -0.4620 -0.2706
18544TIP3    H177123   0.540   5.932   0.485  1.3183  0.0079 -1.0142
18544TIP3    H277124   0.527   5.835   0.369  1.1223  0.2179 -1.1686
18545TIP3   OH277125   1.857   5.650  14.726  0.1123 -0.4363 -0.6017
18545TIP3    H177126   1.926   5.635  14.662 -0.7398 -3.0449 -1.0221
18545TIP3    H277127   1.854   5.745  14.737  1.3963 -0.0336 -3.1654
18546TIP3   OH277128   0.055   6.476   5.163 -0.6322 -0.6948 -0.2693
18546TIP3    H177129  -0.031   6.477   5.205 -0.7486  3.8440 -0.0576
18546TIP3    H277130   0.113   6.516   5.228  1.4826 -2.5879 -0.8575
18547TIP3   OH277131   0.355   1.391  14.396  0.7989 -0.0548 -0.3958
18547TIP3    H177132   0.446   1.365  14.382  0.6352 -0.8206 -0.1168
18547TIP3    H277133   0.325   1.335  14.468  0.1027  0.1650 -0.5080
18548TIP3   OH277134   1.546   3.180  14.874 -0.2184  0.7757  0.4556
18548TIP3    H177135   1.642   3.173  14.875 -0.2072 -0.2095 -1.6445
18548TIP3    H277136   1.529   3.266  14.834 -0.2020  0.7499  0.3928
18549TIP3   OH277137   0.887   6.283   0.327  0.5492 -0.1597 -0.0383
18549TIP3    H177138   0.872   6.371   0.363  0.3678 -0.0596 -0.3530
18549TIP3    H277139   0.820   6.273   0.259 -0.4159 -1.1516  1.0343
18550TIP3   OH277140   2.237   2.023  17.211 -0.0825  0.1300 -0.1322
18550TIP3    H177141   2.173   1.972  17.163  0.9698 -1.5563  0.1869
18550TIP3    H277142   2.290   2.065  17.144 -1.2712  1.2726 -0.3949
18551TIP3   OH277143   3.960   3.611  13.941  0.3594  0.1488 -0.3053
18551TIP3    H177144   3.938   3.666  13.866  1.5895  0.5808 -0.3731
18551TIP3    H277145   4.053   3.628  13.957  0.1667 -0.0475  1.2252
18552TIP3   OH277146   6.223   4.629   5.153  0.2012  0.0961 -0.0762
18552TIP3    H177147   6.282   4.700   5.176 -1.1252  0.9651  0.7341
18552TIP3    H277148   6.170   4.663   5.081 -0.7037  0.0810  0.5697
18553TIP3   OH277149   2.552   4.662   4.753  0.0729 -0.1973  0.1918
18553TIP3    H177150   2.530   4.689   4.664 -0.3128 -0.4562  0.2013
18553TIP3    H277151   2.477   4.609   4.781  0.7313 -1.1454  0.2223
18554TIP3   OH277152   2.258   2.767  14.640 -0.0470 -0.8195 -0.3923
18554TIP3    H177153   2.267   2.727  14.553  1.0231 -0.8973 -0.2641
18554TIP3    H277154   2.308   2.848  14.635 -0.9123 -0.2595 -0.1735
18555TIP3   OH277155   3.771   1.479   3.817 -0.3049  0.3435 -0.2642
18555TIP3    H177156   3.694   1.517   3.774  0.9204  2.5775 -0.6806
18555TIP3    H277157   3.804   1.550   3.873 -0.3456 -1.6232  2.4052
18556TIP3   OH277158   6.460   1.306   0.103  1.1268 -0.1543  0.0405
18556TIP3    H177159   6.477   1.389   0.148  0.8391 -0.7519  1.2868
18556TIP3    H277160   6.460   1.241   0.173 -0.3744 -0.9800 -0.6804
18557TIP3   OH277161   2.516   6.765  11.783 -0.3373  0.9618  0.1741
18557TIP3    H177162   2.526   6.808  11.869 -1.8602  0.5800  0.5723
18557TIP3    H277163   2.505   6.837  11.721 -2.5559  1.2271  0.7940
18558TIP3   OH277164   3.878   4.470  16.173 -0.6312 -0.3531 -0.2254
18558TIP3    H177165   3.970   4.482  16.199 -0.6767 -1.6246  0.5745
18558TIP3    H277166   3.834   4.548  16.206  0.4270  1.1618 -2.1445
18559TIP3   OH277167   3.665   5.937  14.629  0.4108 -0.0149 -0.2655
18559TIP3    H177168   3.572   5.932  14.605  0.4844 -1.7727 -0.2965
18559TIP3    H277169   3.664   5.941  14.725  0.3051 -0.2100 -0.2572
18560TIP3   OH277170   3.777   1.952  17.105 -0.0718 -0.2786 -0.2462
18560TIP3    H177171   3.795   2.034  17.150  1.1681 -0.0610 -1.0988
18560TIP3    H277172   3.769   1.977  17.013  1.8073 -1.2826 -0.7288
18561TIP3   OH277173   2.773   3.574  13.673 -0.0362  0.3928  0.4501
18561TIP3    H177174   2.809   3.486  13.682  0.6794  0.5106 -0.9094
18561TIP3    H277175   2.727   3.591  13.755  0.5221 -0.9216  1.0496
18562TIP3   OH277176   1.004   4.547  16.953 -0.1220  0.9408 -0.7267
18562TIP3    H177177   0.968   4.461  16.976  2.2534  0.3079  0.9981
18562TIP3    H277178   0.965   4.567  16.867 -1.3152 -1.4866 -0.8353
18563TIP3   OH277179   3.861   3.736  11.762 -0.2796  0.4341 -0.4892
18563TIP3    H177180   3.799   3.807  11.745  0.0463  0.9515  0.4177
18563TIP3    H277181   3.926   3.743  11.692 -0.8435  0.3347 -1.0322
18564TIP3   OH277182   5.557   0.260  11.916  0.1002  0.2092 -0.0012
18564TIP3    H177183   5.474   0.266  11.964 -0.6491 -0.6923 -1.1238
18564TIP3    H277184   5.538   0.297  11.830  0.4754 -1.1631 -0.7069
18565TIP3   OH277185   3.337   5.010   4.073  0.2312  0.8804  0.0692
18565TIP3    H177186   3.427   4.979   4.068  0.0173  0.3620 -0.8105
18565TIP3    H277187   3.344   5.105   4.073  0.8165  0.8508  1.0234
18566TIP3   OH277188   0.523   6.039  11.815  0.0040 -0.0663  0.4604
18566TIP3    H177189   0.546   6.052  11.723 -0.1248  1.8397  0.6667
18566TIP3    H277190   0.572   5.961  11.840  0.2759 -0.4556 -1.1295
18567TIP3   OH277191   6.101   5.729   4.198 -0.5182  0.2423 -0.4442
18567TIP3    H177192   6.014   5.694   4.180 -0.9195 -0.2243  2.0253
18567TIP3    H277193   6.115   5.796   4.132 -1.6076 -1.5067 -2.5512
18568TIP3   OH277194   1.071   6.727  12.365 -0.0182 -0.1486 -0.1015
18568TIP3    H177195   1.098   6.817  12.343  0.0742  0.1329  1.1308
18568TIP3    H277196   1.128   6.702  12.437  1.0207 -1.8058 -1.4246
18569TIP3   OH277197   5.834   6.782   1.810  0.5483  0.7126  0.3129
18569TIP3    H177198   5.758   6.839   1.822  0.1860  0.0086  1.5279
18569TIP3    H277199   5.881   6.820   1.736 -0.7864  1.3665 -0.2255
18570TIP3   OH277200   0.835   3.183  15.038  0.0200 -0.0709  0.1866
18570TIP3    H177201   0.837   3.275  15.062  2.2124  0.1746 -0.6337
18570TIP3    H277202   0.746   3.154  15.056 -0.5087  2.0163  1.1333
18571TIP3   OH277203   6.458   3.829   5.031 -0.0065 -0.3473 -0.9937
18571TIP3    H177204   6.378   3.862   4.988 -0.5581  0.4475  0.5463
18571TIP3    H277205   6.431   3.746   5.071  0.2188 -0.5793 -1.3248
18572TIP3   OH277206   1.820   3.066  14.721  0.6441 -0.1786  0.3336
18572TIP3    H177207   1.878   3.041  14.793  2.3820  0.6577 -0.7354
18572TIP3    H277208   1.798   2.983  14.678  0.1102 -0.6154  1.3970
18573TIP3   OH277209   6.553   6.713  16.354  0.3568  0.4363  0.3855
18573TIP3    H177210   6.510   6.789  16.395  0.7823  1.6901 -1.3669
18573TIP3    H277211   6.521   6.714  16.264  1.1869 -0.8621  0.0534
18574TIP3   OH277212   1.113   1.516  14.643 -0.2704 -0.3679  0.1554
18574TIP3    H177213   1.021   1.531  14.667 -0.0308 -1.1741  1.6984
18574TIP3    H277214   1.150   1.603  14.635 -1.4237  0.0203 -1.6858
18575TIP3   OH277215   1.098   2.141  16.051  0.2593 -0.0861  0.3576
18575TIP3    H177216   1.022   2.163  16.105 -0.0021  0.4417 -0.2135
18575TIP3    H277217   1.108   2.047  16.062 -1.7281 -0.5412 -1.1168
18576TIP3   OH277218   0.536   3.146   1.215  0.5862  0.0227  0.0492
18576TIP3    H177219   0.468   3.191   1.265 -0.6474 -1.3091 -0.3186
18576TIP3    H277220   0.503   3.146   1.125  1.1355 -0.5342 -0.1614
18577TIP3   OH277221   3.990   2.218   0.013  0.3864  0.0696  0.3935
18577TIP3    H177222   3.954   2.279   0.077 -0.1640  0.4844 -0.3005
18577TIP3    H277223   3.972   2.258  -0.072  0.8376 -0.6168 -0.0368
18578TIP3   OH277224   6.456   3.706  12.371 -0.3573 -0.4460 -0.2853
18578TIP3    H177225   6.499   3.762  12.436 -1.7611 -1.4715  1.6380
18578TIP3    H277226   6.462   3.755  12.289 -0.5189  1.9908  1.0626
18579TIP3   OH277227   0.031   5.251  16.291 -0.2820  0.3776  0.2838
18579TIP3    H177228   0.114   5.298  16.282  0.2070  0.0394  2.4680
18579TIP3    H277229  -0.035   5.320  16.293  0.1197  0.7701  0.1699
18580TIP3   OH277230   3.101   3.985   0.449  0.3171 -0.6126  0.1824
18580TIP3    H177231   3.173   3.943   0.497  0.9271 -0.5924 -0.6858
18580TIP3    H277232   3.038   4.010   0.516  2.3393  1.8763  1.3060
18581TIP3   OH277233   4.008   2.288  11.243  0.1051 -0.2680 -0.1329
18581TIP3    H177234   4.084   2.252  11.289  0.6032 -0.6801 -1.2501
18581TIP3    H277235   4.033   2.378  11.221  0.5621 -0.6328 -1.1333
18582TIP3   OH277236   0.073   3.505  15.077 -0.1859 -0.1223 -0.2738
18582TIP3    H177237   0.140   3.444  15.108 -1.4319 -0.8709  1.0706
18582TIP3    H277238   0.009   3.450  15.033 -0.8646  0.3182  0.1408
18583TIP3   OH277239   4.587   1.436  17.320  0.2724  1.1875 -0.4692
18583TIP3    H177240   4.653   1.505  17.315  1.2363  0.5786  2.0490
18583TIP3    H277241   4.632   1.364  17.365 -1.6270  0.1117 -0.2000
18584TIP3   OH277242   3.214   3.757  10.942 -0.6515 -0.2636 -0.1976
18584TIP3    H177243   3.153   3.692  10.907 -1.2471  0.2971 -0.2284
18584TIP3    H277244   3.186   3.839  10.901 -0.8205  0.2636  0.9309
18585TIP3   OH277245   4.659   4.772   2.083  0.1456 -0.3474 -0.0184
18585TIP3    H177246   4.586   4.788   2.144 -0.0731  1.4615 -0.6954
18585TIP3    H277247   4.618   4.731   2.006 -0.0298 -0.0208 -0.0974
18586TIP3   OH277248   6.486   0.839  12.838 -0.2181 -0.0132  0.0565
18586TIP3    H177249   6.562   0.846  12.896  1.2531 -0.4695 -1.7490
18586TIP3    H277250   6.444   0.925  12.845  1.4887  0.8982 -0.2389
18587TIP3   OH277251   5.426   6.519   1.785  0.6016 -0.0038 -0.5825
18587TIP3    H177252   5.390   6.548   1.868 -1.0069 -1.2877 -0.7733
18587TIP3    H277253   5.511   6.481   1.807  0.3699  0.0275  0.3935
18588TIP3   OH277254   5.695   0.335   2.422 -0.0181  0.5262 -0.0089
18588TIP3    H177255   5.658   0.309   2.338 -0.0933  0.1293  0.1454
18588TIP3    H277256   5.674   0.262   2.481  0.5418  0.5426  0.2094
18589TIP3   OH277257   5.828   2.434   1.967 -0.1855 -0.1181  0.5589
18589TIP3    H177258   5.831   2.467   2.057 -0.8278  2.7091 -0.3798
18589TIP3    H277259   5.913   2.457   1.930 -0.5032  0.1442 -0.0159
18590TIP3   OH277260   2.089   4.373   1.908 -0.2571 -0.3158 -0.5952
18590TIP3    H177261   2.183   4.355   1.907  0.0927  1.4071 -1.2518
18590TIP3    H277262   2.068   4.384   2.001  0.2148 -0.5436 -0.4545
18591TIP3   OH277263   4.139   6.718  12.989 -0.2184  0.4307 -0.1607
18591TIP3    H177264   4.203   6.747  12.923  3.8644 -1.2850  2.6282
18591TIP3    H277265   4.130   6.793  13.048  2.5046 -0.4631  1.5661
18592TIP3   OH277266   0.138   2.253   2.359  0.6573 -0.2269 -0.1604
18592TIP3    H177267   0.052   2.267   2.321  0.0583  0.7823  1.4425
18592TIP3    H277268   0.134   2.165   2.397  0.2597 -0.0968  0.0975
18593TIP3   OH277269   4.020   1.016   5.031 -0.2106  0.0597 -0.6380
18593TIP3    H177270   4.072   0.962   4.972  0.5688  0.8818 -0.7391
18593TIP3    H277271   4.066   1.012   5.115  0.8140  1.8162 -1.0516
18594TIP3   OH277272   5.633   0.548   1.564 -0.3287 -0.1690 -0.3395
18594TIP3    H177273   5.664   0.618   1.506  0.4905  0.3523  0.7143
18594TIP3    H277274   5.542   0.535   1.538 -0.2581  0.7234 -1.0928
18595TIP3   OH277275   5.232   0.544   5.960 -0.0626  0.4675  0.2634
18595TIP3    H177276   5.153   0.499   5.929  1.2703 -0.8188 -1.5114
18595TIP3    H277277   5.258   0.497   6.038  0.4215 -0.9048 -0.6856
18596TIP3   OH277278   2.772   3.455  15.478  0.7236 -0.1230  0.2434
18596TIP3    H177279   2.842   3.392  15.463  0.1923 -0.6919  0.1190
18596TIP3    H277280   2.764   3.502  15.395  3.7595  2.8891  1.4019
18597TIP3   OH277281   5.517   3.060  15.323  0.6990 -0.6189 -0.9304
18597TIP3    H177282   5.551   3.119  15.390  2.0529  1.1751 -3.0575
18597TIP3    H277283   5.424   3.081  15.318  0.8042  0.0145 -0.3883
18598TIP3   OH277284   1.463   5.434  15.136 -0.1117  0.0506 -0.1914
18598TIP3    H177285   1.415   5.515  15.115  1.3097  1.0895  0.3645
18598TIP3    H277286   1.538   5.435  15.077 -0.6981 -1.5259 -1.0178
18599TIP3   OH277287   1.058   5.749  16.734 -0.0601 -0.1888 -0.0893
18599TIP3    H177288   0.968   5.771  16.757  0.2731  0.1783  0.9049
18599TIP3    H277289   1.067   5.776  16.643 -0.4243  1.4727  0.3428
18600TIP3   OH277290   3.086   0.006   4.504 -0.2251 -0.8034 -0.3664
18600TIP3    H177291   3.142   0.050   4.441  1.0488 -1.7444  0.0626
18600TIP3    H277292   3.013  -0.027   4.452  0.0341 -0.2810 -1.0816
18601TIP3   OH277293   4.588   2.350   4.203 -0.8256 -0.0220  0.1195
18601TIP3    H177294   4.498   2.342   4.235 -0.8142  1.7269  0.6943
18601TIP3    H277295   4.604   2.269   4.155 -2.5529 -0.5557  0.3886
18602TIP3   OH277296   5.666   2.050   0.098  0.2378 -0.2572  0.4336
18602TIP3    H177297   5.738   2.081   0.043 -0.2323  0.7553  0.3515
18602TIP3    H277298   5.684   2.087   0.185 -0.7947  1.0531  0.1267
18603TIP3   OH277299   1.385   1.579   3.031  0.2074  0.1191  0.0901
18603TIP3    H177300   1.455   1.622   3.079  0.3968 -0.9063  0.7584
18603TIP3    H277301   1.315   1.644   3.028  0.6096  0.5981  0.7706
18604TIP3   OH277302   0.754   2.686   5.123  0.0693 -0.5912  0.0830
18604TIP3    H177303   0.659   2.695   5.136  0.3509  1.4138  1.1709
18604TIP3    H277304   0.773   2.739   5.046  0.6159  1.2662  1.4367
18605TIP3   OH277305   5.575   1.385  13.473  0.2242 -0.7039  0.4502
18605TIP3    H177306   5.583   1.479  13.490  0.1408 -0.3085 -1.4898
18605TIP3    H277307   5.502   1.378  13.411  0.7757 -1.9522 -0.0796
18606TIP3   OH277308   2.443   1.461   5.628  0.4236  0.8069  0.7399
18606TIP3    H177309   2.351   1.436   5.639  1.0172 -1.0239  1.9584
18606TIP3    H277310   2.479   1.463   5.717  2.0233 -0.4718  0.1761
18607TIP3   OH277311   2.122   5.681   1.826  0.3061 -0.2906 -0.1731
18607TIP3    H177312   2.198   5.660   1.770  0.8883 -0.1726  0.5591
18607TIP3    H277313   2.111   5.775   1.815  1.5665  0.0655  1.2832
18608TIP3   OH277314   0.227   6.047   3.547 -0.1130 -0.3996  0.0407
18608TIP3    H177315   0.249   6.003   3.629  0.8334 -1.2663 -0.6564
18608TIP3    H277316   0.278   6.128   3.550 -0.0824 -0.4268  0.3024
18609TIP3   OH277317   0.112   1.861  13.254  0.2173 -0.4619 -0.0076
18609TIP3    H177318   0.055   1.871  13.331  0.9773 -1.8683  0.7655
18609TIP3    H277319   0.135   1.768  13.253 -0.2892 -0.6204 -2.3246
18610TIP3   OH277320   2.478   0.301   1.744 -0.2019  0.0794 -0.2241
18610TIP3    H177321   2.431   0.385   1.742 -3.2503 -1.4680 -0.2341
18610TIP3    H277322   2.514   0.296   1.833  0.2033  1.4811 -0.2895
18611TIP3   OH277323   2.933   2.307  17.277  0.2843 -0.3141  0.0840
18611TIP3    H177324   2.871   2.242  17.246  1.9812 -0.9488 -2.2765
18611TIP3    H277325   2.941   2.291  17.371 -0.4860 -2.4816 -0.1813
18612TIP3   OH277326   4.650   3.742  14.472 -0.5756  0.0264  0.1905
18612TIP3    H177327   4.591   3.818  14.467 -1.9281 -1.0321 -1.2830
18612TIP3    H277328   4.617   3.691  14.546 -0.0834  0.5277  0.7650
18613TIP3   OH277329   4.317   4.404   1.644 -0.0952  0.5932 -0.0710
18613TIP3    H177330   4.339   4.485   1.599  1.6934  0.1828 -0.0240
18613TIP3    H277331   4.382   4.341   1.613 -0.9998 -0.6288  0.4373
18614TIP3   OH277332   0.259   6.282   2.197  0.6795 -0.7237  0.5770
18614TIP3    H177333   0.167   6.305   2.212  0.8807  1.3797 -0.9846
18614TIP3    H277334   0.258   6.187   2.182 -1.3553 -0.6293 -0.2095
18615TIP3   OH277335   6.026   1.389  16.046  0.3000 -0.4455  0.0974
18615TIP3    H177336   6.060   1.310  16.089 -0.0738 -1.5944 -1.6344
18615TIP3    H277337   6.095   1.415  15.985 -0.4795 -0.7714 -0.9500
18616TIP3   OH277338   3.523   4.773  16.662  0.1903 -0.0716  0.4429
18616TIP3    H177339   3.499   4.692  16.619  0.2269 -1.0199  2.1142
18616TIP3    H277340   3.443   4.802  16.707  0.0222  1.1376 -0.5628
18617TIP3   OH277341   2.553   3.301   4.937  0.3894  0.3985 -0.5815
18617TIP3    H177342   2.646   3.306   4.960  0.1836  2.5236 -0.0051
18617TIP3    H277343   2.552   3.293   4.841  1.1755  0.2206 -0.5767
18618TIP3   OH277344   1.766   5.814  16.016  0.3301  0.3666  0.1145
18618TIP3    H177345   1.683   5.771  16.036  0.8681 -0.0726  1.5253
18618TIP3    H277346   1.832   5.745  16.025  0.7109  0.2369 -2.8543
18619TIP3   OH277347   4.980   1.043   1.154 -0.0862  0.2229 -0.2579
18619TIP3    H177348   4.930   1.076   1.229  1.2606  0.8844  0.3809
18619TIP3    H277349   4.920   0.983   1.110 -0.5742 -1.0136  1.9256
18620TIP3   OH277350   4.820   0.655  11.110  0.1990  0.2982  0.4241
18620TIP3    H177351   4.728   0.683  11.104 -0.1323 -0.4307  1.8242
18620TIP3    H277352   4.842   0.628  11.021 -0.3448  2.2505 -0.3599
18621TIP3   OH277353   2.026   5.060  14.122 -0.1377 -0.4754 -0.2572
18621TIP3    H177354   2.098   5.106  14.164  0.8207 -2.2023  0.1083
18621TIP3    H277355   2.063   5.028  14.039 -1.1072  0.3140 -1.0219
18622TIP3   OH277356   6.257   0.742   1.363  0.9049 -0.1385 -0.2651
18622TIP3    H177357   6.197   0.688   1.312 -0.7976  1.1606  0.2830
18622TIP3    H277358   6.260   0.826   1.318  0.2665  0.6547  1.1113
18623TIP3   OH277359   3.826   2.430   2.414 -0.1186  0.9392  0.8312
18623TIP3    H177360   3.866   2.379   2.484  0.8268  1.0268  0.3711
18623TIP3    H277361   3.901   2.470   2.368 -0.7462  1.2190  0.0377
18624TIP3   OH277362   0.803   4.236   0.326  0.1320  0.0236 -0.1959
18624TIP3    H177363   0.859   4.160   0.309  0.9556  0.4473  0.6265
18624TIP3    H277364   0.782   4.231   0.419 -2.4625 -0.9721 -0.7267
18625TIP3   OH277365   1.187   4.599  14.562  0.4213  0.5777 -0.4006
18625TIP3    H177366   1.261   4.654  14.537  0.6765 -0.6454 -2.5830
18625TIP3    H277367   1.113   4.659  14.565  0.8486  1.2320 -1.8285
18626TIP3   OH277368   2.449   3.009   5.668 -0.0417 -0.1184  0.4018
18626TIP3    H177369   2.513   3.055   5.613 -0.5477  0.8390  0.5989
18626TIP3    H277370   2.503   2.959   5.729  0.5534  1.0877  0.9020
18627TIP3   OH277371   6.249   0.530  16.513  0.1298 -0.0432  0.3804
18627TIP3    H177372   6.201   0.448  16.529 -0.5901  0.4111  0.5681
18627TIP3    H277373   6.182   0.598  16.513  0.3902  0.3128 -1.9964
18628TIP3   OH277374   4.782   5.266   4.646  0.5459 -0.2869 -0.0461
18628TIP3    H177375   4.827   5.333   4.698  1.2811 -0.0727 -0.9282
18628TIP3    H277376   4.692   5.298   4.640  0.8055  0.4609 -0.1702
18629TIP3   OH277377   1.893   1.791   0.298 -0.2031  0.2524 -0.3022
18629TIP3    H177378   1.954   1.863   0.315 -0.4125  0.1485  0.9613
18629TIP3    H277379   1.874   1.798   0.204  1.4398  0.5292 -0.6627
18630TIP3   OH277380   0.957   1.072   5.411  0.8043 -0.2451  0.0391
18630TIP3    H177381   0.961   1.145   5.472  0.2508 -0.4574  0.3390
18630TIP3    H277382   0.970   0.994   5.466 -0.5638 -0.4985  0.0399
18631TIP3   OH277383   2.357   1.960  11.809 -0.5117 -0.5336 -0.0406
18631TIP3    H177384   2.348   1.954  11.714  0.6393 -2.8446 -0.0653
18631TIP3    H277385   2.448   1.987  11.823 -0.6328 -0.3487  0.3952
18632TIP3   OH277386   2.356   4.905  11.805 -0.2284 -0.7292 -0.4416
18632TIP3    H177387   2.261   4.900  11.814 -0.2887 -0.6529 -1.0300
18632TIP3    H277388   2.376   4.998  11.814 -0.1116 -0.8395  0.5768
18633TIP3   OH277389   4.703   5.775  13.077 -0.5880 -0.7182 -0.4610
18633TIP3    H177390   4.619   5.790  13.034 -0.4216  0.0596 -0.5358
18633TIP3    H277391   4.732   5.690  13.046 -0.4718 -0.1719 -1.8955
18634TIP3   OH277392   4.599   2.470  11.520 -0.1690 -0.8201  0.5428
18634TIP3    H177393   4.562   2.513  11.598  2.5838  0.8479  1.0906
18634TIP3    H277394   4.594   2.537  11.452 -1.2401 -1.7775 -0.3475
18635TIP3   OH277395   3.592   2.192   0.638  0.3655 -0.2062 -0.3815
18635TIP3    H177396   3.619   2.103   0.662 -0.8005 -0.3981  0.2937
18635TIP3    H277397   3.634   2.247   0.703 -0.3345 -0.4463  0.2922
18636TIP3   OH277398   4.082   2.533   1.384 -0.0291  0.0042 -0.5190
18636TIP3    H177399   4.005   2.580   1.418  1.0413  1.9842 -0.7257
18636TIP3    H277400   4.157   2.575   1.425  1.2291  1.2279 -3.7735
18637TIP3   OH277401   6.320   3.583  16.934  0.0533  0.4686 -0.2517
18637TIP3    H177402   6.281   3.571  16.847 -0.4620  3.7540 -0.6307
18637TIP3    H277403   6.247   3.572  16.994  0.3920 -1.7248 -0.1721
18638TIP3   OH277404   5.682   5.899   2.348 -0.7147 -0.4312  0.4328
18638TIP3    H177405   5.732   5.943   2.418  1.8221  1.9819 -2.5907
18638TIP3    H277406   5.612   5.960   2.326 -0.7243 -0.5814  0.0356
18639TIP3   OH277407   3.405   6.363   5.982  0.6367 -0.1710  0.3909
18639TIP3    H177408   3.449   6.286   6.017  1.1473  0.3357  0.8870
18639TIP3    H277409   3.352   6.395   6.055 -0.4926 -0.7243 -0.1746
18640TIP3   OH277410   3.559   0.027  13.918  0.4143  0.3446 -0.2692
18640TIP3    H177411   3.484   0.005  13.973  0.6505  0.4409  0.0957
18640TIP3    H277412   3.547  -0.027  13.839  1.9847 -2.7265  1.3917
18641TIP3   OH277413   5.654   1.966  15.085 -0.2273  0.3744 -0.5881
18641TIP3    H177414   5.714   1.905  15.127 -0.0966  0.1252 -1.1202
18641TIP3    H277415   5.634   2.031  15.152 -0.0648 -0.0374 -0.1326
18642TIP3   OH277416   6.134   6.694   1.330  0.7575 -0.0904  0.3092
18642TIP3    H177417   6.135   6.704   1.235 -2.1644 -2.1913 -0.0760
18642TIP3    H277418   6.133   6.784   1.363 -0.4627  0.7247 -1.7515
18643TIP3   OH277419   4.167   5.665  16.593  0.3267  0.0023 -0.4769
18643TIP3    H177420   4.110   5.742  16.602 -1.0579 -0.9208 -0.9911
18643TIP3    H277421   4.207   5.674  16.507 -1.0405 -0.6037 -1.2009
18644TIP3   OH277422   6.178   6.525  16.809  0.3516  0.1910 -0.2117
18644TIP3    H177423   6.099   6.492  16.851 -1.2993  2.2036 -1.5134
18644TIP3    H277424   6.243   6.526  16.879 -0.9838 -0.8007  1.1219
18645TIP3   OH277425   4.188   0.130   2.644  0.0621 -0.0813  0.1237
18645TIP3    H177426   4.230   0.205   2.602  1.1930 -1.2694 -0.9679
18645TIP3    H277427   4.155   0.077   2.571  1.5794 -1.9095  0.6795
18646TIP3   OH277428   2.226   3.544   6.501  0.1681  0.0084  0.0629
18646TIP3    H177429   2.172   3.600   6.445  0.3452 -0.0277 -0.1454
18646TIP3    H277430   2.179   3.460   6.503  0.5817 -0.2480 -0.6995
18647TIP3   OH277431   5.999   3.030  11.453  0.1008  0.0063  0.0296
18647TIP3    H177432   5.931   3.087  11.488 -0.5509  0.6585 -2.1271
18647TIP3    H277433   5.999   3.048  11.359  0.5525 -2.8413 -0.6070
18648TIP3   OH277434   3.516   4.604   1.071 -0.2829 -0.3041 -0.0546
18648TIP3    H177435   3.479   4.629   0.987 -0.8422 -1.1868 -0.0919
18648TIP3    H277436   3.544   4.513   1.059  0.9850  0.0246  0.2796
18649TIP3   OH277437   5.528   4.881  11.786 -0.3148 -0.6173 -0.3968
18649TIP3    H177438   5.470   4.952  11.811 -0.0985 -0.0836 -1.3472
18649TIP3    H277439   5.598   4.882  11.851 -1.6494 -1.6699  1.1345
18650TIP3   OH277440   3.162   3.677   4.551 -0.3156  0.1339 -0.1220
18650TIP3    H177441   3.073   3.647   4.534 -0.4731  1.4055 -1.8562
18650TIP3    H277442   3.151   3.755   4.606 -0.2539  0.1242 -0.0955
18651TIP3   OH277443   2.343   5.573  17.253  0.0786 -0.6221 -0.0126
18651TIP3    H177444   2.345   5.516  17.177  1.7776 -0.1026 -0.3941
18651TIP3    H277445   2.430   5.567  17.291 -0.2817  0.2686  1.0428
18652TIP3   OH277446   2.226   2.083  16.408 -0.0601 -0.2414  0.3372
18652TIP3    H177447   2.268   1.997  16.411  2.4535  0.9066  0.7390
18652TIP3    H277448   2.220   2.103  16.314 -0.1990 -0.6176  0.2609
18653TIP3   OH277449   2.755   2.757  11.844  0.2870 -0.7603 -0.0424
18653TIP3    H177450   2.748   2.668  11.881  0.8515 -1.0403 -0.5977
18653TIP3    H277451   2.674   2.769  11.795  0.7500 -1.4577 -1.0007
18654TIP3   OH277452   2.836   3.803   5.916  0.1496 -0.0946  0.4786
18654TIP3    H177453   2.892   3.872   5.953  1.9069 -0.0724 -1.9577
18654TIP3    H277454   2.822   3.829   5.825 -2.9375 -0.7413  0.6645
18655TIP3   OH277455   2.329   1.327  14.745 -0.6956 -0.2738  0.2220
18655TIP3    H177456   2.259   1.388  14.725 -0.5429 -0.2893 -0.3971
18655TIP3    H277457   2.371   1.311  14.661 -0.0697 -0.4106  0.5539
18656TIP3   OH277458   1.485   3.529   6.082  0.1218  0.1814  0.0211
18656TIP3    H177459   1.561   3.571   6.041  0.3393 -1.4754 -1.3869
18656TIP3    H277460   1.433   3.496   6.009 -1.9857  1.2447  0.9636
18657TIP3   OH277461   4.223   3.036   5.667 -0.2004 -0.2981  0.9073
18657TIP3    H177462   4.298   3.044   5.727  1.3509 -1.1829 -0.7962
18657TIP3    H277463   4.255   3.069   5.583 -1.4055 -1.5566 -0.1059
18658TIP3   OH277464   4.193   6.610   4.581  0.1451 -0.5019  0.5281
18658TIP3    H177465   4.202   6.668   4.656  0.7106  0.5439 -0.3098
18658TIP3    H277466   4.281   6.603   4.545 -0.2897 -0.0492 -0.6883
18659TIP3   OH277467   1.720   0.703  15.535 -0.0867 -0.5379 -0.5618
18659TIP3    H177468   1.714   0.699  15.631  1.0944 -2.8938 -0.4963
18659TIP3    H277469   1.662   0.774  15.510 -1.5112 -0.7602  1.8121
18660TIP3   OH277470   2.514   4.259   0.898  0.0683 -0.3851 -0.2485
18660TIP3    H177471   2.593   4.312   0.886 -0.5636  0.1775 -2.3906
18660TIP3    H277472   2.547   4.170   0.914  1.1162  0.0734  0.2512
18661TIP3   OH277473   2.649   1.103   4.113 -0.0865 -0.0774  0.0950
18661TIP3    H177474   2.689   1.190   4.105  0.8114 -0.4403  0.4370
18661TIP3    H277475   2.700   1.060   4.182 -0.8106 -0.7212  0.2455
18662TIP3   OH277476   5.830   4.373   2.070  0.4373  0.0656  0.3861
18662TIP3    H177477   5.745   4.331   2.083  0.9116 -1.2474 -0.4825
18662TIP3    H277478   5.891   4.300   2.059  1.2948  0.9587 -1.2061
18663TIP3   OH277479   5.099   3.544  11.096 -0.5983  0.3800  0.2225
18663TIP3    H177480   5.020   3.500  11.064 -1.6511  2.7395 -0.6032
18663TIP3    H277481   5.076   3.636  11.101  1.1181  0.7994  3.0986
18664TIP3   OH277482   3.551   3.144  12.634 -0.3469 -0.6899 -0.6790
18664TIP3    H177483   3.569   3.235  12.660  0.1039 -1.2501  1.1357
18664TIP3    H277484   3.636   3.108  12.608 -0.0060 -1.3171  1.1579
18665TIP3   OH277485   3.458   5.717  15.901 -0.1197  0.2968 -0.1156
18665TIP3    H177486   3.435   5.802  15.864  2.8985  1.0519 -0.5383
18665TIP3    H277487   3.445   5.727  15.995 -0.5642  0.9448 -0.2392
18666TIP3   OH277488   6.673   2.539   5.866  0.2783 -0.7643  0.4583
18666TIP3    H177489   6.713   2.514   5.783 -0.2317  0.2755 -0.1227
18666TIP3    H277490   6.712   2.480   5.931  2.1775 -0.2567 -0.1847
18667TIP3   OH277491   4.437   0.116   2.381 -0.6734 -0.0125  0.0480
18667TIP3    H177492   4.391   0.038   2.412 -0.4292 -0.4249 -0.5877
18667TIP3    H277493   4.455   0.166   2.460 -0.9372 -0.5445  0.4585
18668TIP3   OH277494   5.244   3.232  16.598  0.2331  0.0542  0.3228
18668TIP3    H177495   5.251   3.324  16.570 -0.4740  0.8334  2.5038
18668TIP3    H277496   5.151   3.217  16.610  0.3018 -1.1281 -0.4429
18669TIP3   OH277497   4.813   6.795  14.907 -0.0002  0.7040 -0.0681
18669TIP3    H177498   4.771   6.849  14.840 -0.8430 -0.9541 -0.9157
18669TIP3    H277499   4.860   6.858  14.962  2.6209  2.0195 -3.4355
18670TIP3   OH277500   5.635   1.009  14.582  0.2723 -0.0747 -0.1152
18670TIP3    H177501   5.709   1.016  14.521  0.8576 -1.5268  0.3681
18670TIP3    H277502   5.570   1.070  14.548  1.4050  0.7082 -0.9735
18671TIP3   OH277503   0.113   4.749   5.049  0.0238  0.5685 -0.2866
18671TIP3    H177504   0.048   4.730   4.981  1.5629 -0.1524 -1.6371
18671TIP3    H277505   0.069   4.726   5.131 -1.5062  0.3774 -1.1220
18672TIP3   OH277506   0.545   2.196   2.831  0.1504 -0.6850  0.2431
18672TIP3    H177507   0.627   2.177   2.787 -0.0458  0.5311 -0.6867
18672TIP3    H277508   0.507   2.268   2.782 -2.0131 -1.9210 -0.0116
18673TIP3   OH277509   2.246   5.930   5.651  0.7311  0.2288 -0.7076
18673TIP3    H177510   2.242   5.933   5.746  0.9987 -0.5867 -0.6650
18673TIP3    H277511   2.237   6.022   5.624  0.6572  0.4667  0.0950
18674TIP3   OH277512   3.172   2.892   3.605 -0.1594 -0.4608  0.5419
18674TIP3    H177513   3.160   2.800   3.579 -3.7224  0.4891 -1.8266
18674TIP3    H277514   3.255   2.917   3.564 -0.8307 -1.7456 -1.7805
18675TIP3   OH277515   5.430   4.299   6.437 -0.3602 -0.5240  0.3632
18675TIP3    H177516   5.451   4.392   6.431 -1.5667 -0.3077 -1.3515
18675TIP3    H277517   5.459   4.273   6.524  2.0133  0.9229  0.0845
18676TIP3   OH277518   6.621   4.505   5.578 -0.1457  0.0671 -0.5352
18676TIP3    H177519   6.579   4.470   5.657  2.1612 -0.0985  0.7256
18676TIP3    H277520   6.668   4.431   5.541  1.7423  0.9022  0.0579
18677TIP3   OH277521   3.989   1.148  14.682 -0.0524 -0.2815 -0.0859
18677TIP3    H177522   3.946   1.184  14.604  0.2842 -0.0673 -0.1736
18677TIP3    H277523   3.918   1.105  14.730 -0.2146 -0.6405 -0.6369
18678TIP3   OH277524   6.136   4.448   5.351 -0.1237 -0.1711  0.5900
18678TIP3    H177525   6.157   4.496   5.270  0.8457 -4.1002 -1.7499
18678TIP3    H277526   6.073   4.504   5.395 -0.7710  2.2470 -2.9304
18679TIP3   OH277527   0.461   2.874  11.725  0.0655 -0.0689  0.2977
18679TIP3    H177528   0.451   2.921  11.642 -1.1356 -0.2003  0.3560
18679TIP3    H277529   0.518   2.930  11.777  1.3102 -0.2470 -0.7958
18680TIP3   OH277530   5.604   2.164  15.747  0.0037 -0.5079  0.2718
18680TIP3    H177531   5.514   2.171  15.715  0.5181  0.8282 -1.0464
18680TIP3    H277532   5.620   2.070  15.754 -1.2949 -0.7801 -0.0548
18681TIP3   OH277533   5.034   3.817   5.857  0.2541  0.2434  0.5570
18681TIP3    H177534   5.100   3.750   5.836  1.2800  1.3212  0.2292
18681TIP3    H277535   5.046   3.833   5.950  1.2540  1.2296  0.2837
18682TIP3   OH277536   2.036   0.630   5.145  0.1556  0.0462  0.0454
18682TIP3    H177537   2.094   0.659   5.216  1.1909 -2.3954  0.2943
18682TIP3    H277538   1.948   0.654   5.174  0.6703  0.1460  1.6107
18683TIP3   OH277539   0.713   3.225   0.553  0.3887  0.0167  0.0471
18683TIP3    H177540   0.622   3.194   0.559  0.2572  0.4638  0.4327
18683TIP3    H277541   0.706   3.309   0.507  0.4402  0.7397  1.3281
18684TIP3   OH277542   2.586   4.813  12.321 -0.2422  0.4149  0.0140
18684TIP3    H177543   2.524   4.879  12.353 -4.1629 -1.6254 -2.4373
18684TIP3    H277544   2.543   4.729  12.341  1.7739 -1.1639 -1.8193
18685TIP3   OH277545   2.396   0.078  16.962 -0.2965  0.6003  0.3272
18685TIP3    H177546   2.434   0.040  16.883 -0.5190 -1.6242  1.2060
18685TIP3    H277547   2.301   0.066  16.951 -0.3691  0.8382  0.6608
18686TIP3   OH277548   2.158   3.644  14.303  0.1845  0.3452 -0.2136
18686TIP3    H177549   2.193   3.709  14.364 -0.2639  1.2524 -0.9052
18686TIP3    H277550   2.064   3.663  14.299  0.3301  0.8435 -1.8187
18687TIP3   OH277551   0.688   2.009   1.781  0.2921  0.0371  0.0862
18687TIP3    H177552   0.769   2.039   1.824  0.3862  2.0137 -1.3079
18687TIP3    H277553   0.706   1.918   1.757  1.0408 -0.4433  2.2107
18688TIP3   OH277554   6.302   0.724   3.169 -0.3715 -0.2243  0.0859
18688TIP3    H177555   6.264   0.739   3.083 -0.0016  0.6630  0.0642
18688TIP3    H277556   6.371   0.659   3.155  1.1883  1.5048 -0.7225
18689TIP3   OH277557   4.844   2.711  12.087  0.3785  0.3784  0.7156
18689TIP3    H177558   4.935   2.727  12.062  0.6391 -0.3514  1.1557
18689TIP3    H277559   4.811   2.651  12.019  0.9922 -1.3516  1.8644
18690TIP3   OH277560   2.454   2.799   1.943  0.3191  0.0526  0.2059
18690TIP3    H177561   2.395   2.733   1.979 -0.0670  1.1471  1.6281
18690TIP3    H277562   2.530   2.748   1.914  0.5809 -0.9394  2.3965
18691TIP3   OH277563   0.128   0.178   1.581  0.8286  0.7223  0.5574
18691TIP3    H177564   0.138   0.266   1.616  0.3464  0.0826  2.4095
18691TIP3    H277565   0.034   0.169   1.565  0.6901  0.1389  1.5954
18692TIP3   OH277566   4.715   6.036  12.131  0.6184 -0.1099  0.2051
18692TIP3    H177567   4.803   6.001  12.144  0.3942 -1.0844 -0.7023
18692TIP3    H277568   4.679   5.982  12.061  0.1729  1.8674 -1.1537
18693TIP3   OH277569   4.692   5.245  11.842 -0.1000 -0.8080 -0.2716
18693TIP3    H177570   4.632   5.211  11.776  1.4600 -2.9582 -0.6788
18693TIP3    H277571   4.691   5.180  11.912  1.3173 -0.6310 -0.0497
18694TIP3   OH277572   2.482   5.783   2.762 -0.2423 -0.0662 -0.1181
18694TIP3    H177573   2.524   5.777   2.677  0.9709  1.8598  0.3026
18694TIP3    H277574   2.537   5.730   2.820  0.3978  0.7164 -0.0079
18695TIP3   OH277575   0.796   5.353  11.446 -0.3984  0.7468 -0.2661
18695TIP3    H177576   0.831   5.269  11.475  0.2174  0.7404 -0.9959
18695TIP3    H277577   0.856   5.382  11.378 -0.7432  1.6696 -0.1922
18696TIP3   OH277578   4.966   5.838   0.702 -0.0842  0.2423  0.0752
18696TIP3    H177579   4.974   5.747   0.673 -0.1992 -0.2938  1.6333
18696TIP3    H277580   4.926   5.883   0.627 -0.7941 -1.1552 -0.4407
18697TIP3   OH277581   3.351   4.703  14.490 -0.0302 -0.1303 -0.3512
18697TIP3    H177582   3.260   4.706  14.522  0.2006  0.2702  0.2752
18697TIP3    H277583   3.343   4.668  14.402 -0.8420  0.3140 -0.4679
18698TIP3   OH277584   5.366   2.506  14.766  0.3632 -0.0860  0.1297
18698TIP3    H177585   5.384   2.565  14.839  2.1163 -1.9491  1.3271
18698TIP3    H277586   5.404   2.551  14.689  1.6681  0.3726  0.9979
18699TIP3   OH277587   1.171   3.607   1.379  0.1240 -0.3869  0.4005
18699TIP3    H177588   1.136   3.636   1.464 -0.6273 -0.0045 -0.0354
18699TIP3    H277589   1.266   3.618   1.389  0.2913 -2.6620  2.0482
18700TIP3   OH277590   4.569   1.815   3.980 -0.0516 -0.0408  0.5166
18700TIP3    H177591   4.564   1.844   4.070  1.0320  1.0182  0.2565
18700TIP3    H277592   4.621   1.734   3.984  0.9956  0.6215  0.7344
18701TIP3   OH277593   4.267   6.102  17.143 -0.4101 -0.0933  0.1538
18701TIP3    H177594   4.323   6.155  17.086 -0.5511 -0.4965 -0.3643
18701TIP3    H277595   4.263   6.016  17.100 -0.9955 -0.2259  0.4620
18702TIP3   OH277596   4.571   2.852  14.599 -0.3496  0.1546 -0.3642
18702TIP3    H177597   4.663   2.880  14.603 -1.1770  3.0966  0.0205
18702TIP3    H277598   4.576   2.757  14.587  2.7205  0.0170  1.0798
18703TIP3   OH277599   2.663   3.331  16.176  0.3362  0.8361  0.1431
18703TIP3    H177600   2.580   3.341  16.129 -0.5766  1.2689  1.7594
18703TIP3    H277601   2.689   3.421  16.198  1.1094  0.6833 -0.1210
18704TIP3   OH277602   5.119   2.679  15.488  0.3385 -0.9760  0.4582
18704TIP3    H177603   5.035   2.681  15.533 -1.2728  3.4398 -2.1110
18704TIP3    H277604   5.110   2.612  15.421 -1.5900  0.0328 -0.3537
18705TIP3   OH277605   0.059   4.029  14.174  0.1922 -0.0204 -0.1402
18705TIP3    H177606   0.096   4.104  14.220  0.0651  0.2102 -0.4153
18705TIP3    H277607   0.071   4.048  14.081  2.3421 -1.4387 -0.2125
18706TIP3   OH277608   0.869   5.052  14.190 -0.2152  0.3974  0.2094
18706TIP3    H177609   0.860   4.969  14.237 -1.9152  1.5452  2.0260
18706TIP3    H277610   0.786   5.063  14.144 -0.1682  1.2818  0.3157
18707TIP3   OH277611   1.899   5.302  12.323 -0.2023  0.3912  0.4195
18707TIP3    H177612   1.865   5.366  12.259  0.7322  0.4832  0.0076
18707TIP3    H277613   1.831   5.299  12.391 -0.5759  1.3289  0.1128
18708TIP3   OH277614   5.296   4.655  17.215 -0.1001  0.1848 -1.1062
18708TIP3    H177615   5.373   4.682  17.165 -1.7981  2.9519 -2.4442
18708TIP3    H277616   5.225   4.656  17.152 -1.7825  0.7070  0.7129
18709TIP3   OH277617   1.662   2.193   4.567 -0.2938  0.2729  0.0283
18709TIP3    H177618   1.617   2.270   4.531 -0.0393  1.2143  1.6176
18709TIP3    H277619   1.730   2.230   4.623  0.1404 -1.1383  0.4634
18710TIP3   OH277620   6.013   0.311  16.946 -0.3348 -0.1381 -0.3645
18710TIP3    H177621   6.103   0.343  16.938 -0.4221  1.1058  2.4935
18710TIP3    H277622   6.021   0.216  16.942  0.9662 -0.0337 -0.9764
18711TIP3   OH277623   3.743   5.060   0.966  0.2976  0.2383  1.0827
18711TIP3    H177624   3.743   4.978   1.016  0.5450 -0.7339 -0.4520
18711TIP3    H277625   3.819   5.108   1.000  1.6789 -1.2855  0.3091
18712TIP3   OH277626   2.554   5.854  12.622  0.9310 -0.0149  0.0409
18712TIP3    H177627   2.473   5.817  12.588  1.6725 -1.9417  0.2571
18712TIP3    H277628   2.614   5.853  12.548  1.0128  0.6539  0.0888
18713TIP3   OH277629   5.117   5.873   3.335  0.1610 -0.0835  0.3369
18713TIP3    H177630   5.177   5.883   3.261  0.2976 -1.2478  0.2842
18713TIP3    H277631   5.040   5.829   3.298 -0.5274  0.9182  0.5210
18714TIP3   OH277632   2.668   1.033  14.169 -0.4520  0.4945 -0.1545
18714TIP3    H177633   2.651   0.939  14.175  0.1651  0.4583  1.3713
18714TIP3    H277634   2.652   1.067  14.257  1.3676  1.4524 -0.1314
18715TIP3   OH277635   2.081   2.964  11.786  0.2740 -0.3087  0.0443
18715TIP3    H177636   2.063   2.947  11.694  1.0543 -0.5379 -0.0764
18715TIP3    H277637   2.053   3.055  11.799  0.0677 -0.3061 -0.3963
18716TIP3   OH277638   1.428   4.063  13.947  0.0276 -0.0816 -0.7024
18716TIP3    H177639   1.516   4.073  13.911  0.8285  3.1764  1.7779
18716TIP3    H277640   1.435   3.993  14.011  1.5862  1.8086  1.3121
18717TIP3   OH277641   3.761   5.051   3.449  0.5457 -0.8721  0.2679
18717TIP3    H177642   3.713   4.981   3.494 -1.1623  0.3037  0.3368
18717TIP3    H277643   3.742   5.130   3.499 -2.3813  0.7488 -2.9587
18718TIP3   OH277644   0.692   4.317  15.926 -0.3443 -0.0346 -0.2398
18718TIP3    H177645   0.630   4.259  15.970 -0.8508  0.6549 -0.0249
18718TIP3    H277646   0.650   4.403  15.928 -0.1684  0.1144 -1.6313
18719TIP3   OH277647   5.553   0.367  13.246 -0.4370 -0.1253 -0.4197
18719TIP3    H177648   5.634   0.392  13.290 -0.8619  0.0896  0.2691
18719TIP3    H277649   5.488   0.431  13.276 -0.6187  0.3896 -1.8365
18720TIP3   OH277650   2.969   5.221  12.108 -0.0137 -0.5557  0.1279
18720TIP3    H177651   3.009   5.254  12.028  0.4878 -0.2370  0.5021
18720TIP3    H277652   2.919   5.145  12.080  1.9789 -1.8504 -0.1762
18721TIP3   OH277653   2.858   0.804  10.815  0.3116  0.5119 -0.0096
18721TIP3    H177654   2.849   0.846  10.901  0.4924  1.4887 -0.4560
18721TIP3    H277655   2.771   0.809  10.777  0.8507  2.7667 -1.0740
18722TIP3   OH277656   3.301   4.116   5.111 -0.1679  0.1229 -0.0313
18722TIP3    H177657   3.227   4.059   5.090  0.5318 -0.3694 -1.2731
18722TIP3    H277658   3.271   4.169   5.185 -1.0426 -1.4628  0.8111
18723TIP3   OH277659   5.361   1.729   3.164  0.0377  0.1344 -0.0286
18723TIP3    H177660   5.451   1.722   3.196 -0.8931  0.4282  3.0202
18723TIP3    H277661   5.330   1.813   3.196 -1.1200  0.3964 -1.7052
18724TIP3   OH277662   3.221   1.529   2.481 -0.0412 -0.0277  0.3629
18724TIP3    H177663   3.181   1.589   2.544 -0.8503  0.1712 -0.3149
18724TIP3    H277664   3.215   1.575   2.398 -2.0084 -1.5762 -0.4451
18725TIP3   OH277665   0.320   3.442  11.053 -0.0404 -0.2021 -0.5534
18725TIP3    H177666   0.340   3.416  10.963  0.0489 -2.0713 -0.0164
18725TIP3    H277667   0.404   3.442  11.098 -0.0120  1.2073 -0.5340
18726TIP3   OH277668   0.376   4.774  16.547  0.2143  0.5293  0.0910
18726TIP3    H177669   0.468   4.767  16.521  0.1723 -2.4577  0.4212
18726TIP3    H277670   0.366   4.865  16.576  2.7812  1.2033 -0.8455
18727TIP3   OH277671   1.837   3.761   1.743 -0.2891  0.3925  0.3677
18727TIP3    H177672   1.858   3.823   1.813  0.5012 -1.3181  1.7439
18727TIP3    H277673   1.741   3.757   1.743 -0.3045  0.5293  1.2813
18728TIP3   OH277674   3.602   5.488  13.910  0.2292  0.0259  0.9004
18728TIP3    H177675   3.685   5.441  13.918  0.6277  0.4680 -0.3944
18728TIP3    H277676   3.569   5.463  13.823 -0.0863  1.2729  0.6469
18729TIP3   OH277677   0.825   4.092  13.385 -0.4093 -0.2130  0.0444
18729TIP3    H177678   0.753   4.064  13.328  0.4655  0.2512 -1.3534
18729TIP3    H277679   0.904   4.070  13.335  0.3910  0.3631  1.0296
18730TIP3   OH277680   4.100   5.728   5.862 -0.4709  0.2892  0.0968
18730TIP3    H177681   4.111   5.633   5.848 -2.5122 -0.1498  1.1515
18730TIP3    H277682   4.189   5.761   5.870  0.2724 -1.7534  0.9317
18731TIP3   OH277683   4.001   0.537   0.733 -0.1840  0.1206 -0.2965
18731TIP3    H177684   4.096   0.546   0.728 -0.1495  0.3752  0.7235
18731TIP3    H277685   3.967   0.618   0.694  0.0674  1.6146  2.3881
18732TIP3   OH277686   0.377   0.579   3.261  0.3161 -0.0852  0.4593
18732TIP3    H177687   0.453   0.521   3.266  0.2472 -0.0766  3.0090
18732TIP3    H277688   0.408   0.663   3.293 -0.2403  0.5848 -0.6812
18733TIP3   OH277689   5.447   2.703   0.302  0.0549 -0.0004 -0.7465
18733TIP3    H177690   5.432   2.682   0.209 -1.6063 -0.0526 -0.5032
18733TIP3    H277691   5.403   2.633   0.350  1.0322 -0.0584  0.1031
18734TIP3   OH277692   5.567   3.852   2.334  0.1062 -0.4882  0.3709
18734TIP3    H177693   5.580   3.809   2.418  1.0839  0.1788  0.5757
18734TIP3    H277694   5.504   3.922   2.352 -0.6039 -1.0886  0.2787
18735TIP3   OH277695   1.581   1.541  16.382  0.1258  0.5379  0.0033
18735TIP3    H177696   1.588   1.627  16.340  0.1501  1.1002  1.1331
18735TIP3    H277697   1.489   1.534  16.406  0.2145  0.4350  0.3079
18736TIP3   OH277698   2.204   0.924  14.046  0.3440  1.1281  0.0958
18736TIP3    H177699   2.214   0.929  13.951  3.8834  2.1712  0.3843
18736TIP3    H277700   2.211   1.014  14.076 -1.8885  0.9682  1.3747
18737TIP3   OH277701   2.315   4.371  17.029  0.3933  0.3850 -0.3448
18737TIP3    H177702   2.295   4.298  17.088 -0.3791  0.7678 -0.1129
18737TIP3    H277703   2.295   4.337  16.941  0.3333  0.2141 -0.2668
18738TIP3   OH277704   0.074   1.352   0.787  0.1577  0.1741  0.0988
18738TIP3    H177705   0.155   1.354   0.837 -0.8207  0.2599  1.7742
18738TIP3    H277706   0.068   1.263   0.753  0.2430 -0.2909  1.2439
18739TIP3   OH277707   0.653   2.548   4.822 -0.3628 -0.5107 -0.3975
18739TIP3    H177708   0.728   2.530   4.765  0.7237 -0.3298  0.9277
18739TIP3    H277709   0.687   2.538   4.911 -2.7369 -3.7638  0.3089
18740TIP3   OH277710   4.287   2.686  11.442  0.1099 -0.2885  0.0050
18740TIP3    H177711   4.272   2.670  11.349  2.2235 -1.0350 -0.2589
18740TIP3    H277712   4.252   2.607  11.485 -0.6016 -0.0741 -0.1605
18741TIP3   OH277713   4.152   4.200  16.632 -0.3264 -0.5265  0.1178
18741TIP3    H177714   4.221   4.153  16.587  2.0434  0.8406  2.0656
18741TIP3    H277715   4.104   4.133  16.681  0.5929 -1.3517 -0.0894
18742TIP3   OH277716   6.245   2.396  15.738 -0.5077  0.2736 -0.1059
18742TIP3    H177717   6.339   2.381  15.753 -0.5644  1.7502  2.3890
18742TIP3    H277718   6.205   2.310  15.750  0.5349 -0.5136 -1.8806
18743TIP3   OH277719   2.677   5.890  16.444 -0.4268 -0.0797 -0.7124
18743TIP3    H177720   2.613   5.823  16.420  0.2558 -0.4230 -1.6468
18743TIP3    H277721   2.751   5.875  16.385  0.3089  0.6314 -0.0059
18744TIP3   OH277722   6.269   4.012   5.319 -0.0112 -0.0754  0.5655
18744TIP3    H177723   6.197   4.012   5.256 -0.1527 -0.4273  0.7226
18744TIP3    H277724   6.316   4.094   5.303  0.6492 -0.6998 -0.7854
18745TIP3   OH277725   5.256   1.899   3.405 -0.5148  0.3170  0.0245
18745TIP3    H177726   5.172   1.866   3.373  0.0069  0.2367 -1.3245
18745TIP3    H277727   5.254   1.993   3.386  0.3935  0.0276 -1.7003
18746TIP3   OH277728   1.459   3.759   0.463  0.1243 -0.2056  0.6289
18746TIP3    H177729   1.407   3.713   0.397 -0.7750 -0.2986  1.3884
18746TIP3    H277730   1.546   3.721   0.455  0.3394  0.5673 -1.2696
18747TIP3   OH277731   3.347   5.706   4.457  0.0142 -0.0502 -0.2292
18747TIP3    H177732   3.357   5.705   4.552  0.9178  1.1072 -0.2813
18747TIP3    H277733   3.270   5.761   4.441  0.0110 -0.0385 -0.1716
18748TIP3   OH277734   0.801   1.419  11.798 -0.2210  0.4879  0.6097
18748TIP3    H177735   0.873   1.368  11.835 -0.5971 -0.1082  0.5362
18748TIP3    H277736   0.730   1.409  11.862 -0.0921  1.4505  0.9115
18749TIP3   OH277737   0.731   3.182   2.129  0.6401  0.2815 -0.1723
18749TIP3    H177738   0.729   3.164   2.223  1.1798  1.9269  0.1957
18749TIP3    H277739   0.712   3.276   2.122 -0.1038  0.0450 -1.7648
18750TIP3   OH277740   6.003   6.126  10.636  0.0514  0.1283 -0.2999
18750TIP3    H177741   6.009   6.093  10.726 -0.8301 -2.4562 -1.1042
18750TIP3    H277742   5.958   6.210  10.645  1.2762  0.6466  1.7759
18751TIP3   OH277743   5.747   6.139   3.893 -0.3824 -0.1484 -0.0280
18751TIP3    H177744   5.824   6.180   3.932 -0.7215  0.5429 -0.0729
18751TIP3    H277745   5.741   6.177   3.805 -0.9667  0.0553  0.0964
18752TIP3   OH277746   6.334   1.903   0.537  0.2704  0.0725 -0.2373
18752TIP3    H177747   6.276   1.968   0.574  0.4978  1.3222 -1.9830
18752TIP3    H277748   6.341   1.836   0.605 -2.8122  0.0788  0.2112
18753TIP3   OH277749   0.215   3.077   2.238  0.1947 -0.7519 -0.1337
18753TIP3    H177750   0.271   3.155   2.239 -0.7311 -0.0312  2.2771
18753TIP3    H277751   0.275   3.005   2.254  0.5913 -0.0543  1.8104
18754TIP3   OH277752   1.053   0.867   5.249  0.1992  0.2218 -0.2085
18754TIP3    H177753   0.983   0.803   5.262 -0.1242  0.7708  0.8474
18754TIP3    H277754   1.017   0.949   5.281  1.1819  0.6045 -0.0446
18755TIP3   OH277755   6.638   3.302   2.289 -0.8982 -0.5828  0.1858
18755TIP3    H177756   6.553   3.290   2.246 -1.5758 -1.1565  1.6046
18755TIP3    H277757   6.652   3.219   2.335 -1.2332  0.7105  2.7741
18756TIP3   OH277758   6.733   4.615   6.117  0.1936 -0.1707 -0.4404
18756TIP3    H177759   6.674   4.600   6.191  0.2515 -1.7789 -0.6716
18756TIP3    H277760   6.805   4.667   6.153 -1.5918  2.3348 -0.2929
18757TIP3   OH277761   6.356   4.288   5.429 -0.1826  0.2341 -0.1877
18757TIP3    H177762   6.341   4.235   5.508  0.9886  0.3606  0.1392
18757TIP3    H277763   6.268   4.318   5.404 -0.6682 -0.4558  0.6049
18758TIP3   OH277764   1.975   1.806  12.253  0.6714 -0.5131  0.2782
18758TIP3    H177765   1.891   1.852  12.246  1.3246  0.9657  1.7328
18758TIP3    H277766   1.959   1.738  12.319  0.1778 -1.3844 -0.6908
18759TIP3   OH277767   4.696   1.567   3.932  0.2252 -0.4158  0.2020
18759TIP3    H177768   4.779   1.537   3.968  0.3354 -1.0756 -0.5712
18759TIP3    H277769   4.630   1.510   3.971  0.4183 -1.5975 -1.1447
18760TIP3   OH277770   3.109   4.089  12.805  0.4882  0.5620 -0.0278
18760TIP3    H177771   3.078   4.009  12.848  2.5831 -0.4827 -0.3617
18760TIP3    H277772   3.201   4.072  12.786  0.9671  3.0301 -0.2130
18761TIP3   OH277773   4.600   2.862   0.033  0.1688 -0.5166 -0.1994
18761TIP3    H177774   4.671   2.817  -0.013  1.3702 -0.4382  1.4798
18761TIP3    H277775   4.616   2.955   0.018  0.7573 -0.4759  0.5861
18762TIP3   OH277776   4.556   2.320  14.291  0.3356 -0.3769 -0.1750
18762TIP3    H177777   4.589   2.304  14.380  0.9974  0.2922 -0.2926
18762TIP3    H277778   4.609   2.393  14.259 -2.5879  2.1898  0.3770
18763TIP3   OH277779   3.209   2.726   5.703  0.0460 -0.4422  0.4756
18763TIP3    H177780   3.245   2.814   5.696 -1.5444  0.3504  1.6206
18763TIP3    H277781   3.249   2.677   5.631 -0.1838  1.6181 -1.1163
18764TIP3   OH277782   5.463   5.384   3.046 -0.3670 -0.0552  0.1920
18764TIP3    H177783   5.401   5.333   3.099 -0.5282  0.9770  1.0309
18764TIP3    H277784   5.546   5.377   3.094 -0.2319 -0.0633 -0.0426
18765TIP3   OH277785   2.562   3.870  11.702 -0.5337  0.1976  0.6616
18765TIP3    H177786   2.489   3.809  11.709 -1.2930  1.1860  1.9431
18765TIP3    H277787   2.620   3.847  11.776 -0.8461  1.0250  1.1767
18766TIP3   OH277788   3.053   2.466   5.711 -0.5417  0.1259 -0.1260
18766TIP3    H177789   2.976   2.449   5.765  0.3143  1.6984  1.7228
18766TIP3    H277790   3.057   2.562   5.705  1.1047  0.0771 -0.3888
18767TIP3   OH277791   5.698   3.730  16.963 -0.2931  0.1805  0.0178
18767TIP3    H177792   5.611   3.713  17.000  0.5653 -0.9612  1.6321
18767TIP3    H277793   5.731   3.644  16.939 -0.2428  0.7608 -2.2353
18768TIP3   OH277794   6.172   1.685  12.007 -0.2263 -0.3553 -0.0849
18768TIP3    H177795   6.139   1.768  12.044  1.1579  0.0943  0.1880
18768TIP3    H277796   6.152   1.692  11.913  0.1941  0.4601 -0.1278
18769TIP3   OH277797   4.545   3.644   5.954 -0.0926  0.5897 -0.5053
18769TIP3    H177798   4.501   3.572   6.000 -0.3745  0.2004 -1.3438
18769TIP3    H277799   4.620   3.666   6.009  0.4458 -0.8747 -0.5999
18770TIP3   OH277800   4.743   6.479   6.242 -0.2305  0.1732 -0.2067
18770TIP3    H177801   4.825   6.491   6.194  0.1012 -1.5047 -0.0942
18770TIP3    H277802   4.764   6.418   6.313 -1.5604 -0.2764 -0.1623
18771TIP3   OH277803   4.377   2.084   3.722 -0.3084  0.2051 -0.1678
18771TIP3    H177804   4.346   2.126   3.642  0.1395 -0.0417 -0.4706
18771TIP3    H277805   4.299   2.041   3.758 -0.8537  1.5317  0.3162
18772TIP3   OH277806   3.273   1.211  16.287 -0.1009 -0.3965  0.3968
18772TIP3    H177807   3.280   1.141  16.223 -2.6288  0.9068 -1.4676
18772TIP3    H277808   3.359   1.212  16.331  0.2053 -4.2250  0.2017
18773TIP3   OH277809   1.998   6.164  13.602  0.7296  0.3373  0.1245
18773TIP3    H177810   1.960   6.173  13.690 -0.2013 -1.4147 -0.0392
18773TIP3    H277811   2.053   6.086  13.608 -0.0198 -0.3136 -1.0371
18774TIP3   OH277812   5.504   5.759  14.614 -0.1060  1.1559  0.0458
18774TIP3    H177813   5.500   5.831  14.551 -1.8455  0.7867 -0.2995
18774TIP3    H277814   5.414   5.727  14.621  0.8186 -2.0691 -1.0851
18775TIP3   OH277815   2.242   4.911  12.614  0.0375 -0.4874 -0.3892
18775TIP3    H177816   2.220   4.898  12.522 -0.9569 -0.0855 -0.2169
18775TIP3    H277817   2.206   4.834  12.658  0.4863 -0.6642 -0.3271
18776TIP3   OH277818   4.623   5.373  11.306  0.4463  0.2913  0.8178
18776TIP3    H177819   4.644   5.361  11.214  0.6983  0.9699  0.7800
18776TIP3    H277820   4.679   5.311  11.352  0.6274  0.2521  0.5451
18777TIP3   OH277821   4.848   0.555  16.800 -0.1042 -0.8839  0.5270
18777TIP3    H177822   4.860   0.599  16.716  0.2088  0.5493  1.2905
18777TIP3    H277823   4.808   0.471  16.778 -0.2766 -0.4193 -1.0273
18778TIP3   OH277824   4.658   5.285   5.681  0.7573  0.6113 -0.0989
18778TIP3    H177825   4.595   5.310   5.614  1.6266  1.2486 -0.7000
18778TIP3    H277826   4.634   5.195   5.704  0.2013  0.5225 -0.9788
18779TIP3   OH277827   3.397   3.516  11.041 -0.4288 -0.3590 -0.3798
18779TIP3    H177828   3.474   3.525  11.097  0.3212  0.2639 -1.4694
18779TIP3    H277829   3.354   3.601  11.046 -0.9179 -0.6295  0.0399
18780TIP3   OH277830   4.360   5.115  13.254 -0.0807 -0.8286 -0.8294
18780TIP3    H177831   4.442   5.094  13.298 -0.5670  1.0023  1.0659
18780TIP3    H277832   4.386   5.167  13.178  0.5175  0.5044  0.2451
18781TIP3   OH277833   6.524   4.836  16.408  0.1915  0.2968  0.1885
18781TIP3    H177834   6.603   4.783  16.402  0.7630  1.2149 -4.1803
18781TIP3    H277835   6.452   4.772  16.401  0.7709 -0.2326 -1.3606
18782TIP3   OH277836   4.409   3.994  15.021  0.2746 -0.4420  0.5311
18782TIP3    H177837   4.503   3.984  15.009  0.1107  0.1163 -1.9819
18782TIP3    H277838   4.398   4.082  15.055  0.6571 -0.1664 -0.0349
18783TIP3   OH277839   4.548   6.682  11.883  0.1274  0.2575  0.6143
18783TIP3    H177840   4.548   6.650  11.792  1.5831 -1.3699  1.1247
18783TIP3    H277841   4.625   6.738  11.889 -0.9050  1.7469  0.4453
18784TIP3   OH277842   2.884   5.219  17.140  0.0857  0.2114 -0.5954
18784TIP3    H177843   2.977   5.240  17.134  0.8368 -2.6901 -0.6279
18784TIP3    H277844   2.839   5.301  17.119  2.6152  1.4326 -1.5917
18785TIP3   OH277845   0.457   2.242   3.294 -0.3044  0.0611 -0.1700
18785TIP3    H177846   0.476   2.208   3.381  0.9877  1.0954 -0.0203
18785TIP3    H277847   0.494   2.176   3.235 -0.4802 -0.2532  0.0652
18786TIP3   OH277848   3.128   5.623   0.916  0.0964  0.1314 -0.1375
18786TIP3    H177849   3.180   5.699   0.940  0.5137  0.3273 -1.5476
18786TIP3    H277850   3.038   5.648   0.936  0.3454  0.5223  0.5240
18787TIP3   OH277851   6.387   1.020  13.796  0.0958  0.3966 -0.0231
18787TIP3    H177852   6.385   0.980  13.710  2.9662 -0.9404  0.4229
18787TIP3    H277853   6.296   1.017  13.826 -0.2503 -4.0334 -0.8618
18788TIP3   OH277854   6.487   1.168  16.624 -0.1431  0.0227 -0.8440
18788TIP3    H177855   6.511   1.199  16.711 -1.2981  0.7792 -0.7609
18788TIP3    H277856   6.570   1.148  16.580  0.5169  1.0106 -0.0670
18789TIP3   OH277857   3.463   4.989   1.837 -0.5021  0.3010  0.3754
18789TIP3    H177858   3.435   4.985   1.745 -4.2766 -1.2302  1.4073
18789TIP3    H277859   3.433   5.074   1.867  1.1659  1.0083  0.1761
18790TIP3   OH277860   1.613   5.531   3.366  0.3885  0.5974 -0.4862
18790TIP3    H177861   1.556   5.494   3.299  0.4671 -2.5904  1.0316
18790TIP3    H277862   1.700   5.500   3.344  0.6486  0.7708  0.2503
18791TIP3   OH277863   4.629   3.077   1.777  0.4824  0.3126 -0.4876
18791TIP3    H177864   4.605   3.159   1.733  0.7485  0.4068 -0.4579
18791TIP3    H277865   4.554   3.057   1.833  0.5610  0.7228 -0.2314
18792TIP3   OH277866   5.550   2.804  16.519 -0.4048 -0.7177 -0.6055
18792TIP3    H177867   5.617   2.870  16.537 -1.2322 -0.2695  1.1107
18792TIP3    H277868   5.571   2.732  16.579 -0.5950 -1.2218 -1.1342
18793TIP3   OH277869   5.068   2.185   0.809  0.3389 -0.2436  0.3513
18793TIP3    H177870   5.113   2.135   0.877 -0.6828 -0.3141  0.9996
18793TIP3    H277871   5.075   2.276   0.837  0.8920 -0.1680 -0.0369
18794TIP3   OH277872   5.805   1.194  15.912 -0.1503  0.0712 -0.0783
18794TIP3    H177873   5.837   1.214  16.000 -0.9960  3.1163 -0.3397
18794TIP3    H277874   5.709   1.196  15.919 -0.2402  1.0496 -1.1469
18795TIP3   OH277875   3.362   5.235   6.324 -0.0639  0.4031 -0.2140
18795TIP3    H177876   3.326   5.186   6.398 -2.6794  0.5290 -1.3006
18795TIP3    H277877   3.405   5.169   6.269  0.2890  0.0357  0.4972
18796TIP3   OH277878   4.017   5.977  15.885  0.1176 -0.0547  0.0056
18796TIP3    H177879   4.059   5.906  15.835 -0.0652  0.2706 -0.6164
18796TIP3    H277880   4.024   5.949  15.976 -0.3297 -1.0845 -0.2627
18797TIP3   OH277881   0.132   1.719   0.366  0.5831 -0.5055 -0.1821
18797TIP3    H177882   0.218   1.727   0.407  0.6448 -1.0385 -0.1926
18797TIP3    H277883   0.079   1.674   0.433 -0.0933  1.0921  0.3965
18798TIP3   OH277884   6.254   5.020  14.012  0.3461 -0.1569  0.0260
18798TIP3    H177885   6.302   5.013  13.929 -1.3830 -2.0999 -0.8947
18798TIP3    H277886   6.162   5.022  13.986 -0.2392 -0.9164  1.9084
18799TIP3   OH277887   1.779   4.385  16.327  0.0448  0.6573  0.2176
18799TIP3    H177888   1.772   4.297  16.290  0.5740  0.5649  0.3378
18799TIP3    H277889   1.709   4.434  16.284 -1.2070 -0.1758  1.2027
18800TIP3   OH277890   6.310   1.261   3.299  0.0261 -0.1829 -0.7779
18800TIP3    H177891   6.292   1.235   3.209  0.3261 -0.6074 -0.7149
18800TIP3    H277892   6.378   1.329   3.292  0.4848 -0.6450 -0.8359
18801TIP3   OH277893   4.873   3.582  16.993  0.3847  0.5589  0.4366
18801TIP3    H177894   4.838   3.660  16.950  1.5250  0.3148 -1.0109
18801TIP3    H277895   4.963   3.575  16.961  0.2386 -1.4654  0.3339
18802TIP3   OH277896   6.354   4.101   5.644 -0.0507 -0.1290 -0.1214
18802TIP3    H177897   6.390   4.106   5.733  0.3385 -1.6029 -0.1737
18802TIP3    H277898   6.289   4.031   5.647  1.1824 -1.4264 -1.3539
18803TIP3   OH277899   2.270   1.538   0.087  0.5088 -0.1714  0.0161
18803TIP3    H177900   2.235   1.623   0.060  1.3305  0.7253  1.6270
18803TIP3    H277901   2.353   1.559   0.129  0.6275 -1.7651  0.6279
18804TIP3   OH277902   6.296   5.621  13.339 -0.2386 -0.0368  0.2595
18804TIP3    H177903   6.292   5.578  13.254  0.6387  1.0461 -0.3695
18804TIP3    H277904   6.334   5.556  13.397 -1.6568 -1.0913  0.0577
18805TIP3   OH277905   3.380   5.492   4.933  0.0178 -0.4885 -0.3847
18805TIP3    H177906   3.387   5.405   4.973 -0.2363 -0.2885  0.1140
18805TIP3    H277907   3.470   5.523   4.928  0.0906 -0.6915 -0.3530
18806TIP3   OH277908   6.600   1.874   0.520  0.8451 -0.0140 -0.7376
18806TIP3    H177909   6.638   1.962   0.518 -1.0434  0.8843  0.6475
18806TIP3    H277910   6.511   1.885   0.488 -0.0142 -1.0853  1.1404
18807TIP3   OH277911   3.830   2.775  13.859  0.1817 -0.0393  0.2944
18807TIP3    H177912   3.888   2.807  13.790 -1.0781  0.7670 -0.4228
18807TIP3    H277913   3.802   2.689  13.828  0.7464 -0.2969  0.4943
18808TIP3   OH277914   0.812   4.946   0.365  0.6431  0.3543  0.0784
18808TIP3    H177915   0.724   4.939   0.327  1.0011  0.9449 -0.8883
18808TIP3    H277916   0.821   5.039   0.387  1.4813  0.5444 -0.9902
18809TIP3   OH277917   2.105   3.236  12.444 -0.4487  0.1443 -0.1228
18809TIP3    H177918   2.116   3.318  12.397  1.1475  0.4193  0.6677
18809TIP3    H277919   2.191   3.195  12.442 -1.1508 -1.3706 -0.2339
18810TIP3   OH277920   4.630   2.253  14.545 -0.1546  0.6881  0.2005
18810TIP3    H177921   4.630   2.333  14.597 -4.1225 -0.0851  1.7774
18810TIP3    H277922   4.633   2.182  14.609 -2.0835 -0.3172 -0.7313
18811TIP3   OH277923   1.016   5.887  11.833  0.4491  0.4690 -0.1022
18811TIP3    H177924   1.075   5.916  11.902 -1.2118  0.2700  1.4757
18811TIP3    H277925   1.001   5.794  11.852  1.1940 -0.0084 -1.6910
18812TIP3   OH277926   3.507   6.508   1.848  0.0399 -0.4618 -0.1032
18812TIP3    H177927   3.526   6.585   1.795 -1.0441 -1.9334 -2.8278
18812TIP3    H277928   3.586   6.453   1.841 -0.3223 -0.9168 -0.7253
18813TIP3   OH277929   4.748   5.171   2.192  0.1629 -0.0383  0.4198
18813TIP3    H177930   4.822   5.110   2.191  0.5552  0.4356 -0.8985
18813TIP3    H277931   4.769   5.236   2.125 -0.7583  0.9495  1.0559
18814TIP3   OH277932   6.136   6.036  12.193  0.5989  0.1230  0.0417
18814TIP3    H177933   6.204   6.011  12.130  1.7489 -0.8994  1.6191
18814TIP3    H277934   6.173   6.112  12.239 -0.1109  0.6844 -0.2925
18815TIP3   OH277935   5.336   3.358  15.780  0.5563  0.1520 -0.2171
18815TIP3    H177936   5.319   3.359  15.875 -0.0966 -1.1055 -0.3032
18815TIP3    H277937   5.253   3.330  15.742 -0.0343  3.1051 -1.3927
18816TIP3   OH277938   2.520   0.768  12.661  0.4413 -0.0984  0.0938
18816TIP3    H177939   2.527   0.732  12.573  1.5488 -1.8998  0.8620
18816TIP3    H277940   2.539   0.694  12.719 -0.6134  0.9547  1.8612
18817TIP3   OH277941   1.480   3.750  11.931  0.0836  0.1515  0.0280
18817TIP3    H177942   1.412   3.793  11.983  0.1209  1.4816 -0.9825
18817TIP3    H277943   1.518   3.820  11.878  0.8712 -0.9398 -0.8991
18818TIP3   OH277944   0.385   0.878  14.788  0.2145 -0.2107 -0.1232
18818TIP3    H177945   0.392   0.927  14.870 -0.1799 -1.0546  0.4359
18818TIP3    H277946   0.292   0.859  14.780  0.1283  0.6440 -1.2499
18819TIP3   OH277947   1.283   2.137  13.439  0.0028  0.0822 -0.0019
18819TIP3    H177948   1.340   2.194  13.491  1.1037 -0.0337 -1.0231
18819TIP3    H277949   1.302   2.049  13.470  0.1012  0.0751 -0.0814
18820TIP3   OH277950   4.078   5.131   4.759  0.5506 -0.1972 -0.1426
18820TIP3    H177951   3.989   5.158   4.778  0.0920 -0.8731 -1.2296
18820TIP3    H277952   4.119   5.119   4.845 -1.1098 -2.2253  0.4404
18821TIP3   OH277953   4.491   1.781   6.485 -0.2283 -0.5608 -0.2692
18821TIP3    H177954   4.397   1.787   6.468 -0.2414  1.0210  0.1848
18821TIP3    H277955   4.528   1.858   6.442  0.8445 -1.0690 -0.2932
18822TIP3   OH277956   4.755   1.615  12.197 -0.1481 -0.0292 -0.4291
18822TIP3    H177957   4.796   1.662  12.125 -2.7006  1.2193 -1.1453
18822TIP3    H277958   4.764   1.674  12.272  1.1949 -0.7046 -0.0099
18823TIP3   OH277959   2.818   0.910  15.069 -0.6723  0.1623  0.2724
18823TIP3    H177960   2.908   0.916  15.099 -0.3039  1.6568 -0.9928
18823TIP3    H277961   2.804   0.816  15.054  0.3232 -0.1988  1.4249
18824TIP3   OH277962   0.714   5.314  14.518 -0.1617 -0.2358 -0.5776
18824TIP3    H177963   0.739   5.379  14.584 -0.6387  0.3711 -0.9799
18824TIP3    H277964   0.757   5.342  14.438 -1.7738  0.6253 -1.1944
18825TIP3   OH277965   2.438   1.740  16.180  0.0645  0.1697  0.1193
18825TIP3    H177966   2.468   1.749  16.271  1.4059 -1.2704 -0.1440
18825TIP3    H277967   2.361   1.683  16.186  2.8518 -4.0107  0.0595
18826TIP3   OH277968   0.016   0.536   5.984  0.7756  0.0053 -0.3356
18826TIP3    H177969   0.001   0.570   6.072  1.7373  0.5077 -0.3570
18826TIP3    H277970  -0.071   0.506   5.956  0.2701  0.6783  0.4278
18827TIP3   OH277971   5.562   2.497   2.262  0.2491 -0.3477 -0.1444
18827TIP3    H177972   5.569   2.434   2.191  0.5036 -0.4261 -0.0491
18827TIP3    H277973   5.484   2.470   2.311  0.9054 -1.1735  0.4699
18828TIP3   OH277974   2.982   6.084  13.086 -0.1421 -0.3536 -0.3681
18828TIP3    H177975   2.915   6.086  13.154  1.0300  1.8520  0.8645
18828TIP3    H277976   2.938   6.049  13.009 -2.1405 -0.8101  0.9130
18829TIP3   OH277977   3.196   0.875   4.413 -0.3001 -0.3790  0.0298
18829TIP3    H177978   3.281   0.891   4.371  0.2527 -0.7373  0.9799
18829TIP3    H277979   3.167   0.962   4.443  0.5149 -0.4580  1.1234
18830TIP3   OH277980   1.277   3.003   2.236  0.0443  0.1415  0.0453
18830TIP3    H177981   1.363   3.046   2.233  0.4969 -0.7762 -1.4998
18830TIP3    H277982   1.291   2.920   2.190 -1.8107  0.2281 -0.7446
18831TIP3   OH277983   1.781   0.743   4.137 -0.1369 -0.0861  0.0744
18831TIP3    H177984   1.849   0.788   4.188 -2.1295  4.1757 -0.5716
18831TIP3    H277985   1.827   0.713   4.058  1.2283  2.0220 -0.0248
18832TIP3   OH277986   2.578   1.642   1.367 -0.3665  0.3286 -0.3369
18832TIP3    H177987   2.488   1.664   1.343 -0.2787 -0.0091 -0.9910
18832TIP3    H277988   2.630   1.710   1.325 -0.3276  0.6367  0.2046
18833TIP3   OH277989   3.041   5.994  14.012  0.5352  0.2520  0.1217
18833TIP3    H177990   2.969   5.942  14.048  1.2011  1.2100  3.1024
18833TIP3    H277991   3.002   6.078  13.989  0.5312  0.4400  0.8214
18834TIP3   OH277992   4.034   4.957  16.389  0.5420  0.7604  0.2411
18834TIP3    H177993   4.046   4.990  16.477  0.3942 -1.6677  1.2626
18834TIP3    H277994   4.104   4.998  16.338  0.5650  2.2791  1.4398
18835TIP3   OH277995   2.237   2.760   5.179  0.7415  0.0806  0.2321
18835TIP3    H177996   2.320   2.768   5.225  0.2417  0.9784  1.0291
18835TIP3    H277997   2.260   2.727   5.092  1.6504 -2.2884  1.3151
18836TIP3   OH277998   4.394   0.169  16.266  0.2793 -0.2754 -0.3868
18836TIP3    H177999   4.489   0.161  16.264  0.3413  0.5098 -0.6579
18836TIP3    H278000   4.376   0.229  16.338 -0.2331 -3.1376  2.0852
18837TIP3   OH278001   5.191   4.009  12.392 -0.0308 -0.4518  0.0726
18837TIP3    H178002   5.138   3.932  12.413 -0.3899 -0.1559  0.2811
18837TIP3    H278003   5.223   3.993  12.303 -1.3782 -0.1577 -0.4930
18838TIP3   OH278004   2.782   1.448   1.374  0.3289  0.1187  0.4112
18838TIP3    H178005   2.865   1.483   1.406  0.4676 -0.0739  0.2637
18838TIP3    H278006   2.720   1.520   1.385 -0.3935 -0.8397  4.0004
18839TIP3   OH278007   3.146   4.978  16.558 -0.8056  0.6458  0.6280
18839TIP3    H178008   3.209   5.015  16.496  0.1041  0.1048  1.2189
18839TIP3    H278009   3.197   4.959  16.636 -1.0101 -2.5495  0.1372
18840TIP3   OH278010   6.096   0.576   1.215 -0.1700 -0.1389 -0.0889
18840TIP3    H178011   6.075   0.522   1.139  1.1697 -0.5897 -0.1686
18840TIP3    H278012   6.021   0.564   1.274  0.5700 -3.0876  0.4222
18841TIP3   OH278013   6.343   3.026   3.929  0.2981  0.5091  0.0166
18841TIP3    H178014   6.305   3.111   3.949  0.3805  0.6475 -0.4082
18841TIP3    H278015   6.273   2.977   3.886 -0.0009  0.0731  0.9851
18842TIP3   OH278016   5.393   1.934   5.096  0.3079  0.3846 -0.1869
18842TIP3    H178017   5.306   1.943   5.057 -0.0440  0.6801  0.6302
18842TIP3    H278018   5.376   1.933   5.190  1.2193  0.7891 -0.0102
18843TIP3   OH278019   0.577   0.556   2.739  0.6789 -0.0443  1.1374
18843TIP3    H178020   0.515   0.534   2.670  1.6166 -1.9754  0.8358
18843TIP3    H278021   0.526   0.555   2.820 -0.5597  2.8233  0.5022
18844TIP3   OH278022   2.581   6.042  12.833  0.2992 -0.3473 -0.6194
18844TIP3    H178023   2.611   6.103  12.765 -1.3782 -0.5345 -1.5727
18844TIP3    H278024   2.535   5.973  12.785 -0.4774 -0.7539  0.6649
18845TIP3   OH278025   5.426   6.050  16.063 -0.7958 -0.3782  0.0287
18845TIP3    H178026   5.401   6.044  15.971 -0.9794  0.7829 -0.0213
18845TIP3    H278027   5.381   5.977  16.105 -0.6304 -0.9794 -0.8151
18846TIP3   OH278028   4.910   5.734   3.939 -0.2307 -0.7765  0.1147
18846TIP3    H178029   4.974   5.684   3.889  2.0872 -0.0415  2.1219
18846TIP3    H278030   4.942   5.729   4.030 -3.7240 -1.3785  1.4822
18847TIP3   OH278031   6.602   0.900   2.825 -0.4174  0.1523 -0.3498
18847TIP3    H178032   6.623   0.845   2.750 -0.4330  2.3861 -2.1051
18847TIP3    H278033   6.637   0.853   2.901  2.8082 -0.5692 -2.1196
18848TIP3   OH278034   3.950   1.410  15.449  0.2280 -0.3552  0.6626
18848TIP3    H178035   3.884   1.412  15.518  0.5399 -1.0989  0.9996
18848TIP3    H278036   3.955   1.318  15.423  0.5545 -0.1812  0.0776
18849TIP3   OH278037   4.794   1.645  11.202 -0.1527 -0.3221 -0.3862
18849TIP3    H178038   4.778   1.726  11.153 -0.9348  0.2704  0.8048
18849TIP3    H278039   4.751   1.577  11.149 -0.6359  0.2444 -0.7423
18850TIP3   OH278040   6.392   0.749   3.849 -0.1181 -0.4455  0.1652
18850TIP3    H178041   6.443   0.723   3.926  1.9508 -0.4876 -1.1413
18850TIP3    H278042   6.403   0.844   3.845 -0.5963 -0.3878  0.1517
18851TIP3   OH278043   1.162   4.938  15.090  0.4241  0.5356  0.2407
18851TIP3    H178044   1.169   4.969  15.000  1.5716 -0.9918 -0.2417
18851TIP3    H278045   1.214   5.000  15.141 -1.3196  2.1932  0.1247
18852TIP3   OH278046   4.704   6.057  10.992  0.1402 -0.5144 -0.0136
18852TIP3    H178047   4.753   6.133  10.960 -1.3737  1.2628  1.5894
18852TIP3    H278048   4.688   6.004  10.915 -0.1059  1.6353 -1.5299
18853TIP3   OH278049   1.926   6.087  11.402 -0.7725 -0.1295  0.2913
18853TIP3    H178050   2.022   6.092  11.408 -0.8708  2.8545  0.7199
18853TIP3    H278051   1.902   6.018  11.463  1.0159  0.2113  1.4542
18854TIP3   OH278052   4.097   4.389  12.655 -0.4634  0.3074  0.1477
18854TIP3    H178053   4.088   4.455  12.723 -1.2717  0.0337  0.3149
18854TIP3    H278054   4.186   4.354  12.667 -1.0173 -0.6296  1.8795
18855TIP3   OH278055   6.475   5.289  15.046 -0.1789 -0.1339  0.4102
18855TIP3    H178056   6.457   5.223  14.979  1.2487 -1.3072  1.1268
18855TIP3    H278057   6.495   5.239  15.125 -0.5488  1.1975  1.3809
18856TIP3   OH278058   2.947   6.744  11.804 -0.4082 -0.0655  0.5594
18856TIP3    H178059   2.906   6.743  11.890 -2.4473 -3.3301 -0.2505
18856TIP3    H278060   2.874   6.733  11.743  0.9360  2.3821 -1.6901
18857TIP3   OH278061   4.003   6.457   0.589  0.2883  0.0426 -0.8383
18857TIP3    H178062   3.909   6.467   0.578  0.4087  1.6438 -0.6020
18857TIP3    H278063   4.041   6.498   0.511  0.7888 -1.2022 -1.2728
18858TIP3   OH278064   2.785   6.594  16.139  0.0308 -0.6268 -0.3152
18858TIP3    H178065   2.798   6.500  16.150  1.7618 -0.2549  1.0947
18858TIP3    H278066   2.838   6.617  16.063  0.6943 -0.5637  0.1660
18859TIP3   OH278067   3.138   3.403  11.422  0.2907  0.1096 -0.0495
18859TIP3    H178068   3.067   3.397  11.358  1.5612  1.2964 -1.6778
18859TIP3    H278069   3.101   3.367  11.503 -0.9581 -2.8861 -1.7878
18860TIP3   OH278070   3.406   6.028   0.694  0.2913 -0.2381  0.0829
18860TIP3    H178071   3.471   6.055   0.630  0.5094  1.7038  1.0399
18860TIP3    H278072   3.457   5.986   0.764  0.5857  1.2697  0.8256
18861TIP3   OH278073   1.000   4.258   1.002 -0.2185 -0.1168  0.2522
18861TIP3    H178074   0.937   4.204   0.955  1.7026 -0.8257 -1.6523
18861TIP3    H278075   0.989   4.346   0.966 -1.4282  0.2125  1.3558
18862TIP3   OH278076   6.522   4.057   1.818 -0.5402  0.0566  0.1142
18862TIP3    H178077   6.600   4.075   1.872 -0.9048 -0.8932  0.9828
18862TIP3    H278078   6.448   4.073   1.877 -0.9609 -0.5195 -0.2564
18863TIP3   OH278079   3.346   3.094   3.848  0.5429 -0.1287  0.1501
18863TIP3    H178080   3.428   3.102   3.799  0.8619  1.0937  0.8426
18863TIP3    H278081   3.364   3.136   3.932 -0.3030 -1.3047  0.9456
18864TIP3   OH278082   4.023   0.727  15.360  0.2580  0.1423 -0.8153
18864TIP3    H178083   4.022   0.739  15.455 -0.2222 -2.4181 -0.4128
18864TIP3    H278084   4.114   0.706  15.340  0.4524  1.1345 -1.0187
18865TIP3   OH278085   6.062   3.357  12.474 -0.0631  0.0116 -0.5047
18865TIP3    H178086   6.048   3.445  12.439  0.6360  0.1370 -0.4838
18865TIP3    H278087   6.128   3.369  12.542 -1.7802 -0.1396  1.2744
18866TIP3   OH278088   1.383   4.746  13.028 -0.2103  0.2786 -0.5226
18866TIP3    H178089   1.360   4.745  12.935  0.0909  0.5328 -0.5991
18866TIP3    H278090   1.440   4.670  13.040  1.1997  1.2453 -0.9162
18867TIP3   OH278091   6.561   5.278  16.028  0.0197 -0.0221  0.2420
18867TIP3    H178092   6.522   5.325  16.101  1.6035  0.4362  0.8393
18867TIP3    H278093   6.566   5.187  16.057 -0.2822 -0.0279  0.2819
18868TIP3   OH278094   6.111   0.985  15.059  0.4126  0.5197 -0.0571
18868TIP3    H178095   6.162   0.908  15.084  0.6264  0.4517 -0.6822
18868TIP3    H278096   6.176   1.052  15.042  0.3081  0.4235 -0.8950
18869TIP3   OH278097   5.797   2.827   3.266 -0.5850  0.0260 -0.4575
18869TIP3    H178098   5.814   2.773   3.189  0.8684 -0.1889 -0.0216
18869TIP3    H278099   5.869   2.890   3.267 -0.3081 -0.2656  0.9594
18870TIP3   OH278100   0.092   2.191  13.877  0.2112 -0.1557 -0.2457
18870TIP3    H178101   0.132   2.145  13.803 -1.5656 -0.5521 -1.0091
18870TIP3    H278102   0.142   2.162  13.953  0.5461 -1.6097 -0.9873
18871TIP3   OH278103   1.207   5.217   0.353  0.3600 -0.0462  0.4208
18871TIP3    H178104   1.218   5.231   0.259 -1.8125  0.2579  0.1665
18871TIP3    H278105   1.262   5.285   0.394  2.3190 -0.9595 -0.5469
18872TIP3   OH278106   2.629   2.570  14.831  0.5105  0.3166  0.2741
18872TIP3    H178107   2.660   2.644  14.883  0.5662 -0.7696  1.8564
18872TIP3    H278108   2.705   2.541  14.782  1.1586 -0.1860  1.5203
18873TIP3   OH278109   6.728   3.892  11.979  0.0207 -0.4908  1.2677
18873TIP3    H178110   6.747   3.943  11.900 -2.5472 -0.9108  0.2892
18873TIP3    H278111   6.780   3.812  11.968  0.9911  0.1715  0.8554
18874TIP3   OH278112   2.210   4.551   0.904  0.2273 -0.1351 -0.2244
18874TIP3    H178113   2.187   4.556   0.812 -0.9933 -1.8373 -0.0523
18874TIP3    H278114   2.214   4.458   0.924  0.3497  0.1913  1.4771
18875TIP3   OH278115   0.917   5.393  13.352  0.3913  0.1451  0.0708
18875TIP3    H178116   0.840   5.415  13.300 -0.1152 -1.8091 -0.1138
18875TIP3    H278117   0.986   5.449  13.319 -1.5075  4.2975  2.2730
18876TIP3   OH278118   0.356   2.227   4.887  0.3629 -0.3652  0.3222
18876TIP3    H178119   0.360   2.323   4.881  1.8699 -0.4912 -2.0927
18876TIP3    H278120   0.275   2.204   4.840  1.2258 -0.3404 -1.2333
18877TIP3   OH278121   1.287   4.455  11.626 -0.7485  0.1081  0.4343
18877TIP3    H178122   1.336   4.517  11.572 -1.4220  0.0568 -0.2576
18877TIP3    H278123   1.353   4.395  11.660 -0.0687  1.2576  1.2149
18878TIP3   OH278124   3.159   1.989   2.867  0.4687 -0.0527  0.1228
18878TIP3    H178125   3.224   1.943   2.920 -0.7770  0.3774  2.1482
18878TIP3    H278126   3.086   1.927   2.859 -0.0868  0.5405  0.4812
18879TIP3   OH278127   2.294   6.331   3.258  0.2034  0.2698 -0.5788
18879TIP3    H178128   2.309   6.347   3.165  1.7752 -1.8238 -0.7678
18879TIP3    H278129   2.357   6.387   3.303 -0.7113  1.4530 -0.7362
18880TIP3   OH278130   4.662   4.299  11.129 -0.3283  0.7202  0.3529
18880TIP3    H178131   4.670   4.314  11.035 -0.1332 -0.1251  0.2240
18880TIP3    H278132   4.570   4.313  11.148 -0.2692  1.4320  0.1405
18881TIP3   OH278133   3.033   3.286   6.226 -0.4741 -0.2571  0.0286
18881TIP3    H178134   3.050   3.339   6.304 -0.0084 -0.4412  0.0572
18881TIP3    H278135   3.007   3.200   6.261  1.3772 -0.8580 -0.0004
18882TIP3   OH278136   2.866   4.769  13.833 -0.2521  0.6067  0.5066
18882TIP3    H178137   2.852   4.767  13.738  1.9882  1.4704  0.1045
18882TIP3    H278138   2.831   4.853  13.861 -2.5722 -0.3760  0.8191
18883TIP3   OH278139   5.618   6.260  14.247 -0.5414  0.0693 -0.0401
18883TIP3    H178140   5.654   6.348  14.242  1.9345 -0.9167 -2.0970
18883TIP3    H278141   5.694   6.204  14.264 -2.1558 -1.6503  2.1739
18884TIP3   OH278142   4.055   1.450   2.694  0.1551  0.1222 -0.8862
18884TIP3    H178143   4.034   1.433   2.786 -2.7540 -1.0810 -1.6457
18884TIP3    H278144   4.029   1.541   2.679 -1.0965 -0.2135 -0.8867
18885TIP3   OH278145   3.926   5.185   1.677 -0.0226 -0.7891  0.5535
18885TIP3    H178146   3.850   5.215   1.727  0.1230 -0.4382  0.5633
18885TIP3    H278147   4.000   5.233   1.714  0.2133 -1.1674  0.5768
18886TIP3   OH278148   0.869   6.410   2.426 -0.1057  0.4264 -0.0493
18886TIP3    H178149   0.885   6.436   2.517 -2.1644  0.5565  0.3173
18886TIP3    H278150   0.957   6.403   2.388  0.7501  2.0572  1.4590
18887TIP3   OH278151   3.326   1.387   5.173  0.1892  0.1672 -0.6838
18887TIP3    H178152   3.347   1.466   5.123 -0.8379  0.3327 -0.8594
18887TIP3    H278153   3.412   1.356   5.204  0.8582  0.0514 -2.5365
18888TIP3   OH278154   5.414   1.477   1.534 -0.3713 -0.5419 -0.0008
18888TIP3    H178155   5.487   1.538   1.545 -0.8574  0.2866 -1.1797
18888TIP3    H278156   5.395   1.446   1.623 -1.0032  2.0759  0.8480
18889TIP3   OH278157   4.221   2.013   3.301  0.0155  0.3642 -0.7225
18889TIP3    H178158   4.199   2.062   3.380  1.0373  1.3983 -1.0573
18889TIP3    H278159   4.186   2.067   3.230 -0.0849 -0.1009 -1.0277
18890TIP3   OH278160   5.489   5.863   2.815  0.1323 -0.1175  0.0644
18890TIP3    H178161   5.554   5.809   2.772 -0.4333 -1.0545  0.3437
18890TIP3    H278162   5.529   5.886   2.899  0.0148 -0.8982  0.3417
18891TIP3   OH278163   0.580   3.531   5.788 -0.0898  0.1600  0.9960
18891TIP3    H178164   0.639   3.556   5.717  0.7183 -1.1375  1.1568
18891TIP3    H278165   0.537   3.451   5.757  0.6709 -0.7376  2.1158
18892TIP3   OH278166   5.268   2.355  12.562 -0.0025  0.0907 -0.0166
18892TIP3    H178167   5.282   2.268  12.599  1.4522  0.2658 -0.1104
18892TIP3    H278168   5.191   2.345  12.506  0.0452 -1.0838  0.1095
18893TIP3   OH278169   6.628   2.214  13.075  0.3050 -0.9403 -0.8434
18893TIP3    H178170   6.562   2.259  13.022 -1.2799  0.6260  2.2337
18893TIP3    H278171   6.578   2.162  13.137  1.9896 -0.8845  0.6473
18894TIP3   OH278172   0.884   0.833   3.650  0.1841 -0.1062 -0.0345
18894TIP3    H178173   0.842   0.794   3.572 -0.9709 -0.3084  0.6574
18894TIP3    H278174   0.843   0.919   3.658 -0.5809 -0.5496  1.0068
18895TIP3   OH278175   5.523   4.954  16.428 -0.3455  0.6227  1.2020
18895TIP3    H178176   5.434   4.984  16.444 -1.3725 -1.4766 -0.0655
18895TIP3    H278177   5.561   5.020  16.369 -1.5079  0.9291  0.7704
18896TIP3   OH278178   3.777   0.836   4.131  0.1529  0.5577  0.0537
18896TIP3    H178179   3.787   0.926   4.100  2.2447 -0.5588 -3.0002
18896TIP3    H278180   3.791   0.782   4.053 -1.5327 -2.4536  1.6380
18897TIP3   OH278181   3.319   5.908   2.704  0.8274 -0.1301  0.1114
18897TIP3    H178182   3.250   5.954   2.752  0.7857  0.9235 -0.9156
18897TIP3    H278183   3.381   5.977   2.679  1.7684 -0.9203  0.1872
18898TIP3   OH278184   3.174   2.815   2.667  0.0198 -0.1394  0.2183
18898TIP3    H178185   3.213   2.899   2.690 -0.1485 -0.5961  2.3265
18898TIP3    H278186   3.247   2.763   2.632 -0.0029  1.0504 -1.7194
18899TIP3   OH278187   1.403   5.780  14.476  0.4529  0.0332 -0.0408
18899TIP3    H178188   1.348   5.709  14.442 -0.3386  1.2394 -1.3907
18899TIP3    H278189   1.449   5.741  14.550  0.9557 -2.2337 -1.4430
18900TIP3   OH278190   6.657   3.812  16.769  0.5312 -0.6439  0.3771
18900TIP3    H178191   6.569   3.849  16.762  1.3740  1.2806 -0.6869
18900TIP3    H278192   6.686   3.802  16.678  1.7815 -0.2944  0.7226
18901TIP3   OH278193   1.224   3.093  13.930 -0.8390 -0.1955  0.3955
18901TIP3    H178194   1.315   3.100  13.962  0.1666 -0.3473 -2.1942
18901TIP3    H278195   1.183   3.175  13.959  0.5359  0.5028  0.4855
18902TIP3   OH278196   0.095   2.104  11.832  0.1275 -0.1945 -0.1162
18902TIP3    H178197   0.128   2.071  11.916 -1.9686 -1.7951  0.1535
18902TIP3    H278198   0.149   2.181  11.815  2.3023 -1.2568  1.4260
18903TIP3   OH278199   4.221   0.877  13.625  0.5061 -0.0593  0.2665
18903TIP3    H178200   4.314   0.854  13.628  0.3474 -0.6201  1.5754
18903TIP3    H278201   4.187   0.849  13.710 -0.8083  0.3770 -0.0983
18904TIP3   OH278202   3.696   3.580   6.232  0.4953 -1.2900 -0.0260
18904TIP3    H178203   3.635   3.511   6.208 -1.0430  0.1606 -0.5359
18904TIP3    H278204   3.650   3.661   6.210  2.0127 -0.0761  1.0159
18905TIP3   OH278205   2.720   2.663  16.247  0.4817 -0.1945  0.0911
18905TIP3    H178206   2.756   2.709  16.171 -0.2169  0.0115 -0.1168
18905TIP3    H278207   2.661   2.725  16.288  1.1759 -0.1537  1.0653
18906TIP3   OH278208   2.983   6.692  15.896  0.1431  0.1470  0.2426
18906TIP3    H178209   2.987   6.698  15.801 -0.6837  0.7211  0.2267
18906TIP3    H278210   3.021   6.773  15.928  0.4283 -0.0478  0.4045
18907TIP3   OH278211   3.186   1.689  14.302  0.1081 -0.3547  0.3307
18907TIP3    H178212   3.275   1.700  14.269 -0.2591 -0.0227 -0.5905
18907TIP3    H278213   3.131   1.697  14.225 -0.7803  0.3541  1.0096
18908TIP3   OH278214   6.796   6.122   4.509 -0.1002 -0.0557 -0.3429
18908TIP3    H178215   6.850   6.165   4.575  0.3780  0.0988 -0.8349
18908TIP3    H278216   6.854   6.109   4.435 -0.6416 -0.2150 -0.7436
18909TIP3   OH278217   4.784   4.359  14.152 -0.2211  0.5536 -0.0883
18909TIP3    H178218   4.844   4.434  14.158 -0.1887  0.4186  1.7016
18909TIP3    H278219   4.782   4.323  14.240 -0.1336 -1.6691 -0.9286
18910TIP3   OH278220   2.786   0.308   3.316 -0.4161  0.3923  0.2236
18910TIP3    H178221   2.768   0.231   3.370 -0.3726  0.3295  0.1492
18910TIP3    H278222   2.778   0.382   3.376  0.0657  0.2910  0.4137
18911TIP3   OH278223   3.508   2.453   0.885  0.2004 -0.8032  0.7333
18911TIP3    H178224   3.496   2.547   0.871  2.8026 -0.4015  0.8041
18911TIP3    H278225   3.452   2.433   0.960 -0.3734  0.6865  0.7390
18912TIP3   OH278226   1.274   1.204  16.426  0.0398  0.0847  0.6787
18912TIP3    H178227   1.283   1.231  16.335  0.6075 -0.4017  0.5872
18912TIP3    H278228   1.283   1.109  16.424 -2.0424 -0.1624  0.9836
18913TIP3   OH278229   5.801   0.585   2.492 -0.7720  0.0286  0.1075
18913TIP3    H178230   5.842   0.597   2.406 -0.0678  1.0270  0.5463
18913TIP3    H278231   5.757   0.501   2.487  1.8900 -1.4363 -0.2128
18914TIP3   OH278232   4.589   3.992   3.527 -0.5222  0.2487  0.4392
18914TIP3    H178233   4.562   4.028   3.443 -0.7653  1.0776  0.8570
18914TIP3    H278234   4.577   3.898   3.518 -1.4021  0.4046 -0.1594
18915TIP3   OH278235   5.954   3.406   4.540  0.1732 -0.4692  0.4032
18915TIP3    H178236   6.040   3.443   4.520  0.2638 -1.0893 -0.4230
18915TIP3    H278237   5.958   3.317   4.506 -0.5548 -0.7464  1.0128
18916TIP3   OH278238   1.257   6.308   4.149  0.0284 -0.0395 -0.3540
18916TIP3    H178239   1.323   6.350   4.204  0.2378  1.1626 -1.4637
18916TIP3    H278240   1.174   6.323   4.196  0.2354  0.7368 -0.2150
18917TIP3   OH278241   2.375   3.617  14.518 -0.4514  0.0123 -0.1693
18917TIP3    H178242   2.331   3.532  14.511 -0.9902  0.3226 -0.6125
18917TIP3    H278243   2.326   3.664  14.585 -0.9887  0.4736 -0.8814
18918TIP3   OH278244   5.599   2.247   5.762  0.5280  0.0762  0.3597
18918TIP3    H178245   5.670   2.294   5.720  0.4567 -1.7728 -2.0127
18918TIP3    H278246   5.642   2.179   5.814  0.5377 -0.7071 -0.6525
18919TIP3   OH278247   1.361   2.389  15.936  0.3486  0.0994 -0.5551
18919TIP3    H178248   1.294   2.359  15.996  0.5011 -0.6305 -0.7378
18919TIP3    H278249   1.436   2.409  15.992  0.7130 -1.2069 -0.5427
18920TIP3   OH278250   1.171   1.180   5.788 -0.3800 -0.1218 -0.4098
18920TIP3    H178251   1.241   1.240   5.811 -0.4126  0.2187 -1.1817
18920TIP3    H278252   1.178   1.169   5.693 -0.3013 -1.4186 -0.2736
18921TIP3   OH278253   4.106   4.120  17.084  0.3613 -0.5159 -0.2334
18921TIP3    H178254   4.017   4.090  17.070  0.2103 -0.8847  1.4128
18921TIP3    H278255   4.099   4.189  17.150  1.2818 -0.4136 -0.2217
18922TIP3   OH278256   4.930   1.630  14.547  0.0769 -0.0526  0.3597
18922TIP3    H178257   4.979   1.582  14.614 -0.9783 -0.0576  1.1547
18922TIP3    H278258   4.864   1.679  14.596  0.7241  1.7303 -0.4866
18923TIP3   OH278259   2.813   3.838   1.425 -0.1623  0.1920 -0.9248
18923TIP3    H178260   2.808   3.822   1.519 -2.6550  0.2644 -0.9890
18923TIP3    H278261   2.836   3.754   1.387  1.2610  0.2519 -0.2555
18924TIP3   OH278262   5.578   4.850   3.972  0.4185  0.0552  0.4736
18924TIP3    H178263   5.509   4.910   3.999 -1.0249 -0.3905 -1.8733
18924TIP3    H278264   5.655   4.905   3.960  1.1263  0.3199  4.8307
18925TIP3   OH278265   5.181   2.641   3.867 -0.3545 -0.5668 -0.0823
18925TIP3    H178266   5.247   2.677   3.809 -1.3056 -2.4418 -2.5297
18925TIP3    H278267   5.168   2.551   3.836 -3.3016 -0.6087  0.8928
18926TIP3   OH278268   3.646   5.786   3.427 -0.2134 -0.4882  0.3279
18926TIP3    H178269   3.671   5.870   3.390 -0.6738 -1.3560 -2.1209
18926TIP3    H278270   3.550   5.789   3.431 -0.1745 -0.3468  1.7077
18927TIP3   OH278271   2.621   5.377  11.446 -0.4702 -0.0050 -0.0968
18927TIP3    H178272   2.699   5.359  11.498 -1.0660 -0.1831  0.7478
18927TIP3    H278273   2.582   5.454  11.487 -0.5316  0.3256 -0.7609
18928TIP3   OH278274   5.785   2.423   5.243  0.4923  0.3417 -0.1587
18928TIP3    H178275   5.811   2.355   5.304  0.8434 -0.2709 -0.9716
18928TIP3    H278276   5.848   2.417   5.171 -0.5567  0.3074 -1.1098
18929TIP3   OH278277   6.153   6.365   2.277  0.4585 -0.7459 -0.1658
18929TIP3    H178278   6.085   6.399   2.335 -0.2777 -0.2403 -1.2917
18929TIP3    H278279   6.177   6.439   2.222 -1.1546 -1.9038 -2.6562
18930TIP3   OH278280   3.773   0.080  16.180  0.1220  0.1857  0.2074
18930TIP3    H178281   3.713   0.025  16.131 -0.5120  1.2022 -0.1957
18930TIP3    H278282   3.745   0.072  16.272 -0.1959  0.1271  0.1051
18931TIP3   OH278283   4.235   0.469  11.513  0.4344  0.1418  0.4661
18931TIP3    H178284   4.246   0.524  11.590  1.0818  0.4987  0.1306
18931TIP3    H278285   4.187   0.524  11.451 -1.6562 -0.7327  1.2056
18932TIP3   OH278286   5.184   3.942  15.349  0.1594  0.1989 -0.5291
18932TIP3    H178287   5.238   3.949  15.270 -1.7238 -0.4748 -1.9535
18932TIP3    H278288   5.108   3.891  15.321 -0.3627 -0.4360  1.8622
18933TIP3   OH278289   1.343   1.490  14.958 -0.0648 -0.3888 -0.2771
18933TIP3    H178290   1.343   1.551  15.033 -3.5976  0.9698 -1.1755
18933TIP3    H278291   1.336   1.403  14.998 -6.6298  0.3810  1.4628
18934TIP3   OH278292   6.658   1.983  11.940  0.3471  0.5738  0.2497
18934TIP3    H178293   6.616   1.925  11.876  0.3785  0.5066  0.2891
18934TIP3    H278294   6.733   2.019  11.894  2.1034 -1.7223  1.1095
18935TIP3   OH278295   5.539   1.350   5.643  0.8563 -0.3188  0.2870
18935TIP3    H178296   5.599   1.411   5.603  0.8047  0.7359  1.7275
18935TIP3    H278297   5.568   1.343   5.734  1.0977 -2.7584  0.0973
18936TIP3   OH278298   0.798   4.791  11.821 -0.5783 -0.5883  0.0861
18936TIP3    H178299   0.890   4.812  11.839 -0.1566 -1.8280 -0.4997
18936TIP3    H278300   0.798   4.755  11.733 -2.2705  3.2027 -1.6629
18937TIP3   OH278301   0.194   6.075   0.596  0.0895  0.2848  0.5680
18937TIP3    H178302   0.254   6.105   0.528  0.9353  0.1153  1.2296
18937TIP3    H278303   0.145   6.153   0.622  0.6878  0.6247  0.6818
18938TIP3   OH278304   0.568   4.138  12.994  0.1008 -0.0497  0.5447
18938TIP3    H178305   0.569   4.227  13.030  0.0721  0.4048 -0.5353
18938TIP3    H278306   0.475   4.118  12.984  0.0859 -0.5288  1.5347
18939TIP3   OH278307   6.787   1.821  13.957  0.6777  0.6087 -0.6164
18939TIP3    H178308   6.836   1.860  14.029 -0.6153  0.4991  0.3717
18939TIP3    H278309   6.802   1.880  13.883  1.9085  0.8094 -0.2344
18940TIP3   OH278310   1.459   2.933   4.833  0.2700 -0.2764 -0.2386
18940TIP3    H178311   1.429   2.976   4.753 -0.2321 -0.1618  0.0030
18940TIP3    H278312   1.382   2.887   4.866  0.9619 -1.9732 -0.8605
18941TIP3   OH278313   1.528   2.065  13.254  0.3089 -0.5272  0.2650
18941TIP3    H178314   1.446   2.034  13.217  0.9955 -0.4948 -1.4117
18941TIP3    H278315   1.507   2.148  13.296 -0.3956 -0.1368 -0.8204
18942TIP3   OH278316   5.169   6.588   4.472  0.1393 -0.4468  0.1950
18942TIP3    H178317   5.095   6.634   4.510 -0.8446 -0.9157 -1.0910
18942TIP3    H278318   5.173   6.505   4.519  0.1197 -0.2520  0.5452
18943TIP3   OH278319   5.009   6.283   0.912 -0.2099 -0.9719  0.1876
18943TIP3    H178320   4.944   6.251   0.849 -0.1349 -1.4174  0.3368
18943TIP3    H278321   5.075   6.214   0.915  0.8268 -0.0641 -0.7643
18944TIP3   OH278322   0.379   3.775  11.552  0.8506 -0.0891  0.3319
18944TIP3    H178323   0.439   3.746  11.483  0.2317  0.3880 -0.4295
18944TIP3    H278324   0.429   3.768  11.633  1.9386  0.3248 -0.2944
18945TIP3   OH278325   3.257   3.884  13.263 -0.8309 -0.0788  0.4984
18945TIP3    H178326   3.181   3.931  13.297 -0.0539  1.1098  0.6643
18945TIP3    H278327   3.256   3.800  13.307 -0.6269  0.8942  2.4544
18946TIP3   OH278328   1.017   5.387   1.216  0.3498  0.1529  0.0537
18946TIP3    H178329   1.066   5.369   1.136  0.3684 -0.0247  0.1053
18946TIP3    H278330   1.078   5.436   1.271  0.4022  0.1029  0.0393
18947TIP3   OH278331   1.181   2.737   6.794  0.3444 -0.5632  0.3516
18947TIP3    H178332   1.203   2.766   6.706  0.1017 -0.2989  0.3760
18947TIP3    H278333   1.214   2.647   6.799  2.5236  0.2081  0.8180
18948TIP3   OH278334   6.025   3.587   2.463 -0.2518  0.6875 -0.2839
18948TIP3    H178335   6.057   3.588   2.553  1.2970  1.5678 -0.8140
18948TIP3    H278336   6.058   3.668   2.424 -0.2048 -0.0508 -1.8682
18949TIP3   OH278337   1.630   1.287   0.912 -0.1385 -0.2891  0.6578
18949TIP3    H178338   1.645   1.358   0.975 -1.0415 -2.1925  3.2127
18949TIP3    H278339   1.534   1.279   0.908 -0.1682  0.4256 -1.8603
18950TIP3   OH278340   2.624   3.309  17.091  0.4699 -0.5646  0.1178
18950TIP3    H178341   2.577   3.259  17.157  1.9379 -0.5192  1.2458
18950TIP3    H278342   2.575   3.294  17.010 -0.3962 -2.0040  0.8716
18951TIP3   OH278343   3.899   3.734  12.252  0.0997 -0.4330 -0.4135
18951TIP3    H178344   3.974   3.792  12.265 -1.5043  2.0332 -1.4714
18951TIP3    H278345   3.893   3.722  12.157 -1.3867  0.2345 -0.4340
18952TIP3   OH278346   3.946   3.104  16.869 -0.5011  0.1837 -0.1105
18952TIP3    H178347   4.015   3.095  16.804 -1.0917 -1.9792 -0.5174
18952TIP3    H278348   3.910   3.016  16.878 -0.7400  0.4925  2.8388
18953TIP3   OH278349   6.770   2.888   3.939  0.2495 -0.3164 -0.4060
18953TIP3    H178350   6.710   2.940   3.992 -0.4485 -2.9598  1.6219
18953TIP3    H278351   6.838   2.859   4.001  3.2842  1.8446 -2.4240
18954TIP3   OH278352   6.747   2.114  14.746 -0.8972  0.2101 -0.0985
18954TIP3    H178353   6.685   2.108  14.818 -0.8724 -0.7348 -0.1465
18954TIP3    H278354   6.693   2.109  14.667 -0.9443  1.4399 -0.1669
18955TIP3   OH278355   3.476   4.407   3.120 -0.0649  0.1354  0.0651
18955TIP3    H178356   3.555   4.458   3.138  1.4221 -0.4550 -3.8400
18955TIP3    H278357   3.466   4.411   3.025 -4.0429 -0.9626  0.2423
18956TIP3   OH278358   2.242   1.270  17.381  0.3041 -0.3388 -0.2105
18956TIP3    H178359   2.251   1.348  17.435 -0.2332 -0.5665  0.2087
18956TIP3    H278360   2.196   1.207  17.436  1.1223 -1.1113 -0.3916
18957TIP3   OH278361   2.786   6.626  15.065 -0.3064  0.3694 -0.2059
18957TIP3    H178362   2.763   6.704  15.115  0.7301  0.4166  0.2226
18957TIP3    H278363   2.839   6.574  15.125 -3.0332 -1.9146  0.4408
18958TIP3   OH278364   3.595   4.354  13.200 -0.2970  0.2193  0.1860
18958TIP3    H178365   3.503   4.368  13.175 -0.7357 -0.7040  1.1488
18958TIP3    H278366   3.606   4.259  13.194  1.3649  0.4946 -2.3329
18959TIP3   OH278367   6.108   4.448   4.522 -0.7863  0.0913  0.2692
18959TIP3    H178368   6.133   4.360   4.550  1.4145  0.2586 -0.9040
18959TIP3    H278369   6.037   4.434   4.460 -1.3858 -0.7254  1.0995
18960TIP3   OH278370   0.046   2.157   4.898  0.1512  0.7190  0.1136
18960TIP3    H178371   0.073   2.193   4.983  0.7349  1.6583 -0.4608
18960TIP3    H278372  -0.025   2.096   4.920  0.7307  0.4569  1.3371
18961TIP3   OH278373   0.782   5.022   4.161 -0.5393  0.1381  0.5924
18961TIP3    H178374   0.705   5.019   4.104  0.5200  0.3755 -0.9062
18961TIP3    H278375   0.774   4.943   4.215 -0.2924 -1.5774 -1.6953
18962TIP3   OH278376   6.498   6.299   3.685 -0.2992  0.5374 -0.1129
18962TIP3    H178377   6.442   6.231   3.721  0.2243 -0.7070 -1.5618
18962TIP3    H278378   6.475   6.378   3.735 -2.9644 -0.0314 -0.2897
18963TIP3   OH278379   0.515   1.254  17.021 -0.3840 -0.1932 -0.1759
18963TIP3    H178380   0.507   1.185  16.955 -0.0747  1.1085 -1.6295
18963TIP3    H278381   0.460   1.325  16.988  2.5826  1.9105 -1.0153
18964TIP3   OH278382   6.694   6.182  16.784  0.4577  0.1872 -0.3059
18964TIP3    H178383   6.682   6.254  16.845  0.0241  1.5776 -1.9354
18964TIP3    H278384   6.786   6.189  16.756 -0.1295  1.6082 -2.1373
18965TIP3   OH278385   5.078   2.427  15.385  0.8056 -0.0001 -0.1135
18965TIP3    H178386   5.110   2.406  15.473  1.8148 -1.4832 -0.8065
18965TIP3    H278387   5.155   2.423  15.329  0.2191  1.1543 -1.0550
18966TIP3   OH278388   0.042   0.513  12.070  0.2900  0.8530 -0.0280
18966TIP3    H178389   0.007   0.550  12.151 -0.0650  2.2515 -0.7897
18966TIP3    H278390   0.081   0.430  12.097 -2.4466 -0.1832  1.0982
18967TIP3   OH278391   1.945   4.157   6.583 -0.4516 -0.2805  0.2268
18967TIP3    H178392   2.038   4.134   6.588 -0.2170  0.5228 -0.2171
18967TIP3    H278393   1.901   4.076   6.557  0.1666 -0.5797  0.1072
18968TIP3   OH278394   2.930   5.633   3.780 -0.0196 -0.1535  0.3411
18968TIP3    H178395   2.898   5.597   3.863 -0.2871 -0.9992 -0.1264
18968TIP3    H278396   2.951   5.724   3.801 -0.2194 -0.3146  1.3044
18969TIP3   OH278397   2.216   0.649   0.274  0.3705 -0.2425 -0.0637
18969TIP3    H178398   2.211   0.587   0.347 -1.7939 -0.3851 -0.2823
18969TIP3    H278399   2.293   0.622   0.225  1.0687 -1.0059  1.3903
18970TIP3   OH278400   1.112   3.051   3.789 -0.4874 -0.3873 -0.2861
18970TIP3    H178401   1.175   3.071   3.858 -3.1575 -1.7449  2.7590
18970TIP3    H278402   1.124   2.957   3.773 -1.0663 -0.4344 -0.4493
18971TIP3   OH278403   6.482   4.983   6.213  0.1124 -0.2179  0.1348
18971TIP3    H178404   6.468   4.911   6.274 -1.5912 -0.5485 -0.5963
18971TIP3    H278405   6.576   5.002   6.220  1.0808 -3.7451 -0.9719
18972TIP3   OH278406   0.712   5.425   4.913  0.0362  0.1656 -0.1245
18972TIP3    H178407   0.696   5.442   5.006 -0.0242 -1.5722  0.2210
18972TIP3    H278408   0.795   5.470   4.895 -1.0210  2.3870  0.1544
18973TIP3   OH278409   4.230   4.746   6.236  0.2500 -0.5023 -0.2737
18973TIP3    H178410   4.319   4.730   6.206 -0.0025 -0.7639 -0.8991
18973TIP3    H278411   4.206   4.667   6.285 -0.0394 -0.9165 -1.0731
18974TIP3   OH278412   0.573   6.425   3.741 -0.5472 -0.0755 -1.4052
18974TIP3    H178413   0.508   6.359   3.715 -1.8317  0.8607 -0.7014
18974TIP3    H278414   0.539   6.507   3.704 -0.5799  0.6795  0.2169
18975TIP3   OH278415   5.308   5.333  15.506 -0.6820 -0.1551  0.3268
18975TIP3    H178416   5.345   5.416  15.534 -1.4818  0.6051 -0.8067
18975TIP3    H278417   5.234   5.318  15.564 -1.5450  0.7746 -0.4893
18976TIP3   OH278418   4.984   4.280   1.739  0.0082 -0.2972 -0.5169
18976TIP3    H178419   5.063   4.322   1.707  0.7433 -0.5555  0.8777
18976TIP3    H278420   4.995   4.188   1.715  1.4331 -0.8609  1.8983
18977TIP3   OH278421   6.618   4.282   6.266 -0.1583  0.0023 -0.0554
18977TIP3    H178422   6.650   4.244   6.348  0.7114  1.1268  0.1450
18977TIP3    H278423   6.609   4.376   6.285  0.6157  0.3763 -1.4041
18978TIP3   OH278424   1.913   4.543   4.710 -0.3870 -0.2289 -0.7846
18978TIP3    H178425   1.954   4.617   4.755 -0.6659  0.7681 -2.1207
18978TIP3    H278426   1.941   4.466   4.760  0.6566  0.6913  0.0931
18979TIP3   OH278427   5.731   1.101   2.920 -0.3150  0.2665  0.3540
18979TIP3    H178428   5.655   1.158   2.913  1.8812  3.2798 -0.8952
18979TIP3    H278429   5.759   1.087   2.829  0.7457 -0.6555  0.7994
18980TIP3   OH278430   5.143   0.078  10.431  0.4500 -0.8938  0.4400
18980TIP3    H178431   5.131  -0.016  10.445 -1.1773 -0.8978 -0.6895
18980TIP3    H278432   5.115   0.118  10.513  0.2816 -1.3546  0.6099
18981TIP3   OH278433   3.977   5.154   2.512 -0.2153  0.3584  0.1636
18981TIP3    H178434   3.912   5.155   2.441 -0.7001 -1.3938  0.5288
18981TIP3    H278435   3.986   5.061   2.534  1.3947  0.6994  1.0738
18982TIP3   OH278436   4.507   2.111   5.720 -0.2833  0.5671  0.3318
18982TIP3    H178437   4.530   2.080   5.633 -0.7544 -2.1167  1.0753
18982TIP3    H278438   4.517   2.035   5.777 -0.6187  2.0545  2.5386
18983TIP3   OH278439   3.069   3.989  15.735  0.0510 -0.3682 -0.0242
18983TIP3    H178440   3.062   3.985  15.830  0.3117 -0.8499 -0.0204
18983TIP3    H278441   3.007   3.923  15.704 -2.2278  1.7171 -0.3128
18984TIP3   OH278442   5.650   4.184  16.141  0.4625 -0.0030  0.2119
18984TIP3    H178443   5.626   4.277  16.136  1.0495  0.1827  0.6920
18984TIP3    H278444   5.597   4.142  16.073  1.0157  0.8663 -0.8115
18985TIP3   OH278445   6.004   4.292  11.762  0.2491 -0.5699  0.1455
18985TIP3    H178446   6.063   4.225  11.728  1.0153  0.5438 -0.7810
18985TIP3    H278447   5.936   4.299  11.695  0.3879 -0.1489  0.0488
18986TIP3   OH278448   2.207   1.650   4.061 -0.3390 -0.2712 -0.4999
18986TIP3    H178449   2.154   1.674   3.985 -0.4430 -1.7508 -0.9246
18986TIP3    H278450   2.189   1.557   4.074  2.0267 -0.7753 -0.5432
18987TIP3   OH278451   4.893   2.689   2.737 -0.2678 -0.0459 -0.0507
18987TIP3    H178452   4.821   2.752   2.729  0.2651  0.3773 -2.6246
18987TIP3    H278453   4.855   2.615   2.784 -1.4779  1.3820  1.3244
18988TIP3   OH278454   0.191   6.227   1.211 -0.2171 -0.3321  0.2581
18988TIP3    H178455   0.280   6.209   1.179  0.7197  2.2928  1.0827
18988TIP3    H278456   0.205   6.254   1.302 -2.2192 -2.4974  1.3069
18989TIP3   OH278457   4.246   3.849  13.071  0.3691  0.0507  0.6218
18989TIP3    H178458   4.190   3.903  13.015  2.0500 -0.5076 -1.7341
18989TIP3    H278459   4.205   3.854  13.158 -2.5541  0.7232 -0.6735
18990TIP3   OH278460   1.285   6.594   3.603 -0.1137 -0.1245  0.5974
18990TIP3    H178461   1.202   6.554   3.578 -0.0596  0.4930 -0.6587
18990TIP3    H278462   1.351   6.540   3.560 -0.0291  1.1264 -0.9046
18991TIP3   OH278463   1.315   4.003  11.401 -0.0615  0.2991  0.2435
18991TIP3    H178464   1.381   4.071  11.417 -2.3064  2.9798 -1.0553
18991TIP3    H278465   1.274   3.989  11.486 -1.0608  2.3303  0.1505
18992TIP3   OH278466   2.412   1.997  10.884  0.3753 -0.1696  0.1305
18992TIP3    H178467   2.449   2.085  10.889  1.1903 -0.5451  1.1687
18992TIP3    H278468   2.318   2.009  10.898  0.4553  0.5434  0.0806
18993TIP3   OH278469   3.625   3.160   3.163  1.0381  0.1259  0.4307
18993TIP3    H178470   3.556   3.114   3.212  2.1277  0.3635  2.2935
18993TIP3    H278471   3.580   3.196   3.087 -1.5141  2.3359  2.7525
18994TIP3   OH278472   3.692   0.898   1.976  0.3203 -0.1790  0.3908
18994TIP3    H178473   3.628   0.874   1.909 -0.1330 -1.0641  1.1107
18994TIP3    H278474   3.754   0.825   1.977  1.0563  0.4423  0.0425
18995TIP3   OH278475   0.889   6.334  14.797 -0.0271 -0.1278  0.1767
18995TIP3    H178476   0.839   6.405  14.839 -0.5699  0.3168 -1.1567
18995TIP3    H278477   0.878   6.259  14.856 -2.3075 -0.0478 -0.0519
18996TIP3   OH278478   0.055   0.226  11.516  0.2114  0.3849 -0.4349
18996TIP3    H178479   0.146   0.205  11.537 -0.1450  0.2323  1.0288
18996TIP3    H278480   0.044   0.317  11.542 -0.0026  0.4685 -0.8061
18997TIP3   OH278481   4.881   1.751   2.263  0.2160 -0.0096 -0.0918
18997TIP3    H178482   4.902   1.838   2.296 -0.0394  0.3188 -0.7819
18997TIP3    H278483   4.838   1.766   2.179 -1.0375 -0.7473  0.3796
18998TIP3   OH278484   2.274   1.970   2.547  0.0791  0.4340 -0.5495
18998TIP3    H178485   2.347   1.930   2.500 -0.4565  0.2623 -1.2592
18998TIP3    H278486   2.197   1.922   2.516 -0.1254 -0.9685  1.9123
18999TIP3   OH278487   5.527   2.529   0.092 -0.1674  0.8066  0.0397
18999TIP3    H178488   5.569   2.449   0.121 -0.7627  0.7306  0.7075
18999TIP3    H278489   5.590   2.569   0.033  0.1224 -0.1657 -0.3276
19000TIP3   OH278490   1.919   4.819  16.639 -0.9723  1.0462 -0.3327
19000TIP3    H178491   1.910   4.864  16.555 -2.0610 -0.8813 -1.3178
19000TIP3    H278492   1.836   4.772  16.651  0.0833 -0.7044  0.5957
19001TIP3   OH278493   6.579   5.845  11.601  0.5629 -0.2838  0.2653
19001TIP3    H178494   6.639   5.800  11.540  0.1499  0.7900 -0.9629
19001TIP3    H278495   6.637   5.878  11.670  1.1954 -0.5228 -0.1351
19002TIP3   OH278496   3.429   1.420  14.837  0.5565  0.6447  0.4116
19002TIP3    H178497   3.352   1.413  14.779 -0.4376 -0.1283  1.7748
19002TIP3    H278498   3.402   1.483  14.904  0.7866 -0.2421  1.3664
19003TIP3   OH278499   0.484   6.270  10.853  0.6984 -0.2599 -0.1612
19003TIP3    H178500   0.435   6.189  10.844  1.0396 -0.3929 -0.8988
19003TIP3    H278501   0.426   6.338  10.820  0.2487 -0.1317  0.8517
19004TIP3   OH278502   2.089   5.537   3.543 -0.4072  0.1476  0.1730
19004TIP3    H178503   2.124   5.486   3.470 -2.3029 -2.1052  0.7083
19004TIP3    H278504   2.166   5.576   3.585  1.3840 -3.2881  0.4244
19005TIP3   OH278505   5.571   2.348   2.713  0.6528 -0.1379  0.2518
19005TIP3    H178506   5.630   2.410   2.755  0.2219  0.5114 -0.0870
19005TIP3    H278507   5.628   2.276   2.685  1.1388  0.0463  0.7514
19006TIP3   OH278508   2.046   2.729   3.858 -0.3663 -0.0175 -0.3688
19006TIP3    H178509   2.114   2.747   3.793 -0.2702  0.6362 -0.0898
19006TIP3    H278510   2.093   2.708   3.938 -0.3819  3.7444  0.8039
19007TIP3   OH278511   3.564   4.596  13.614  0.5679  0.5625  0.2034
19007TIP3    H178512   3.639   4.549  13.578 -0.0893 -2.0919  1.9907
19007TIP3    H278513   3.588   4.613  13.705 -0.9396 -0.4135  0.8365
19008TIP3   OH278514   0.347   1.621   2.304 -0.0635  0.3612  0.1824
19008TIP3    H178515   0.417   1.685   2.287  2.1523 -2.2924 -1.4861
19008TIP3    H278516   0.374   1.576   2.383 -0.3116 -0.1601 -0.0285
19009TIP3   OH278517   6.313   4.719   3.211  0.1851 -0.5881  0.3410
19009TIP3    H178518   6.225   4.697   3.181  0.1247  0.7881 -0.6060
19009TIP3    H278519   6.323   4.671   3.293 -0.9041 -1.8842 -0.2429
19010TIP3   OH278520   4.470   0.230   4.405  0.3251 -0.2907 -0.9552
19010TIP3    H178521   4.451   0.206   4.496 -0.5702  2.3425 -0.3544
19010TIP3    H278522   4.558   0.267   4.408  0.6988 -1.1064 -1.3919
19011TIP3   OH278523   1.138   0.546   5.772 -0.5257 -0.1720 -0.0824
19011TIP3    H178524   1.106   0.459   5.792  1.5514 -1.3016 -1.3395
19011TIP3    H278525   1.159   0.585   5.857 -3.4108  0.0146  0.6693
19012TIP3   OH278526   4.041   4.778   2.362 -0.3658  0.0899 -0.2815
19012TIP3    H178527   4.110   4.841   2.343  0.4736 -0.6804  0.1549
19012TIP3    H278528   3.974   4.795   2.295  1.1972 -0.5951 -2.1246
19013TIP3   OH278529   1.758   2.674  16.265 -0.3618 -0.0119  0.1014
19013TIP3    H178530   1.817   2.732  16.315 -0.6172  2.1442 -1.9323
19013TIP3    H278531   1.816   2.626  16.206 -0.4543  0.7989 -0.6620
19014TIP3   OH278532   5.592   2.961  15.076  0.4800 -0.2606 -0.5536
19014TIP3    H178533   5.557   2.998  15.158  0.6158 -2.6619  0.6851
19014TIP3    H278534   5.517   2.960  15.017 -0.2580 -0.6485  0.3512
19015TIP3   OH278535   5.344   0.451   2.014  0.6404 -0.1113 -0.1436
19015TIP3    H178536   5.378   0.363   2.030  0.4285 -0.3320 -0.8820
19015TIP3    H278537   5.369   0.500   2.092 -0.6328 -1.2176  1.0251
19016TIP3   OH278538   0.573   4.502   2.245  0.0895  0.7560 -0.2959
19016TIP3    H178539   0.630   4.572   2.214  1.1027 -0.3178 -0.9196
19016TIP3    H278540   0.629   4.448   2.300 -0.7931  0.6638  0.5452
19017TIP3   OH278541   3.387   3.237  11.554 -0.4667  0.6758 -0.0684
19017TIP3    H178542   3.430   3.307  11.505 -0.1673 -0.5425 -1.6125
19017TIP3    H278543   3.335   3.283  11.621  0.8502  2.2949 -0.0883
19018TIP3   OH278544   3.283   3.682  14.941  0.4787 -0.2742  0.1649
19018TIP3    H178545   3.201   3.728  14.920  0.4947 -0.7255 -0.9345
19018TIP3    H278546   3.259   3.620  15.010  0.2993  0.8387  1.1495
19019TIP3   OH278547   2.343   5.468  13.501 -0.0961 -0.3130 -0.1113
19019TIP3    H178548   2.300   5.509  13.426  0.9473  1.9357  0.4479
19019TIP3    H278549   2.300   5.382  13.508 -2.4857  0.6759 -1.2680
19020TIP3   OH278550   4.659   1.002  12.670 -0.4849  0.2791  0.1413
19020TIP3    H178551   4.618   1.073  12.720 -0.3542  0.0069  0.6396
19020TIP3    H278552   4.699   0.946  12.736 -1.4968 -0.8495 -0.1755
19021TIP3   OH278553   2.732   1.114  13.199  0.8882  0.1479  0.2625
19021TIP3    H178554   2.768   1.029  13.174 -1.3158 -0.6222 -0.5632
19021TIP3    H278555   2.742   1.118  13.294  2.1513 -0.4611  0.1700
19022TIP3   OH278556   3.083   3.386  13.744 -0.1087 -0.2974  0.2374
19022TIP3    H178557   3.114   3.376  13.834  0.8217 -0.9153 -0.1334
19022TIP3    H278558   3.109   3.474  13.719  0.7009 -0.5495  0.1799
19023TIP3   OH278559   2.796   5.721   2.679 -0.0589 -0.2701  0.4907
19023TIP3    H178560   2.854   5.779   2.729  0.5913 -2.1913  2.0829
19023TIP3    H278561   2.847   5.697   2.601 -0.3088  1.1749 -0.1514
19024TIP3   OH278562   5.338   3.499   1.989  0.3386 -0.2417  0.6790
19024TIP3    H178563   5.261   3.553   2.006  0.3992  0.7227 -1.6954
19024TIP3    H278564   5.407   3.539   2.042 -0.0185  1.0148  0.2290
19025TIP3   OH278565   6.196   1.580  13.653  0.4714  0.2267  0.2373
19025TIP3    H178566   6.168   1.489  13.665  0.7109  0.3917  2.5159
19025TIP3    H278567   6.117   1.626  13.623  0.4525 -0.7680 -1.3393
19026TIP3   OH278568   5.542   3.930   1.887 -0.6630  0.0405  0.4559
19026TIP3    H178569   5.501   4.012   1.915 -1.3167 -0.5669  1.3271
19026TIP3    H278570   5.586   3.897   1.965 -2.0856 -1.4340  0.6773
19027TIP3   OH278571   2.176   2.400   1.209 -0.4958 -0.2887 -0.1354
19027TIP3    H178572   2.107   2.401   1.142  0.6190  0.8915 -1.3264
19027TIP3    H278573   2.193   2.492   1.228 -0.6593 -0.5939  1.6884
19028TIP3   OH278574   5.501   0.250  11.155 -0.0469  0.0216 -0.4293
19028TIP3    H178575   5.514   0.170  11.207  1.0505 -1.1767 -2.3983
19028TIP3    H278576   5.579   0.302  11.171 -0.4150  0.3703  0.2726
19029TIP3   OH278577   2.593   2.242  13.332  0.4640 -0.1551  0.0180
19029TIP3    H178578   2.506   2.202  13.324  0.2870  0.4364 -1.4454
19029TIP3    H278579   2.618   2.227  13.423 -0.5993 -1.5010  0.1294
19030TIP3   OH278580   2.485   3.252  14.195  0.0277  0.7205 -0.2864
19030TIP3    H178581   2.414   3.204  14.238  0.4429  0.4673  0.1285
19030TIP3    H278582   2.561   3.237  14.251  0.7119 -0.0717 -1.3841
19031TIP3   OH278583   1.576   1.561  14.466  0.5213 -0.3688 -0.3235
19031TIP3    H178584   1.506   1.624  14.448  0.5664 -0.2032  0.0789
19031TIP3    H278585   1.620   1.595  14.544  2.3210  0.6277 -1.6658
19032TIP3   OH278586   4.924   1.169  12.506 -0.5971  0.2872 -0.5220
19032TIP3    H178587   4.917   1.263  12.490  0.5629  0.2566 -1.3076
19032TIP3    H278588   4.894   1.157  12.596  0.7713  1.6290  0.1468
19033TIP3   OH278589   5.867   0.362  14.046 -0.3404 -0.1900 -0.0965
19033TIP3    H178590   5.805   0.364  14.119 -1.2821 -0.3820 -0.8658
19033TIP3    H278591   5.822   0.409  13.975 -1.0531 -3.0681 -1.7418
19034TIP3   OH278592   5.535   5.116   2.491  0.0471 -0.2444 -0.0582
19034TIP3    H178593   5.443   5.121   2.468 -0.1560 -0.3495  0.7099
19034TIP3    H278594   5.539   5.055   2.564  1.0413 -2.3096 -1.7311
19035TIP3   OH278595   1.711   1.440  12.622  0.5501 -0.0828  0.1714
19035TIP3    H178596   1.790   1.393  12.593  0.1223 -0.5117 -0.3140
19035TIP3    H278597   1.638   1.383  12.596  0.0336  0.7522 -0.2198
19036TIP3   OH278598   5.216   5.960   5.025 -0.3946 -0.4931  0.2891
19036TIP3    H178599   5.219   6.030   5.090  2.1160 -0.0164 -0.2609
19036TIP3    H278600   5.171   5.888   5.070 -0.7451  0.5905  1.7385
19037TIP3   OH278601   2.048   3.176   0.544  1.0496 -0.1678 -0.0323
19037TIP3    H178602   2.013   3.243   0.603 -0.2536  0.5810 -1.5586
19037TIP3    H278603   1.971   3.132   0.509  1.7216 -0.1345 -1.6605
19038TIP3   OH278604   5.967   2.145   1.700 -0.3840  0.1480  0.0465
19038TIP3    H178605   6.007   2.231   1.690 -0.6719  0.2934  0.1352
19038TIP3    H278606   5.915   2.133   1.620 -2.7446  1.3410  1.2831
19039TIP3   OH278607   4.367   2.235  16.144 -0.0889 -0.2310  0.1390
19039TIP3    H178608   4.357   2.253  16.238  0.8491  1.6960 -0.0785
19039TIP3    H278609   4.391   2.142  16.140  1.9590  0.1293  1.9976
19040TIP3   OH278610   4.380   2.508   3.736 -0.3470 -0.2882  0.2407
19040TIP3    H178611   4.445   2.439   3.746  2.2306  2.0550  0.9653
19040TIP3    H278612   4.432   2.587   3.719 -3.2132  1.0533 -3.7471
19041TIP3   OH278613   2.996   0.928  11.872  0.2216  0.2666  0.1756
19041TIP3    H178614   2.956   0.849  11.837 -0.5483 -0.0114  1.6303
19041TIP3    H278615   2.931   0.963  11.933  1.7972  0.2992  1.9136
19042TIP3   OH278616   4.355   2.908  14.432  0.0188 -0.3880  0.0694
19042TIP3    H178617   4.405   2.829  14.452  0.1724 -0.4246 -0.4297
19042TIP3    H278618   4.421   2.975  14.415 -0.0979  0.3833  2.3951
19043TIP3   OH278619   3.271   1.805  16.363  0.5287  0.4078  0.1600
19043TIP3    H178620   3.179   1.833  16.360  0.4787  0.3610  0.9120
19043TIP3    H278621   3.299   1.825  16.453  1.2115  0.2894 -0.0208
19044TIP3   OH278622   4.955   0.464  14.338 -0.1239 -0.2800 -0.2923
19044TIP3    H178623   4.976   0.497  14.251  0.4987 -0.5583 -0.2513
19044TIP3    H278624   4.878   0.409  14.325  1.6143 -2.7085 -1.2099
19045TIP3   OH278625   6.285   1.217   6.184 -0.4521 -0.7497  0.8050
19045TIP3    H178626   6.313   1.304   6.156 -1.4122 -0.4302  0.8002
19045TIP3    H278627   6.363   1.162   6.175  0.2078  0.1447  0.9816
19046TIP3   OH278628   4.077   1.706  11.955 -0.2207 -0.4459  0.3888
19046TIP3    H178629   4.000   1.650  11.958  0.3704 -1.3461 -0.5945
19046TIP3    H278630   4.118   1.687  11.871  1.2482 -0.2302  1.0206
19047TIP3   OH278631   4.568   0.620  17.320  0.4602 -0.0136  0.2215
19047TIP3    H178632   4.647   0.675  17.320  0.7994 -0.4658 -1.2083
19047TIP3    H278633   4.513   0.658  17.389  1.7513  0.5406  0.9950
19048TIP3   OH278634   5.890   5.293  16.377 -0.5333 -0.2377  0.2805
19048TIP3    H178635   5.799   5.304  16.350 -0.6255  1.2030  1.0734
19048TIP3    H278636   5.894   5.330  16.465  0.8506 -0.0795  0.1795
19049TIP3   OH278637   3.155   3.721   5.153  0.1818 -0.7806 -0.1439
19049TIP3    H178638   3.126   3.632   5.132  2.1955 -1.6073  0.2842
19049TIP3    H278639   3.142   3.729   5.247 -2.6161  0.4789 -0.5430
19050TIP3   OH278640   1.782   5.547  17.080  0.0768  0.3513  0.0028
19050TIP3    H178641   1.812   5.569  16.991 -0.3808 -1.2773 -0.5992
19050TIP3    H278642   1.862   5.550  17.133  0.3038  1.6437 -0.3883
19051TIP3   OH278643   6.161   1.697  14.711  0.2275 -0.1256  1.0448
19051TIP3    H178644   6.129   1.755  14.643 -0.3943 -0.3836  1.1117
19051TIP3    H278645   6.099   1.623  14.712 -0.8780  0.7260  3.0987
19052TIP3   OH278646   0.078   4.875   3.158 -0.0488  0.1547  0.1162
19052TIP3    H178647  -0.018   4.875   3.157 -0.0654  1.6031  0.0596
19052TIP3    H278648   0.100   4.869   3.251 -0.1942 -0.2218  0.1276
19053TIP3   OH278649   6.017   4.332  13.090 -0.1363  0.1651  0.3965
19053TIP3    H178650   6.097   4.287  13.116 -0.2373 -1.1667 -1.4060
19053TIP3    H278651   5.950   4.264  13.090 -0.7360  0.7381 -0.4508
19054TIP3   OH278652   5.459   2.116   2.313  0.1193  1.1725 -0.5660
19054TIP3    H178653   5.543   2.073   2.326 -1.0911 -1.4647 -0.8332
19054TIP3    H278654   5.432   2.143   2.401  0.3374  0.1973 -0.1937
19055TIP3   OH278655   3.770   5.382   0.309 -0.4131 -0.1920 -0.0565
19055TIP3    H178656   3.694   5.330   0.333  0.4889 -1.5041  0.0475
19055TIP3    H278657   3.741   5.433   0.233 -1.7595  0.2738  0.7553
19056TIP3   OH278658   6.195   1.301  17.022  0.0178 -0.1786  0.7392
19056TIP3    H178659   6.154   1.278  16.939  3.0652 -2.1792 -0.4062
19056TIP3    H278660   6.147   1.251  17.088 -0.5189 -1.0024 -0.2520
19057TIP3   OH278661   0.770   3.337   0.802 -0.1961 -0.0171 -0.2302
19057TIP3    H178662   0.729   3.271   0.746  0.0447  0.3027 -0.7977
19057TIP3    H278663   0.819   3.287   0.867 -1.8493 -0.4109  0.7521
19058TIP3   OH278664   1.886   5.081  12.680  0.0816 -0.4530  0.3559
19058TIP3    H178665   1.821   5.078  12.609  0.0416  1.4886  0.2393
19058TIP3    H278666   1.844   5.133  12.749  1.3229  0.5013  0.4361
19059TIP3   OH278667   6.037   1.390  12.988 -0.6028 -0.8333  0.2764
19059TIP3    H178668   6.075   1.430  12.910  1.0056 -0.4063  1.2371
19059TIP3    H278669   5.974   1.326  12.954 -0.5931 -0.0326 -1.3377
19060TIP3   OH278670   1.952   2.451   6.265  0.0774 -0.2691 -0.2405
19060TIP3    H178671   1.914   2.470   6.351  0.8776 -0.9398  0.2765
19060TIP3    H278672   1.964   2.537   6.224 -1.5776 -0.0098 -0.2584
19061TIP3   OH278673   5.891   5.820   6.066 -0.1745  0.2551 -0.0477
19061TIP3    H178674   5.840   5.900   6.056  1.4353  1.2351 -0.9222
19061TIP3    H278675   5.981   5.846   6.047  0.2876 -1.9533 -1.3757
19062TIP3   OH278676   1.012   4.656   4.037  0.4009 -0.7345  0.0710
19062TIP3    H178677   0.976   4.611   4.113 -1.8919  0.5223 -0.1654
19062TIP3    H278678   0.964   4.620   3.963  1.7091 -1.0470 -0.6349
19063TIP3   OH278679   0.700   0.716   0.961 -0.7400  0.0751 -0.7312
19063TIP3    H178680   0.749   0.644   1.003 -0.2291  0.9686  0.2397
19063TIP3    H278681   0.762   0.789   0.959 -1.1129  0.3763 -2.1065
19064TIP3   OH278682   2.486   4.342  16.201 -0.4466  0.5789  0.4039
19064TIP3    H178683   2.430   4.373  16.129  1.1504  1.5461 -0.4703
19064TIP3    H278684   2.507   4.420  16.251 -0.3516  0.1254  1.0923
19065TIP3   OH278685   2.538   1.660  13.923  0.0329  0.4583 -0.1007
19065TIP3    H178686   2.484   1.738  13.910  0.4924  0.6791 -0.7502
19065TIP3    H278687   2.486   1.589  13.884  1.2044  1.0431 -3.0304
19066TIP3   OH278688   5.364   5.668  15.850  0.3398  0.2713  0.2328
19066TIP3    H178689   5.297   5.734  15.829  0.6199  1.0651  1.6822
19066TIP3    H278690   5.370   5.614  15.771 -1.0431  1.0058 -0.4170
19067TIP3   OH278691   3.468   1.471   1.786 -0.3828  0.0002  0.1960
19067TIP3    H178692   3.487   1.381   1.813 -1.3031  0.2533  1.8738
19067TIP3    H278693   3.404   1.501   1.851 -2.6999  0.7444 -2.2587
19068TIP3   OH278694   6.624   2.793  14.771 -0.0012  0.1825 -0.0382
19068TIP3    H178695   6.568   2.751  14.836 -1.3542 -1.4006 -2.0907
19068TIP3    H278696   6.614   2.887  14.787 -1.0832 -0.1334  1.3431
19069TIP3   OH278697   5.967   6.538  17.233  0.3160  0.2264 -0.1387
19069TIP3    H178698   5.939   6.491  17.311  0.1954 -0.0640 -0.3565
19069TIP3    H278699   5.930   6.626  17.244  0.2344  0.1641  0.0937
19070TIP3   OH278700   2.830   3.083   6.417 -0.1297  0.1761  0.4263
19070TIP3    H178701   2.739   3.110   6.404  0.2910  1.6210  0.2694
19070TIP3    H278702   2.855   3.123   6.500  0.3139 -0.3575  0.5534
19071TIP3   OH278703   3.532   2.566   3.934 -0.0447 -0.2307 -0.0003
19071TIP3    H178704   3.537   2.639   3.996  1.1383 -0.1942 -0.1216
19071TIP3    H278705   3.603   2.507   3.960  0.5162 -0.1804 -1.3540
19072TIP3   OH278706   0.716   6.074   3.754  0.0712  0.0930 -0.2669
19072TIP3    H178707   0.740   6.091   3.663 -0.2460 -0.9950 -0.5640
19072TIP3    H278708   0.794   6.035   3.793 -1.0212 -3.4160 -1.2254
19073TIP3   OH278709   5.957   5.194  14.538 -0.7040  0.2181 -0.5427
19073TIP3    H178710   5.988   5.104  14.547  0.2810  0.6488  0.5058
19073TIP3    H278711   5.885   5.201  14.601  0.0843  0.5331  0.3383
19074TIP3   OH278712   5.956   2.619  13.067 -0.1611  0.5939  0.2677
19074TIP3    H178713   5.960   2.707  13.029 -1.1486  0.9339  0.9205
19074TIP3    H278714   5.866   2.610  13.097 -0.5907 -1.3160 -1.3642
19075TIP3   OH278715   2.739   4.135  12.356  0.2299  0.1314  0.1967
19075TIP3    H178716   2.801   4.207  12.369  0.2954  0.4044 -1.5067
19075TIP3    H278717   2.795   4.058  12.344  0.1981  0.1105  0.1839
19076TIP3   OH278718   2.090   4.921  14.434 -0.6426  0.3916  0.0950
19076TIP3    H178719   2.015   4.981  14.424 -0.0176  0.9518 -1.5046
19076TIP3    H278720   2.086   4.865  14.357 -0.0862 -0.3806  0.6145
19077TIP3   OH278721   4.467   4.237   0.461 -0.6982 -0.3529 -0.3872
19077TIP3    H178722   4.402   4.283   0.515 -1.7615 -0.4905 -1.4948
19077TIP3    H278723   4.536   4.301   0.446 -0.8016 -0.0402  0.4304
19078TIP3   OH278724   6.269   1.835   6.178  0.4022  0.5909 -0.5039
19078TIP3    H178725   6.348   1.830   6.232  2.5145 -0.7971 -3.3715
19078TIP3    H278726   6.253   1.928   6.167  2.8541  1.0172 -1.2550
19079TIP3   OH278727   5.663   1.582  14.963 -0.1104 -0.2604  0.2208
19079TIP3    H178728   5.710   1.648  15.014  1.5352 -1.5751  0.4704
19079TIP3    H278729   5.709   1.500  14.980 -0.9280 -1.1603 -1.5703
19080TIP3   OH278730   4.962   0.405   5.919 -0.1055 -0.3479  0.3517
19080TIP3    H178731   4.912   0.359   5.986 -0.1788 -2.2364 -0.9233
19080TIP3    H278732   4.916   0.488   5.907 -0.9217 -0.5943  1.6079
19081TIP3   OH278733   3.844   6.005   1.698  0.1790 -0.4265 -0.6932
19081TIP3    H178734   3.824   6.053   1.778  2.0019 -0.6867 -0.0291
19081TIP3    H278735   3.853   5.914   1.725 -0.5050 -0.7316 -1.4521
19082TIP3   OH278736   3.947   4.479   5.105  0.8121 -0.2266  0.5167
19082TIP3    H178737   3.957   4.466   5.199 -1.1346 -0.5526  0.7190
19082TIP3    H278738   3.884   4.413   5.077 -0.9963  1.7430 -0.4154
19083TIP3   OH278739   6.739   5.338   1.463  0.3020  0.0114 -0.3538
19083TIP3    H178740   6.730   5.403   1.393 -1.0501  0.2194 -0.0184
19083TIP3    H278741   6.743   5.254   1.416 -2.8168 -0.0551 -0.7007
19084TIP3   OH278742   2.066   2.519  14.211  0.2253 -0.1613 -0.0187
19084TIP3    H178743   2.115   2.526  14.292  1.0006 -2.1994 -0.2597
19084TIP3    H278744   1.974   2.525  14.237  0.4611 -1.0071  1.0350
19085TIP3   OH278745   4.365   6.337  14.084 -0.0881  0.1021 -0.1732
19085TIP3    H178746   4.314   6.418  14.088 -1.2486 -0.6151  0.0111
19085TIP3    H278747   4.329   6.290  14.009 -0.3247 -0.8096  0.4905
19086TIP3   OH278748   2.579   4.592  13.555 -0.3344  0.4447 -0.0768
19086TIP3    H178749   2.582   4.497  13.549 -0.1838  0.4414  0.0369
19086TIP3    H278750   2.669   4.618  13.575 -0.6663  0.4872  1.4967
19087TIP3   OH278751   5.058   6.286   2.136 -0.0870  0.7542 -0.4642
19087TIP3    H178752   5.042   6.380   2.147 -0.1560  0.8850 -1.5202
19087TIP3    H278753   5.135   6.282   2.079 -0.3313  0.1782 -0.7635
19088TIP3   OH278754   5.768   3.439  17.058 -0.0849 -0.0138  0.0604
19088TIP3    H178755   5.766   3.370  17.124 -0.6358 -0.7536 -0.7191
19088TIP3    H278756   5.753   3.394  16.975 -2.0308  1.2175 -0.3152
19089TIP3   OH278757   4.923   6.220   2.892  0.3886 -0.5467 -0.0874
19089TIP3    H178758   4.959   6.156   2.831  1.1493  0.3141 -0.5871
19089TIP3    H278759   4.992   6.286   2.899 -0.6272  0.5529 -0.1224
19090TIP3   OH278760   1.661   5.481   5.442 -0.2402 -0.3671 -1.0761
19090TIP3    H178761   1.731   5.421   5.468 -0.1412 -1.6632 -3.9543
19090TIP3    H278762   1.582   5.445   5.483 -0.0550 -2.1109 -2.1194
19091TIP3   OH278763   1.585   3.712   2.358  0.2695 -0.0816  0.2306
19091TIP3    H178764   1.656   3.705   2.294  1.5151 -1.0261  1.6617
19091TIP3    H278765   1.570   3.622   2.388  0.1944  0.4059  1.7507
19092TIP3   OH278766   0.021   3.947  13.471 -0.2629 -0.4947 -0.1420
19092TIP3    H178767   0.053   3.897  13.396  0.1204 -0.4101 -0.0378
19092TIP3    H278768  -0.051   4.000  13.436 -0.8849 -1.3415 -0.1916
19093TIP3   OH278769   4.146   2.546   0.652  0.5215 -0.4900  0.2697
19093TIP3    H178770   4.170   2.464   0.695 -0.8356 -0.4776  1.1197
19093TIP3    H278771   4.164   2.613   0.717  0.6422 -0.2279 -0.0337
19094TIP3   OH278772   4.534   4.452   5.629 -0.3700  0.0103  0.4700
19094TIP3    H178773   4.565   4.541   5.644  0.2177 -0.4666  2.3130
19094TIP3    H278774   4.571   4.428   5.544 -1.8706  2.0400 -0.8788
19095TIP3   OH278775   3.544   3.155  16.866  0.0123 -0.3169 -0.1497
19095TIP3    H178776   3.500   3.070  16.865 -1.3132  0.2424  1.9720
19095TIP3    H278777   3.472   3.218  16.879  1.3097  0.5568  5.0697
19096TIP3   OH278778   3.714   4.664  14.393 -0.4257  0.2643 -0.2896
19096TIP3    H178779   3.647   4.628  14.335  0.1041  1.2535 -1.5585
19096TIP3    H278780   3.797   4.643  14.351  0.2529 -2.3090  2.0319
19097TIP3   OH278781   2.930   5.001   1.298 -0.3116  0.0480  0.4014
19097TIP3    H178782   2.987   5.078   1.296 -1.5559  0.9964 -0.8532
19097TIP3    H278783   2.969   4.944   1.364  2.0912  0.6235 -0.4012
19098TIP3   OH278784   3.046   6.612   5.813  0.6949 -0.2734 -0.3819
19098TIP3    H178785   2.991   6.538   5.787 -0.3343 -0.3294  1.7374
19098TIP3    H278786   3.135   6.580   5.804  0.2631 -2.1499  1.3078
19099TIP3   OH278787   5.262   0.409  10.725 -0.2488 -0.1358  0.1834
19099TIP3    H178788   5.328   0.461  10.771 -0.6936  0.1326  0.5259
19099TIP3    H278789   5.277   0.428  10.633  0.3492 -0.3120  0.2380
19100TIP3   OH278790   4.853   1.454   3.524  0.6302  0.4684 -0.6866
19100TIP3    H178791   4.882   1.535   3.567  0.9572 -0.3761  0.7484
19100TIP3    H278792   4.927   1.394   3.535  0.1160 -0.2509 -1.1070
19101TIP3   OH278793   5.213   2.841  16.049 -0.9496  0.0810 -0.4499
19101TIP3    H178794   5.167   2.810  16.127 -1.5308  0.6605 -0.5461
19101TIP3    H278795   5.263   2.766  16.019  0.1149  0.1253  1.0656
19102TIP3   OH278796   5.200   5.045   6.007  0.4036 -0.1105 -0.0752
19102TIP3    H178797   5.130   5.018   5.948 -0.0672 -1.2801  0.9930
19102TIP3    H278798   5.226   5.132   5.975 -0.6033 -0.2374 -1.2987
19103TIP3   OH278799   0.713   4.215  13.601  0.0922  0.2684  0.4949
19103TIP3    H178800   0.753   4.181  13.521 -2.0758  1.3265 -1.1366
19103TIP3    H278801   0.625   4.177  13.602 -1.2320  3.0555  0.3441
19104TIP3   OH278802   2.678   5.477   2.696 -0.5149  1.1936 -0.0431
19104TIP3    H178803   2.728   5.558   2.700  0.6679  0.4967 -0.2029
19104TIP3    H278804   2.708   5.434   2.616 -1.3716  0.7480 -0.1329
19105TIP3   OH278805   3.050   5.678  13.791  0.2246  0.0828  0.6641
19105TIP3    H178806   3.132   5.635  13.768  0.0005  0.2560 -0.5107
19105TIP3    H278807   3.053   5.762  13.746 -1.3722 -0.6490 -0.9469
19106TIP3   OH278808   1.885   4.943  11.494 -0.3627 -0.1621  0.4444
19106TIP3    H178809   1.885   5.016  11.431 -0.0506 -0.6709 -0.1510
19106TIP3    H278810   1.973   4.906  11.487 -0.9651 -1.5285 -0.3579
19107TIP3   OH278811   0.547   5.047  11.902 -0.2259  0.8005 -0.7828
19107TIP3    H178812   0.531   5.141  11.909 -1.3109  0.7695 -2.2618
19107TIP3    H278813   0.464   5.012  11.869  0.6970 -0.4402 -1.8774
19108TIP3   OH278814   4.168   5.253  12.652 -0.0873 -0.7994 -0.0431
19108TIP3    H178815   4.088   5.227  12.698 -0.2438 -0.9809 -0.4065
19108TIP3    H278816   4.219   5.301  12.717 -1.0560  0.4102 -0.1459
19109TIP3   OH278817   2.143   5.498  14.983 -0.0870 -0.2878 -0.3336
19109TIP3    H178818   2.164   5.561  14.913 -0.5951 -0.6768 -0.8415
19109TIP3    H278819   2.214   5.434  14.979  0.0233 -0.1675 -0.3203
19110TIP3   OH278820   2.542   5.246   0.669 -0.7039 -0.0322  0.4148
19110TIP3    H178821   2.488   5.293   0.732 -0.0360  2.1371 -0.5540
19110TIP3    H278822   2.568   5.312   0.606  2.4583 -1.1297  0.4147
19111TIP3   OH278823   6.121   0.255  12.705  0.3020 -0.1397 -0.3100
19111TIP3    H178824   6.119   0.162  12.729  0.4917 -0.4308 -1.3845
19111TIP3    H278825   6.080   0.258  12.619  0.8066  0.7041 -0.5250
19112TIP3   OH278826   3.285   3.902  13.976  0.2058 -0.7636  0.2859
19112TIP3    H178827   3.252   3.990  13.955 -2.9087 -1.3651  1.9826
19112TIP3    H278828   3.368   3.917  14.019  1.0032  1.1320 -1.7235
19113TIP3   OH278829   5.981   3.981  10.935 -0.1332  0.1863 -0.1686
19113TIP3    H178830   6.070   4.011  10.917 -0.3517  1.8497  1.3071
19113TIP3    H278831   5.929   4.011  10.860  0.4896 -0.6553 -0.9582
19114TIP3   OH278832   1.117   2.871   2.647 -0.3402 -0.3859 -0.4121
19114TIP3    H178833   1.083   2.886   2.559  0.3596  0.2401 -0.5911
19114TIP3    H278834   1.040   2.873   2.703 -0.4798  4.1584 -0.3945
19115TIP3   OH278835   5.709   2.596  16.687 -0.1865  0.1687  0.2570
19115TIP3    H178836   5.631   2.569  16.737 -0.2424  0.8435  0.5385
19115TIP3    H278837   5.773   2.619  16.753  0.2564 -0.3658  0.0223
19116TIP3   OH278838   4.180   3.250   2.539  0.1575  0.1519 -0.0376
19116TIP3    H178839   4.185   3.275   2.446  0.0331 -0.7034 -0.2825
19116TIP3    H278840   4.098   3.201   2.546 -1.4821  2.8373  1.1827
19117TIP3   OH278841   1.084   1.218   5.038  0.3483  0.0986 -0.2862
19117TIP3    H178842   1.109   1.234   4.947  1.1213  0.6897  0.0248
19117TIP3    H278843   1.076   1.122   5.044  2.2799 -0.0988 -0.4797
19118TIP3   OH278844   1.040   6.424  11.222 -0.4343  0.0247  0.2511
19118TIP3    H178845   1.003   6.512  11.224 -1.3080 -0.3332  0.4404
19118TIP3    H278846   1.034   6.397  11.130  0.5049  0.4284  0.0621
19119TIP3   OH278847   3.435   1.761  14.190  0.6047 -0.3425 -0.7330
19119TIP3    H178848   3.451   1.715  14.107 -2.6781 -0.9238 -1.1676
19119TIP3    H278849   3.415   1.851  14.164  0.2092 -0.3628 -0.4923
19120TIP3   OH278850   4.368   0.743  17.148 -0.4105  0.1948 -0.1946
19120TIP3    H178851   4.307   0.704  17.084 -0.9638 -1.1909  1.1211
19120TIP3    H278852   4.416   0.668  17.183 -1.0132  0.7481  1.9261
19121TIP3   OH278853   3.279   0.670  11.660 -1.1051  0.0311  0.1464
19121TIP3    H178854   3.339   0.662  11.585  0.3286  0.6272  1.1804
19121TIP3    H278855   3.237   0.755  11.647 -1.5541 -0.2699 -0.4420
19122TIP3   OH278856   6.647   4.352  14.413 -0.6691 -0.1470  0.1219
19122TIP3    H178857   6.706   4.348  14.488  0.5533  2.6501 -0.5534
19122TIP3    H278858   6.593   4.429  14.428  1.2387  1.9961 -2.8269
19123TIP3   OH278859   3.086   2.883  17.198 -0.4805 -0.2165 -0.0066
19123TIP3    H178860   3.111   2.965  17.155  0.3521 -1.3539 -1.7851
19123TIP3    H278861   3.065   2.909  17.288  1.8443  1.6395  0.1065
19124TIP3   OH278862   2.015   0.919  14.914  0.3854 -0.2974  0.0280
19124TIP3    H178863   2.041   0.868  14.991 -2.4263 -4.7383 -1.6083
19124TIP3    H278864   1.931   0.958  14.939  0.7727  0.5342  0.0555
19125TIP3   OH278865   2.386   2.842  11.481  0.3481  0.2088  0.6537
19125TIP3    H178866   2.335   2.908  11.434  0.8298  0.5923  0.6625
19125TIP3    H278867   2.320   2.781  11.516  0.0219 -0.6770 -1.3718
19126TIP3   OH278868   1.330   3.915  12.975 -0.1983 -0.2020  0.1972
19126TIP3    H178869   1.243   3.956  12.975 -0.1390 -0.0550 -0.8233
19126TIP3    H278870   1.391   3.988  12.978 -0.0975 -0.1960 -1.2274
19127TIP3   OH278871   5.125   0.761  12.441  0.1481 -0.1452 -0.2303
19127TIP3    H178872   5.051   0.706  12.412 -0.1287  0.2367 -0.2508
19127TIP3    H278873   5.119   0.839  12.387 -0.7040  0.8239  1.2003
19128TIP3   OH278874   5.615   5.371   0.818  0.8101  0.2906 -0.1632
19128TIP3    H178875   5.546   5.436   0.832 -0.5213 -1.2916  1.1300
19128TIP3    H278876   5.696   5.418   0.833 -0.1068  1.7067  0.5371
19129TIP3   OH278877   2.627   0.005   4.919 -0.0819  0.4549 -0.3537
19129TIP3    H178878   2.658  -0.053   4.988  0.2583  0.9168 -0.1122
19129TIP3    H278879   2.683  -0.016   4.844 -0.5561 -0.1582 -0.5486
19130TIP3   OH278880   4.148   0.451  16.252  0.1562  0.2868 -0.3982
19130TIP3    H178881   4.212   0.492  16.310 -0.8915 -1.8263  2.5183
19130TIP3    H278882   4.109   0.381  16.305 -1.9297 -0.9287 -3.2587
19131TIP3   OH278883   6.683   6.702   4.783 -0.3741  0.2099  0.5804
19131TIP3    H178884   6.731   6.626   4.751 -1.3522  0.6429 -2.1320
19131TIP3    H278885   6.745   6.774   4.774 -0.1261  0.0917  1.2418
19132TIP3   OH278886   3.318   3.552   3.038  0.3974 -0.2293  0.4740
19132TIP3    H178887   3.314   3.625   2.977  1.7237  0.7935  1.5500
19132TIP3    H278888   3.278   3.586   3.119 -0.9442 -1.4147  0.3689
19133TIP3   OH278889   5.094   6.058  14.866 -0.0418 -0.4818 -0.2888
19133TIP3    H178890   5.056   5.996  14.928  0.1120  0.0354  0.3401
19133TIP3    H278891   5.026   6.125  14.854  0.4542  0.1718  0.4388
19134TIP3   OH278892   4.125   3.017   3.485 -0.0729 -0.5055 -0.4312
19134TIP3    H178893   4.125   3.086   3.552 -0.3364  1.2853 -2.1772
19134TIP3    H278894   4.217   2.992   3.476  0.2988  0.9770 -1.0568
19135TIP3   OH278895   2.274   3.926  11.195  0.2642 -0.1211 -0.1102
19135TIP3    H178896   2.229   3.883  11.122  0.1413 -0.3310  0.0893
19135TIP3    H278897   2.338   3.983  11.153  0.4173 -0.4859 -0.3773
19136TIP3   OH278898   1.231   0.304   0.062 -0.0686  0.0427  0.0320
19136TIP3    H178899   1.288   0.295   0.138 -1.3587 -0.2827  0.9876
19136TIP3    H278900   1.227   0.217   0.023 -1.4921 -0.4245  1.1545
19137TIP3   OH278901   5.307   1.358  12.020  0.0293 -0.5303 -0.3912
19137TIP3    H178902   5.364   1.377  12.095 -1.8394  1.3596  0.6794
19137TIP3    H278903   5.351   1.397  11.945  1.2697 -1.2326 -0.0501
19138TIP3   OH278904   5.519   3.983  10.904  0.4565  0.1714 -0.4521
19138TIP3    H178905   5.564   3.931  10.838 -0.9628 -2.4732  0.5484
19138TIP3    H278906   5.547   3.946  10.987 -1.5536  0.1670  0.2668
19139TIP3   OH278907   6.701   1.138   2.994  0.4401 -0.1300 -0.0907
19139TIP3    H178908   6.638   1.078   2.955 -1.8927  1.6588  0.6852
19139TIP3    H278909   6.756   1.082   3.050 -2.3364 -1.4902  1.4842
19140TIP3   OH278910   2.620   0.628  13.887 -0.0635 -0.3367 -0.0863
19140TIP3    H178911   2.630   0.569  13.813 -0.9365  0.3546 -0.7675
19140TIP3    H278912   2.526   0.646  13.891  0.0351  0.0320  0.8773
19141TIP3   OH278913   5.293   5.430   5.455  0.0788 -0.3602  0.1282
19141TIP3    H178914   5.236   5.387   5.519  1.0940 -1.8512  0.0556
19141TIP3    H278915   5.377   5.385   5.463 -0.1514 -1.6381 -3.3157
19142TIP3   OH278916   2.430   0.641   3.723 -0.2449  0.2951 -0.2978
19142TIP3    H178917   2.416   0.696   3.799 -0.6279  1.5645 -1.2464
19142TIP3    H278918   2.431   0.552   3.757 -0.7467  0.8142  1.1362
19143TIP3   OH278919   0.012   4.574  15.308  0.4211  0.5601  0.1067
19143TIP3    H178920  -0.055   4.537  15.250  1.8423 -3.3861  0.6861
19143TIP3    H278921   0.086   4.592  15.251  0.7509 -0.4237  0.1987
19144TIP3   OH278922   0.758   2.034   0.972  0.1011  1.0025  0.0359
19144TIP3    H178923   0.686   1.989   1.016  0.9173  0.5780  0.9775
19144TIP3    H278924   0.832   2.023   1.031  0.9413  1.4254 -0.9198
19145TIP3   OH278925   0.613   6.628   2.791  0.3672 -0.2866  0.0650
19145TIP3    H178926   0.557   6.581   2.730  0.0071  0.0206  0.1531
19145TIP3    H278927   0.577   6.608   2.877  1.9519 -2.1885  0.3584
19146TIP3   OH278928   3.423   4.484  14.656  0.4032  0.1945  0.4644
19146TIP3    H178929   3.384   4.499  14.742 -2.2731  0.3267 -0.6819
19146TIP3    H278930   3.432   4.571  14.618  0.5899  0.0625  0.2060
19147TIP3   OH278931   1.474   6.782   1.535 -0.1147  0.1897 -0.0140
19147TIP3    H178932   1.446   6.762   1.625 -1.2091 -0.2099 -0.4257
19147TIP3    H278933   1.555   6.731   1.524  0.2724  0.5817  0.8780
19148TIP3   OH278934   3.542   0.348  13.396 -0.3456  0.4515  0.7156
19148TIP3    H178935   3.537   0.438  13.430  0.9001  0.3931  1.1116
19148TIP3    H278936   3.503   0.353  13.309  1.6988  1.8935 -0.2063
19149TIP3   OH278937   6.046   0.717   0.671 -0.6955  0.7713 -0.0628
19149TIP3    H178938   6.004   0.645   0.624 -1.1789 -0.2146  1.7522
19149TIP3    H278939   6.048   0.789   0.609 -4.2053  0.5731 -0.5802
19150TIP3   OH278940   5.444   2.162  16.490 -0.3041  0.4362 -0.3565
19150TIP3    H178941   5.403   2.173  16.575 -0.2884 -0.2863 -0.2504
19150TIP3    H278942   5.404   2.229  16.435 -1.0348  0.2571 -0.0480
19151TIP3   OH278943   2.569   5.722   4.995  0.1345  0.6269 -0.8176
19151TIP3    H178944   2.578   5.639   4.950  0.0075 -0.3096  0.8205
19151TIP3    H278945   2.652   5.733   5.042 -0.2208  0.9511 -0.2596
19152TIP3   OH278946   3.126   2.353  16.034  0.1061 -0.1908 -0.1986
19152TIP3    H178947   3.140   2.412  15.960 -0.5427  1.7651  1.1826
19152TIP3    H278948   3.031   2.349  16.044  0.0796 -2.1140 -0.7030
19153TIP3   OH278949   5.056   1.287   5.138  0.2197  0.2596 -0.3138
19153TIP3    H178950   5.118   1.352   5.172 -0.5707  0.3231  1.0904
19153TIP3    H278951   5.043   1.227   5.211 -1.1367  0.0830 -0.6812
19154TIP3   OH278952   2.707   1.835   0.357  0.0663 -0.0210  0.5460
19154TIP3    H178953   2.655   1.908   0.392  0.6560  0.1030  1.1863
19154TIP3    H278954   2.644   1.784   0.306 -0.0474  1.7658 -1.2414
19155TIP3   OH278955   0.110   6.250  14.312  0.0414  0.1094 -0.3505
19155TIP3    H178956   0.030   6.243  14.259 -0.4435  0.8559  0.2661
19155TIP3    H278957   0.108   6.338  14.348 -0.0008 -0.5812  1.4604
19156TIP3   OH278958   6.123   5.026   2.686 -0.8526  0.0127  0.0581
19156TIP3    H178959   6.167   4.995   2.607 -3.9506  2.3988 -2.9328
19156TIP3    H278960   6.058   4.959   2.705 -2.7611  1.1225 -2.0355
19157TIP3   OH278961   5.921   2.670   6.339 -0.0212  0.3893  0.0106
19157TIP3    H178962   5.982   2.704   6.273  1.3004 -0.3384  0.8216
19157TIP3    H278963   5.968   2.678   6.422 -0.2636 -1.9516  0.4416
19158TIP3   OH278964   6.715   4.950  12.158  0.3354  0.1444 -0.2224
19158TIP3    H178965   6.759   4.890  12.098 -1.6358 -1.2990 -0.3162
19158TIP3    H278966   6.710   5.033  12.109  0.7921 -0.3414 -1.1177
19159TIP3   OH278967   0.981   4.046  14.467 -0.4162 -0.1773 -0.0197
19159TIP3    H178968   0.914   4.050  14.535 -1.1713  0.4219 -0.7765
19159TIP3    H278969   0.934   4.064  14.385  0.3590 -1.4842 -0.7916
19160TIP3   OH278970   6.747   1.289   5.513 -0.6285  0.9484 -0.1395
19160TIP3    H178971   6.729   1.195   5.503 -0.5345  1.0055 -0.9337
19160TIP3    H278972   6.697   1.315   5.590 -2.8744  0.8359 -1.5020
19161TIP3   OH278973   5.196   6.794  13.394  0.0102 -0.3428 -0.1247
19161TIP3    H178974   5.112   6.818  13.433  0.3877  0.9137 -0.0207
19161TIP3    H278975   5.231   6.877  13.359 -0.0531 -1.2955 -2.6609
19162TIP3   OH278976   3.173   0.117  13.368  0.3244 -0.5502  0.5167
19162TIP3    H178977   3.246   0.060  13.393  1.7542  0.6061 -0.8291
19162TIP3    H278978   3.097   0.078  13.411  1.1889 -3.5373 -0.3703
19163TIP3   OH278979   5.679   3.024  14.759  0.1118 -0.0357  0.5174
19163TIP3    H178980   5.734   3.012  14.836  1.9148  0.3713 -0.6249
19163TIP3    H278981   5.656   3.117  14.760 -0.4498 -0.1745  0.9146
19164TIP3   OH278982   2.336   0.164  12.395  0.2793 -0.3598  0.8288
19164TIP3    H178983   2.321   0.086  12.341  0.9726  0.1355 -0.0881
19164TIP3    H278984   2.426   0.190  12.376  0.3792  0.0981  1.8804
19165TIP3   OH278985   0.710   1.784  16.900  0.5096  0.1689  0.2579
19165TIP3    H178986   0.745   1.844  16.834  2.2127 -0.8953  0.1434
19165TIP3    H278987   0.721   1.830  16.983  0.1698  0.7181  0.0025
19166TIP3   OH278988   2.922   2.700  12.206 -0.4561  0.1509 -0.0198
19166TIP3    H178989   3.008   2.660  12.220 -0.6512 -0.2980 -0.0554
19166TIP3    H278990   2.860   2.633  12.235 -0.8366 -0.2292 -1.5920
19167TIP3   OH278991   0.682   6.672   4.074 -0.5954 -0.3612  0.5917
19167TIP3    H178992   0.597   6.701   4.108 -0.7328 -1.2224  1.0053
19167TIP3    H278993   0.730   6.644   4.152  0.3215  0.7041  0.4441
19168TIP3   OH278994   3.721   0.869  12.926 -0.0612 -0.1090  0.6965
19168TIP3    H178995   3.627   0.854  12.930  0.0123 -0.4599  1.1127
19168TIP3    H278996   3.756   0.831  13.007  0.5376 -0.6857  0.1824
19169TIP3   OH278997   0.682   2.730  12.189  0.3166 -0.1664 -1.0062
19169TIP3    H178998   0.716   2.644  12.165 -0.8446 -0.5965 -1.1507
19169TIP3    H278999   0.672   2.726  12.284 -1.2642 -0.7785 -1.1793
19170TIP3   OH279000   2.896   0.640  15.305 -0.0255  0.5723 -0.0667
19170TIP3    H179001   2.908   0.735  15.310 -0.7895  0.7480 -1.2033
19170TIP3    H279002   2.974   0.609  15.259 -0.5860  0.8833 -1.2763
19171TIP3   OH279003   0.799   4.400  12.422 -0.7975  0.1576 -0.0228
19171TIP3    H179004   0.760   4.433  12.503 -1.1390 -1.2772  0.4387
19171TIP3    H279005   0.890   4.428  12.426 -0.9443  0.5800  0.5903
19172TIP3   OH279006   3.892   1.687   3.669  0.0586  0.2067  0.7413
19172TIP3    H179007   3.965   1.748   3.660 -0.6834  1.1732  0.9849
19172TIP3    H279008   3.929   1.601   3.652  1.1283  0.7375  0.3055
19173TIP3   OH279009   3.957   0.983   2.665  0.3606  0.1036 -0.0990
19173TIP3    H179010   3.874   1.029   2.654  1.1211  1.9551  1.3093
19173TIP3    H279011   3.957   0.916   2.596 -1.7057  0.8889 -0.9442
19174TIP3   OH279012   1.075   3.280  13.547 -0.4434 -0.5635 -0.4214
19174TIP3    H179013   1.037   3.207  13.596 -0.3363 -0.0790  0.3974
19174TIP3    H279014   1.014   3.352  13.559  0.5546  0.1302  0.6558
19175TIP3   OH279015   0.301   5.642   4.102  0.1261 -0.0038  0.0134
19175TIP3    H179016   0.280   5.720   4.051  0.2868  0.4992  0.7087
19175TIP3    H279017   0.240   5.644   4.175  0.2474 -0.4423  0.1292
19176TIP3   OH279018   1.228   5.945  17.261  0.7677  0.1444  0.1907
19176TIP3    H179019   1.259   5.891  17.188 -1.3500 -1.4694  0.3722
19176TIP3    H279020   1.153   5.993  17.224  0.7260  0.5986  0.8599
19177TIP3   OH279021   0.744   2.602   2.795 -0.5582 -0.2877  0.6259
19177TIP3    H179022   0.804   2.603   2.870 -0.9925  0.7842  0.9700
19177TIP3    H279023   0.749   2.690   2.759  0.4632 -1.0557 -1.2939
19178TIP3   OH279024   2.763   1.398   4.139  0.4411 -0.3489  0.2576
19178TIP3    H179025   2.857   1.380   4.147  0.0259 -2.6926  0.8408
19178TIP3    H279026   2.754   1.440   4.054  2.1570  1.2893  0.8154
19179TIP3   OH279027   1.822   0.643   4.410  0.3647  0.0198  0.8741
19179TIP3    H179028   1.907   0.679   4.437 -0.8725  4.8345 -0.5296
19179TIP3    H279029   1.817   0.663   4.316 -1.7046 -1.6133  0.5702
19180TIP3   OH279030   4.990   0.539  16.416 -0.1736 -0.6196 -0.2513
19180TIP3    H179031   4.973   0.446  16.433  0.4796 -0.9334 -1.2210
19180TIP3    H279032   4.937   0.559  16.339 -1.4477  0.2255  0.7817
19181TIP3   OH279033   0.742   3.443   0.407 -0.2282  0.2135  0.3423
19181TIP3    H179034   0.777   3.374   0.350 -1.4428 -0.8838  0.8785
19181TIP3    H279035   0.750   3.523   0.355  2.6131 -0.0183  0.2780
19182TIP3   OH279036   2.875   3.483   6.474 -0.0373 -0.2433 -0.8911
19182TIP3    H179037   2.881   3.553   6.409 -2.0686  2.2109  1.3006
19182TIP3    H279038   2.962   3.480   6.514  0.3864  0.2727 -1.7441
19183TIP3   OH279039   6.598   1.829   1.181  0.0806  0.3926  0.0912
19183TIP3    H179040   6.502   1.826   1.185  0.0606  0.0188 -0.4798
19183TIP3    H279041   6.618   1.838   1.088  0.6031  0.1572  0.1741
19184TIP3   OH279042   5.811   3.181   4.903  0.0627  0.7631 -0.3741
19184TIP3    H179043   5.751   3.120   4.861 -3.0498  2.6611  0.9447
19184TIP3    H279044   5.842   3.135   4.981 -0.8002  0.2062 -0.3465
19185TIP3   OH279045   1.483   3.080   6.932  0.1505 -0.2273 -0.1233
19185TIP3    H179046   1.436   3.143   6.987 -2.3123  0.5223 -2.8096
19185TIP3    H279047   1.562   3.126   6.905  0.8461 -0.2032  1.7783
19186TIP3   OH279048   1.737   5.105  12.928 -0.1982 -0.1836  0.2173
19186TIP3    H179049   1.744   5.017  12.966  0.2535  0.5196  1.8150
19186TIP3    H279050   1.798   5.158  12.979  0.7406  0.7410 -1.7662
19187TIP3   OH279051   2.252   2.322   5.236  0.1032  0.1876  0.3760
19187TIP3    H179052   2.213   2.398   5.278 -0.9967  0.7263 -1.4697
19187TIP3    H279053   2.178   2.265   5.215  0.6866 -0.4370 -0.0411
19188TIP3   OH279054   4.628   0.636  16.995  0.2324  0.2597 -0.1965
19188TIP3    H179055   4.678   0.651  17.076 -0.0931  0.3565 -0.0118
19188TIP3    H279056   4.667   0.557  16.957 -0.0937 -0.2143  0.4375
19189TIP3   OH279057   3.502   4.803  10.656 -0.2063 -1.0674  0.0435
19189TIP3    H179058   3.437   4.822  10.724 -0.4319 -1.3272 -0.0969
19189TIP3    H279059   3.582   4.845  10.687 -0.2734 -1.3033  0.5437
19190TIP3   OH279060   4.017   4.474   5.378 -0.0590 -0.2408  0.4963
19190TIP3    H179061   4.076   4.515   5.441  1.4245  1.6584 -1.9278
19190TIP3    H279062   4.051   4.385   5.368  0.2103 -0.2880  1.7099
19191TIP3   OH279063   5.188   1.237   1.191 -0.2128 -0.8503  0.2517
19191TIP3    H179064   5.136   1.157   1.181  1.0437 -1.6474 -0.2272
19191TIP3    H279065   5.128   1.308   1.171 -0.7862 -1.8119 -1.7169
19192TIP3   OH279066   1.477   1.114   2.610  0.1266 -0.5875  0.2119
19192TIP3    H179067   1.415   1.056   2.655 -0.5609  0.0286  0.0818
19192TIP3    H279068   1.551   1.122   2.670 -0.2054 -0.8195  0.6549
19193TIP3   OH279069   5.654   3.894   6.038  0.4556 -0.5130 -0.2623
19193TIP3    H179070   5.579   3.840   6.013 -0.9258 -0.1834  2.6778
19193TIP3    H279071   5.700   3.911   5.956 -1.5392 -2.4295 -1.9057
19194TIP3   OH279072   1.437   6.000  16.106 -0.3517  0.1498  0.0973
19194TIP3    H179073   1.383   5.994  16.027 -1.5717  0.2621  0.8818
19194TIP3    H279074   1.376   6.029  16.174  0.2181 -1.7368  1.5009
19195TIP3   OH279075   4.063   6.537   2.758 -0.1314  0.2119 -0.0344
19195TIP3    H179076   4.077   6.624   2.796 -0.4787 -0.1527  0.9570
19195TIP3    H279077   4.028   6.484   2.830 -0.3050 -0.6477 -0.7256
19196TIP3   OH279078   6.608   5.790   1.381  0.8042 -0.3818 -0.3160
19196TIP3    H179079   6.528   5.758   1.337  1.2094 -1.6697 -0.1732
19196TIP3    H279080   6.669   5.717   1.373  1.0905 -0.4321  1.8733
19197TIP3   OH279081   0.883   6.784  13.169  0.1425  0.2526 -0.1733
19197TIP3    H179082   0.841   6.843  13.232 -0.1442  0.5162 -0.6123
19197TIP3    H279083   0.975   6.782  13.196  0.2392  1.2357 -0.4139
19198TIP3   OH279084   6.118   1.282  11.650  0.1014 -0.1516  0.5593
19198TIP3    H179085   6.061   1.302  11.575 -0.9620 -1.4899  0.9681
19198TIP3    H279086   6.084   1.336  11.721  1.4607  1.5449 -0.0072
19199TIP3   OH279087   3.335   1.053  12.850  0.1506  0.0148  0.1668
19199TIP3    H179088   3.402   1.060  12.918 -0.0831 -1.2192  0.5355
19199TIP3    H279089   3.382   1.070  12.768  0.4416  1.4740  0.6047
19200TIP3   OH279090   5.916   4.808   4.263  0.4535  0.3315  0.8197
19200TIP3    H179091   5.939   4.900   4.279 -0.3001  0.2891  2.3287
19200TIP3    H279092   5.985   4.758   4.307  1.7038  0.1073 -1.2560
19201TIP3   OH279093   3.003   1.259  10.804  0.0562 -0.0400 -0.1837
19201TIP3    H179094   3.070   1.310  10.851 -0.4585 -0.1253  0.6533
19201TIP3    H279095   3.032   1.168  10.813  0.9281  0.0680 -1.6052
19202TIP3   OH279096   0.092   0.371  15.635 -0.0060 -0.1010 -0.1400
19202TIP3    H179097   0.034   0.297  15.652  0.6335 -0.1883  1.8309
19202TIP3    H279098   0.041   0.429  15.579 -1.8257 -0.3958  1.1545
19203TIP3   OH279099   1.036   6.201   2.174 -0.1566 -0.6918 -0.1402
19203TIP3    H179100   1.058   6.273   2.234 -0.5318  0.7907 -1.6792
19203TIP3    H279101   0.959   6.160   2.211 -1.4175  1.2948 -0.4217
19204TIP3   OH279102   3.103   4.382  16.256  0.6626  0.2028 -0.5192
19204TIP3    H179103   3.097   4.416  16.345  1.9594 -0.2968 -0.2148
19204TIP3    H279104   3.012   4.369  16.229  0.2317 -1.0063  1.2815
19205TIP3   OH279105   4.833   6.440   5.517  0.4900 -0.2263  0.2543
19205TIP3    H179106   4.845   6.361   5.569  1.2410 -0.0313  0.3930
19205TIP3    H279107   4.922   6.466   5.492  0.4251  1.4704  1.5947
19206TIP3   OH279108   1.447   4.081   5.048  0.2666  0.2580 -0.0786
19206TIP3    H179109   1.509   4.151   5.069 -1.4795  1.6860  0.5857
19206TIP3    H279110   1.460   4.066   4.954  0.1853  2.0283 -0.4206
19207TIP3   OH279111   6.292   6.430  11.929 -0.2228 -0.1491 -0.4013
19207TIP3    H179112   6.226   6.377  11.884 -2.0051 -0.1097  2.0014
19207TIP3    H279113   6.256   6.518  11.930  1.1896  0.4866 -1.4206
19208TIP3   OH279114   6.198   5.962  11.904 -0.2530  0.2283  0.4187
19208TIP3    H179115   6.178   6.026  11.836  0.3712  1.1688  1.0883
19208TIP3    H279116   6.121   5.906  11.908 -2.0723  2.6046  1.6668
19209TIP3   OH279117   0.859   2.911  15.661 -0.0007  0.4084 -0.0604
19209TIP3    H179118   0.854   2.832  15.607 -0.3458 -0.1133  0.7105
19209TIP3    H279119   0.949   2.914  15.692 -0.2693 -0.3643  0.8691
19210TIP3   OH279120   4.065   3.859   1.576  0.3545 -0.4279  0.1904
19210TIP3    H179121   4.040   3.770   1.549 -0.2023 -0.4429  0.7345
19210TIP3    H279122   4.135   3.845   1.640 -0.0548 -0.5009  0.6279
19211TIP3   OH279123   4.459   0.617   3.323  0.1193  0.2904  0.3449
19211TIP3    H179124   4.500   0.540   3.362 -0.3381  0.4383  1.1558
19211TIP3    H279125   4.418   0.585   3.243  0.7608 -0.1061  0.1679
19212TIP3   OH279126   4.266   6.456   1.501  0.3822 -0.1668  0.5003
19212TIP3    H179127   4.353   6.437   1.538  1.0729  0.4494 -0.7630
19212TIP3    H279128   4.253   6.387   1.435 -0.0973 -0.2590  0.6897
19213TIP3   OH279129   0.194   3.173  14.875  0.1756 -0.0684 -0.4987
19213TIP3    H179130   0.263   3.181  14.809  0.3450 -1.0272 -0.4606
19213TIP3    H279131   0.113   3.192  14.828  0.4456  0.9195 -0.5792
19214TIP3   OH279132   4.120   3.854  17.237 -0.1357 -0.4913  0.2666
19214TIP3    H179133   4.133   3.769  17.195 -1.0888 -0.7193  0.3907
19214TIP3    H279134   4.145   3.918  17.170 -1.2990 -0.8538 -0.5528
19215TIP3   OH279135   1.683   5.972  12.282  0.8045 -0.4188 -0.1615
19215TIP3    H179136   1.592   5.944  12.282  0.7041 -0.5900 -3.9100
19215TIP3    H279137   1.683   6.052  12.229  2.7646 -0.0890  0.2615
19216TIP3   OH279138   6.690   6.084   0.504 -0.7423  0.3892  0.4061
19216TIP3    H179139   6.708   6.078   0.410 -0.3383  1.4401  0.4076
19216TIP3    H279140   6.624   6.017   0.520 -0.9262  0.3023 -0.6541
19217TIP3   OH279141   2.035   6.131  13.193  0.3771  0.5422 -0.0357
19217TIP3    H179142   1.997   6.204  13.143  2.0643  0.1139 -2.0807
19217TIP3    H279143   2.056   6.169  13.278 -3.5189  1.0499  0.9068
19218TIP3   OH279144   1.331   6.170   1.597  0.0141  0.3891 -0.2936
19218TIP3    H179145   1.248   6.196   1.556 -0.1575  0.5830  0.1564
19218TIP3    H279146   1.389   6.245   1.583  0.2975  0.0319 -1.0882
19219TIP3   OH279147   2.802   3.864   1.877  0.6188  0.0476  0.2155
19219TIP3    H179148   2.777   3.946   1.835 -0.3835 -0.2899  0.1206
19219TIP3    H279149   2.720   3.830   1.913  0.4751 -2.1705 -1.9478
19220TIP3   OH279150   0.704   6.114  16.719  0.1040  0.3826  0.6676
19220TIP3    H179151   0.718   6.049  16.650 -1.8927 -0.0363  0.5871
19220TIP3    H279152   0.677   6.063  16.795  2.5344  0.8150  1.9116
19221TIP3   OH279153   1.382   4.071  16.098  0.1076  0.2177 -0.4563
19221TIP3    H179154   1.464   4.021  16.102  0.5278  0.8872 -0.3884
19221TIP3    H279155   1.331   4.040  16.172  0.7272  0.4973  0.1006
19222TIP3   OH279156   0.653   1.024   3.048 -0.3963 -0.0059  0.5271
19222TIP3    H179157   0.567   1.058   3.022  0.0600  0.3782 -0.5766
19222TIP3    H279158   0.708   1.040   2.971  0.8755  0.5421  1.5279
19223TIP3   OH279159   6.598   6.751  14.245  0.4852  0.1958  0.4737
19223TIP3    H179160   6.623   6.667  14.205  0.5940  0.1314  0.6785
19223TIP3    H279161   6.502   6.749  14.246  0.4906 -0.4588  1.5995
19224TIP3   OH279162   0.434   4.989  15.059  0.3906  0.4879  0.3881
19224TIP3    H179163   0.406   4.912  15.011  2.4537 -0.7101  0.9886
19224TIP3    H279164   0.366   5.054  15.042 -2.3695 -1.9709  1.2735
19225TIP3   OH279165   5.682   6.661  17.382  0.2096 -0.2704 -0.0115
19225TIP3    H179166   5.719   6.726  17.322 -0.2201 -1.2529 -1.4020
19225TIP3    H279167   5.633   6.712  17.446 -0.5804  0.7745 -1.3979
19226TIP3   OH279168   3.481   2.974   0.988 -0.2209  0.2674 -0.1789
19226TIP3    H179169   3.426   2.950   1.062 -0.2595  1.4757  0.2095
19226TIP3    H279170   3.553   3.024   1.027  0.0809  0.3992 -0.8872
19227TIP3   OH279171   2.096   6.144  14.748 -0.1428  0.3000 -0.2543
19227TIP3    H179172   2.175   6.171  14.701  0.0059  0.7912  0.2676
19227TIP3    H279173   2.053   6.226  14.772 -0.2750  0.0560  0.3631
19228TIP3   OH279174   6.651   2.800   4.281 -0.0834  0.8716 -0.0075
19228TIP3    H179175   6.561   2.805   4.249  0.1349  0.0175 -0.7632
19228TIP3    H279176   6.671   2.890   4.309 -0.7808  1.3207 -0.8951
19229TIP3   OH279177   1.328   4.607   6.164  0.2309 -0.2499 -0.1118
19229TIP3    H179178   1.271   4.618   6.088  0.0408  0.5342  0.1359
19229TIP3    H279179   1.410   4.651   6.140 -0.5603  1.9124  0.9135
19230TIP3   OH279180   3.474   2.538  14.164  0.1915 -0.0988 -0.1709
19230TIP3    H179181   3.412   2.591  14.115 -0.0017 -2.2125 -2.3854
19230TIP3    H279182   3.558   2.583  14.154 -0.5429  1.6487  1.0784
19231TIP3   OH279183   6.533   0.314   5.400  0.6838  0.7215  0.2201
19231TIP3    H179184   6.602   0.276   5.455 -1.0026 -1.5341  0.9659
19231TIP3    H279185   6.570   0.312   5.311  1.6489 -0.3038  0.6076
19232TIP3   OH279186   4.505   5.155  11.632 -0.5543  0.2740  0.9101
19232TIP3    H179187   4.520   5.068  11.668  0.8603 -0.6137 -1.5631
19232TIP3    H279188   4.426   5.146  11.578 -0.2978  0.4352  0.4968
19233TIP3   OH279189   2.827   1.276  15.228  0.0271 -0.1599  0.1596
19233TIP3    H179190   2.867   1.235  15.152  0.9225  2.3130 -0.7927
19233TIP3    H279191   2.803   1.364  15.199 -2.4543 -0.1561  1.8801
19234TIP3   OH279192   5.375   4.541   3.516 -0.2111  0.7108 -0.0324
19234TIP3    H179193   5.462   4.516   3.486 -0.9689 -0.7830 -1.1158
19234TIP3    H279194   5.389   4.621   3.566  1.8875  0.0146  0.5925
19235TIP3   OH279195   1.510   0.135   6.215  0.0498  0.1710  0.2914
19235TIP3    H179196   1.486   0.048   6.246  1.1841 -0.7962 -1.3616
19235TIP3    H279197   1.427   0.183   6.211 -0.4687 -0.5290  2.0560
19236TIP3   OH279198   3.552   0.058   5.007  0.0786  0.1242  0.0180
19236TIP3    H179199   3.599  -0.018   4.971  1.6262  0.9329  0.2645
19236TIP3    H279200   3.492   0.020   5.071  0.5559 -0.9298 -0.1327
19237TIP3   OH279201   6.222   6.439  13.791  0.5758  0.5948 -0.5266
19237TIP3    H179202   6.178   6.354  13.786  0.2981  0.8094 -2.1716
19237TIP3    H279203   6.224   6.458  13.885 -1.7361 -0.0043 -0.2783
19238TIP3   OH279204   1.894   1.508  12.882  0.4552  0.5650 -0.1902
19238TIP3    H179205   1.840   1.565  12.937  0.1386  0.3951 -0.3237
19238TIP3    H279206   1.983   1.518  12.917  0.3256  0.7848  0.0802
19239TIP3   OH279207   2.293   1.424   0.890  0.6515 -0.3199 -0.3489
19239TIP3    H179208   2.248   1.497   0.931  0.8290 -0.8720  0.8816
19239TIP3    H279209   2.230   1.351   0.893  1.3981 -0.9537  0.9300
19240TIP3   OH279210   1.534   6.575  15.864 -0.1164 -0.0424 -0.3261
19240TIP3    H179211   1.611   6.519  15.862 -0.8970 -1.1506 -0.3741
19240TIP3    H279212   1.551   6.637  15.934  1.0917  0.1503 -0.7698
19241TIP3   OH279213   0.691   4.433   1.322 -0.3969  0.1230 -0.1989
19241TIP3    H179214   0.673   4.506   1.381  1.5013 -0.3256  1.0418
19241TIP3    H279215   0.636   4.362   1.354 -1.3017  0.6193 -0.6178
19242TIP3   OH279216   6.339   4.949   4.592  0.3577 -0.0303 -0.2039
19242TIP3    H179217   6.324   5.041   4.613  0.6633  0.1716 -0.8612
19242TIP3    H279218   6.287   4.933   4.513 -0.5060 -0.6980  0.4694
19243TIP3   OH279219   3.886   4.186  14.243  0.4715  0.5987  0.0477
19243TIP3    H179220   3.889   4.208  14.336 -1.3630  1.6375 -0.0834
19243TIP3    H279221   3.913   4.094  14.238 -3.4618 -0.9019  2.1935
19244TIP3   OH279222   6.315   5.001  14.304 -0.1902 -0.7554  0.0285
19244TIP3    H179223   6.338   4.912  14.332  2.1277  0.0979  1.1351
19244TIP3    H279224   6.291   4.992  14.212 -1.6304 -2.7398  0.5333
19245TIP3   OH279225   5.451   2.327   1.861  0.0545 -0.7954 -0.0026
19245TIP3    H179226   5.507   2.251   1.843  3.1228  0.9646  1.2740
19245TIP3    H279227   5.477   2.356   1.949  0.3278  2.7112 -1.0836
19246TIP3   OH279228   5.684   4.011   6.421 -0.5106  0.6313 -0.0782
19246TIP3    H179229   5.621   4.021   6.492  0.6307  0.0918  1.0609
19246TIP3    H279230   5.711   4.101   6.399 -2.2670  0.9293 -1.1852
19247TIP3   OH279231   4.979   1.114   4.557  0.8430 -0.3478 -0.3949
19247TIP3    H179232   4.994   1.027   4.520 -0.5268 -1.0726  0.6324
19247TIP3    H279233   5.009   1.175   4.490  0.8674 -1.6147 -1.5706
19248TIP3   OH279234   0.322   5.232  13.422  0.5848 -0.6981  0.4256
19248TIP3    H179235   0.334   5.298  13.491  1.0622  0.9417 -1.1507
19248TIP3    H279236   0.227   5.221  13.416  0.4448  0.5062  0.1565
19249TIP3   OH279237   1.236   3.331   3.382 -0.8721 -0.3226 -0.0999
19249TIP3    H179238   1.179   3.280   3.440  0.6984 -0.9642  0.9515
19249TIP3    H279239   1.322   3.328   3.424  0.9437 -2.6903 -3.4934
19250TIP3   OH279240   5.106   6.394  16.505  0.5765  0.5890 -0.0604
19250TIP3    H179241   5.149   6.442  16.435  0.8984  0.0887 -0.2097
19250TIP3    H279242   5.175   6.379  16.570  0.2125  1.3224  0.5227
19251TIP3   OH279243   1.131   3.044  14.397 -0.1065 -0.7224 -0.8042
19251TIP3    H179244   1.050   3.069  14.352 -0.9372  0.8284  1.3470
19251TIP3    H279245   1.102   2.980  14.463  0.1050  0.7977  0.8461
19252TIP3   OH279246   4.016   0.139   0.300 -0.2026  0.1085  0.0083
19252TIP3    H179247   3.998   0.075   0.369  0.8444 -0.3838 -0.1523
19252TIP3    H279248   4.101   0.112   0.264  0.0494  1.3341 -0.3581
19253TIP3   OH279249   3.748   4.120  16.658 -0.3092  0.0247 -0.0828
19253TIP3    H179250   3.700   4.139  16.578  0.0457 -0.4560 -0.4154
19253TIP3    H279251   3.681   4.111  16.726 -0.5593  1.3651 -0.1224
19254TIP3   OH279252   2.581   0.228   2.436 -0.2256  1.0875 -0.6071
19254TIP3    H179253   2.589   0.247   2.529  4.6722  0.0340 -0.5483
19254TIP3    H279254   2.532   0.146   2.432  3.9333 -1.8501  1.7746
19255TIP3   OH279255   3.784   0.240   3.781  0.2846  0.0215 -0.2318
19255TIP3    H179256   3.797   0.333   3.763  1.8673  0.0045  0.6150
19255TIP3    H279257   3.869   0.210   3.813 -0.2235 -1.7031 -0.4044
19256TIP3   OH279258   5.992   1.390   1.048 -0.0379 -0.0661 -0.1299
19256TIP3    H179259   5.942   1.380   1.129  1.0417  0.6600  0.6421
19256TIP3    H279260   5.984   1.305   1.005  0.1986 -0.7992  1.2211
19257TIP3   OH279261   2.078   5.675   0.420 -0.3539  0.5347 -0.0731
19257TIP3    H179262   2.159   5.689   0.369  1.1160  2.8971  2.5924
19257TIP3    H279263   2.087   5.587   0.455  0.8967  0.6150 -0.1426
19258TIP3   OH279264   3.124   3.276   5.057 -0.0669 -0.4015 -0.0416
19258TIP3    H179265   3.212   3.247   5.083  0.2676 -0.9370 -1.6486
19258TIP3    H279266   3.071   3.197   5.060 -0.4840 -0.1009  0.8012
19259TIP3   OH279267   2.117   3.967  15.078 -0.5096 -0.0495  0.4683
19259TIP3    H179268   2.192   3.907  15.086 -0.2021  0.2457 -0.1741
19259TIP3    H279269   2.124   4.023  15.156 -0.9198 -0.9583  1.1876
19260TIP3   OH279270   0.198   5.578  14.514  0.8271  0.3060  1.2247
19260TIP3    H179271   0.272   5.631  14.545  1.8831  0.2654 -1.0247
19260TIP3    H279272   0.236   5.491  14.498  0.3741  0.3446 -0.1800
19261TIP3   OH279273   2.281   5.368   1.850 -0.6635  0.5439 -0.4596
19261TIP3    H179274   2.222   5.302   1.813  0.2211 -1.1085  0.9595
19261TIP3    H279275   2.270   5.444   1.792 -0.6497 -1.2812 -3.0384
19262TIP3   OH279276   4.724   4.194   3.079  0.2042 -0.4559 -0.0986
19262TIP3    H179277   4.701   4.216   2.989 -0.5606 -2.2917 -0.3899
19262TIP3    H279278   4.820   4.197   3.081  0.2992 -1.5482 -1.3251
19263TIP3   OH279279   0.540   3.051  13.803  0.1896  0.6358  0.0138
19263TIP3    H179280   0.527   2.999  13.882 -0.3768  1.2964  0.3562
19263TIP3    H279281   0.578   3.133  13.833  1.1568  0.4176 -0.5382
19264TIP3   OH279282   0.056   4.422   4.933 -0.2325  0.2059 -0.4534
19264TIP3    H179283   0.006   4.341   4.921  0.5497 -0.2758 -0.5165
19264TIP3    H279284   0.008   4.469   5.002 -0.7946 -0.2210 -0.5421
19265TIP3   OH279285   4.904   0.312   0.959 -0.0729  0.0515 -0.2936
19265TIP3    H179286   4.814   0.282   0.950 -0.5312  1.5218 -0.8233
19265TIP3    H279287   4.957   0.238   0.928 -1.1969  0.1531 -2.7281
19266TIP3   OH279288   4.617   4.327  15.332 -0.0208 -0.6800 -0.9174
19266TIP3    H179289   4.577   4.402  15.288  0.2194 -0.3136 -0.5245
19266TIP3    H279290   4.698   4.312  15.283  1.9328  1.7772  1.2307
19267TIP3   OH279291   5.956   0.668  14.057  0.6681  0.4833 -0.9755
19267TIP3    H179292   6.021   0.739  14.049  0.8639  0.5000  0.5031
19267TIP3    H279293   6.007   0.592  14.087  0.3073 -0.0333 -1.6548
19268TIP3   OH279294   3.509   3.148  15.546  0.1912 -0.4087  0.1635
19268TIP3    H179295   3.539   3.134  15.456  1.5529 -0.7063  0.6549
19268TIP3    H279296   3.413   3.153  15.538  0.3659  2.1842 -1.6678
19269TIP3   OH279297   3.369   1.383   4.861 -0.0111 -0.2115 -0.7001
19269TIP3    H179298   3.407   1.404   4.947  0.9167 -2.4338 -0.4936
19269TIP3    H279299   3.438   1.334   4.816 -0.9023 -0.0633 -2.2751
19270TIP3   OH279300   0.223   5.575  15.052  0.1892  0.3968 -0.0846
19270TIP3    H179301   0.258   5.486  15.058  1.9272  1.0491  0.1847
19270TIP3    H279302   0.300   5.630  15.043 -0.5403  2.1651  2.8789
19271TIP3   OH279303   4.761   3.731   3.952  0.1277  0.2542 -0.0064
19271TIP3    H179304   4.712   3.651   3.937  0.3018  0.0084  0.7273
19271TIP3    H279305   4.728   3.792   3.886 -1.1140  0.0705  0.4357
19272TIP3   OH279306   2.648   5.081  10.799 -0.6105 -0.5265 -0.0314
19272TIP3    H179307   2.572   5.056  10.747 -0.8419  0.4383 -0.1766
19272TIP3    H279308   2.631   5.172  10.824  0.0056 -0.6312  0.8170
19273TIP3   OH279309   3.144   2.449   1.319  0.0692  0.3076 -0.3648
19273TIP3    H179310   3.185   2.462   1.404  0.6099 -0.9542 -0.3986
19273TIP3    H279311   3.178   2.364   1.289 -0.0555  0.7506 -1.8632
19274TIP3   OH279312   5.938   3.863  17.225  0.5433 -0.4557 -0.9947
19274TIP3    H179313   5.968   3.928  17.288  0.0233  0.9683 -2.1762
19274TIP3    H279314   5.987   3.882  17.144 -0.7042 -0.5630 -1.7988
19275TIP3   OH279315   5.436   0.937  13.065  0.1701  0.1567  0.0356
19275TIP3    H179316   5.391   1.016  13.093 -0.1228  0.0474 -0.1302
19275TIP3    H279317   5.405   0.921  12.976  0.7412  0.2363 -0.1828
19276TIP3   OH279318   1.848   1.561  15.159 -0.2507  0.6214  0.0974
19276TIP3    H179319   1.889   1.628  15.214 -1.5236  1.6683 -0.1873
19276TIP3    H279320   1.921   1.520  15.113  0.4659  2.8829 -0.9005
19277TIP3   OH279321   6.607   2.041  14.112  0.0226 -0.1530  0.2414
19277TIP3    H179322   6.600   2.098  14.036  0.9016  0.4318  0.5838
19277TIP3    H279323   6.588   2.098  14.187 -2.8157 -1.1384  0.3892
19278TIP3   OH279324   0.691   2.757   1.159 -0.4134  0.2299 -0.0047
19278TIP3    H179325   0.755   2.737   1.228 -1.9367  0.4499  1.5200
19278TIP3    H279326   0.680   2.673   1.112 -0.3799 -0.2861  0.8915
19279TIP3   OH279327   0.708   3.877   2.081 -0.1697 -0.7381 -0.6799
19279TIP3    H179328   0.714   3.841   1.993 -1.0235 -1.9511 -0.2693
19279TIP3    H279329   0.655   3.814   2.130  0.5618 -0.2637  0.8003
19280TIP3   OH279330   2.285   5.555  16.102  0.8540 -0.0185 -0.7013
19280TIP3    H179331   2.281   5.498  16.179 -2.4040 -0.7935 -1.3048
19280TIP3    H279332   2.250   5.502  16.031  0.2502  1.8536 -1.8807
19281TIP3   OH279333   1.443   6.230   2.688  0.1462  0.6581  0.1543
19281TIP3    H179334   1.437   6.143   2.649  1.2284 -0.3492  2.0608
19281TIP3    H279335   1.498   6.280   2.629  1.3257 -0.6502  0.1018
19282TIP3   OH279336   5.257   4.470   2.921  0.0833 -0.3127 -0.2068
19282TIP3    H179337   5.227   4.441   2.835  0.5386 -3.7407  0.6264
19282TIP3    H279338   5.348   4.439   2.926 -0.3095 -1.2929  1.9104
19283TIP3   OH279339   4.652   6.320   0.225  0.0967  0.3389 -0.3177
19283TIP3    H179340   4.697   6.253   0.173 -1.7957 -0.1429 -1.4125
19283TIP3    H279341   4.642   6.280   0.312  2.2060  0.6776  0.1349
19284TIP3   OH279342   3.790   2.866  12.783  0.1497 -0.0999 -0.5133
19284TIP3    H179343   3.765   2.892  12.695  1.8093  2.4760 -0.3135
19284TIP3    H279344   3.869   2.813  12.771  1.8374  2.2606 -0.5752
19285TIP3   OH279345   5.466   0.800  12.327 -0.6725  0.4044 -0.8666
19285TIP3    H179346   5.529   0.799  12.399 -1.4958 -1.6869 -0.1113
19285TIP3    H279347   5.459   0.893  12.303  1.6650  0.8302 -0.1119
19286TIP3   OH279348   2.933   4.368  15.192 -0.2005  0.0339  0.2658
19286TIP3    H179349   3.000   4.321  15.142  0.2847 -0.4730  1.3528
19286TIP3    H279350   2.975   4.387  15.276 -0.4474  2.2774 -0.0664
19287TIP3   OH279351   4.716   1.915  15.509 -0.2471 -0.5809 -0.0904
19287TIP3    H179352   4.793   1.967  15.533 -0.5336 -1.4405  3.2563
19287TIP3    H279353   4.646   1.949  15.564 -2.0865 -0.4435 -2.3900
19288TIP3   OH279354   2.157   3.252  11.430 -0.3671  0.2916  0.6533
19288TIP3    H179355   2.248   3.281  11.425 -0.2702 -0.2483 -1.3792
19288TIP3    H279356   2.110   3.327  11.467  0.6104  1.2570  0.0064
19289TIP3   OH279357   1.007   6.124  11.702  0.1637 -0.1888 -0.0594
19289TIP3    H179358   0.943   6.104  11.633 -0.5245  0.3383  0.4015
19289TIP3    H279359   1.004   6.048  11.759 -0.6643  0.1616  0.3911
19290TIP3   OH279360   5.570   1.169  16.215 -0.3248 -0.0812 -0.5360
19290TIP3    H179361   5.544   1.251  16.173  1.9732  1.1814  0.3233
19290TIP3    H279362   5.641   1.194  16.274  0.8421 -2.7870 -0.6540
19291TIP3   OH279363   5.913   6.550   1.891  0.1268  0.3325  0.6375
19291TIP3    H179364   5.887   6.635   1.856 -0.4959  1.2601  3.1259
19291TIP3    H279365   6.005   6.540   1.866 -0.0903  1.2262 -0.5972
19292TIP3   OH279366   1.436   3.372   7.003 -0.2299 -0.4844 -0.9583
19292TIP3    H179367   1.446   3.377   6.908  0.8968 -1.1821 -0.9013
19292TIP3    H279368   1.480   3.450   7.036 -0.8718 -0.0948 -1.0203
19293TIP3   OH279369   5.338   0.819  17.130 -0.3029 -0.2745  0.2755
19293TIP3    H179370   5.358   0.867  17.049 -4.7791  0.9213 -0.3946
19293TIP3    H279371   5.330   0.727  17.102 -0.2760 -0.1003 -0.3151
19294TIP3   OH279372   1.887   6.459  13.647  0.1638 -0.1037  0.1473
19294TIP3    H179373   1.958   6.516  13.675  0.9485 -0.0519 -1.8312
19294TIP3    H279374   1.884   6.391  13.715 -0.0334  1.5839  1.9298
19295TIP3   OH279375   5.824   1.047  14.396  0.0975 -0.1997  0.0865
19295TIP3    H179376   5.885   1.020  14.328  2.0807 -0.4205  1.8266
19295TIP3    H279377   5.738   1.044  14.355  0.9450 -2.6631 -1.7091
19296TIP3   OH279378   6.161   3.059   2.479  0.2466  0.0826  0.7119
19296TIP3    H179379   6.186   3.018   2.563  0.4579 -0.4026  0.4190
19296TIP3    H279380   6.229   3.030   2.418 -0.8092 -0.9622 -0.0236
19297TIP3   OH279381   5.711   0.816  12.040 -0.2377 -0.3017  0.3369
19297TIP3    H179382   5.725   0.894  11.986 -0.5545 -1.0508 -0.8504
19297TIP3    H279383   5.784   0.818  12.103 -0.0365  0.7474  0.0985
19298TIP3   OH279384   0.969   3.749   3.659  0.2789 -0.2828  0.0837
19298TIP3    H179385   1.063   3.734   3.665  0.4591  0.8317  0.2941
19298TIP3    H279386   0.940   3.754   3.750  0.4802  1.9306  0.0787
19299TIP3   OH279387   5.327   3.859   2.719 -0.0553 -0.3235  0.4821
19299TIP3    H179388   5.355   3.773   2.751  0.8796  0.2261  1.1883
19299TIP3    H279389   5.346   3.856   2.625 -0.2463 -0.9580  0.4539
19300TIP3   OH279390   0.496   5.618   0.382 -0.1981  0.1797  1.2801
19300TIP3    H179391   0.479   5.574   0.465 -0.6100 -0.2151  0.9880
19300TIP3    H279392   0.417   5.604   0.330 -0.2961  1.1580  1.1321
19301TIP3   OH279393   1.894   4.624   6.307  0.5076 -0.0100 -0.2238
19301TIP3    H179394   1.892   4.718   6.288 -0.9695 -0.2757 -1.6057
19301TIP3    H279395   1.892   4.619   6.402  0.3003  1.3597 -0.1290
19302TIP3   OH279396   4.223   1.362  13.068  0.1468  0.8572  0.1377
19302TIP3    H179397   4.223   1.457  13.057 -0.3134  0.7370 -1.1321
19302TIP3    H279398   4.130   1.338  13.062  0.3514  0.2265 -0.6907
19303TIP3   OH279399   1.335   3.107  17.015  0.2706 -0.0763  0.6171
19303TIP3    H179400   1.301   3.183  17.063 -0.3662  0.4077 -0.5471
19303TIP3    H279401   1.333   3.134  16.923  1.6893 -0.8880  0.3192
19304TIP3   OH279402   4.225   5.291  16.066  0.2200  0.5456 -0.3570
19304TIP3    H179403   4.262   5.238  15.995 -1.8965 -1.1571 -0.2637
19304TIP3    H279404   4.184   5.366  16.022 -0.7238 -0.2897 -0.9290
19305TIP3   OH279405   4.916   0.968  16.449 -0.3346  0.1291 -0.7074
19305TIP3    H179406   4.953   1.056  16.454  0.3733 -0.1719 -0.5420
19305TIP3    H279407   4.990   0.910  16.466 -0.7516 -0.5054 -1.0324
19306TIP3   OH279408   1.388   4.340   5.657 -0.4483  0.0990 -0.5158
19306TIP3    H179409   1.431   4.402   5.716 -0.1445  1.7183 -2.3441
19306TIP3    H279410   1.351   4.395   5.588  0.9762 -1.8137 -2.9339
19307TIP3   OH279411   5.416   6.725   4.184  0.1667  0.2474  0.1543
19307TIP3    H179412   5.446   6.778   4.110 -1.6407  2.1476  0.6908
19307TIP3    H279413   5.331   6.691   4.155  0.5537 -1.0389  0.4655
19308TIP3   OH279414   5.884   3.536  14.390 -0.4232 -0.0877 -0.2129
19308TIP3    H179415   5.862   3.617  14.436 -1.2804 -1.1745  1.3998
19308TIP3    H279416   5.935   3.486  14.454  0.4120 -0.6951 -1.3128
19309TIP3   OH279417   6.485   6.485  11.582 -0.5586 -0.1458 -0.2071
19309TIP3    H179418   6.500   6.391  11.573 -3.2468 -0.8875  1.7833
19309TIP3    H279419   6.406   6.501  11.530 -0.3161  0.9723 -0.2440
19310TIP3   OH279420   5.421   2.771   5.659  0.3265  0.5050  0.0136
19310TIP3    H179421   5.488   2.776   5.591  0.0599 -0.6337 -0.3556
19310TIP3    H279422   5.435   2.686   5.701  0.0337  0.8900  0.9094
19311TIP3   OH279423   5.162   3.104   4.732 -0.7951 -0.7359 -0.5180
19311TIP3    H179424   5.068   3.106   4.718 -0.8815 -2.1239 -0.2447
19311TIP3    H279425   5.197   3.056   4.657 -0.4255 -1.1787 -0.0709
19312TIP3   OH279426   0.913   0.482   1.653  0.1485  0.6094 -0.1762
19312TIP3    H179427   0.858   0.438   1.588 -0.3435  0.5888  0.2545
19312TIP3    H279428   0.972   0.537   1.600 -0.0558  0.3779 -0.6522
19313TIP3   OH279429   5.843   5.029  10.933 -1.0507 -0.5080 -1.4532
19313TIP3    H179430   5.758   5.073  10.935 -0.4056  0.7876 -0.1765
19313TIP3    H279431   5.885   5.060  10.853 -0.5999  1.3277 -0.5655
19314TIP3   OH279432   2.565   2.779   4.794 -0.1056 -0.2354 -0.2528
19314TIP3    H179433   2.601   2.800   4.708  2.3042 -2.2424  0.1679
19314TIP3    H279434   2.520   2.695   4.781  0.1483 -0.4801  0.3889
19315TIP3   OH279435   0.170   1.178   4.132  0.4243 -0.6181 -0.1162
19315TIP3    H179436   0.093   1.163   4.077 -0.3528  0.8346  0.5225
19315TIP3    H279437   0.171   1.105   4.193 -0.4996 -0.6063 -0.0798
19316TIP3   OH279438   1.526   1.863   5.830 -0.1071 -0.2652  0.2269
19316TIP3    H179439   1.576   1.836   5.753 -0.2134  0.1687 -0.0003
19316TIP3    H279440   1.588   1.913   5.882 -0.2997  0.2737 -0.0553
19317TIP3   OH279441   6.425   1.442   1.951  0.1234 -0.2088 -0.0543
19317TIP3    H179442   6.430   1.446   1.856  0.9824  0.5192  0.0082
19317TIP3    H279443   6.426   1.349   1.971 -2.9101 -0.5286 -0.8574
19318TIP3   OH279444   3.965   0.639   5.309 -0.2837 -0.0221 -0.6949
19318TIP3    H179445   4.051   0.629   5.269 -0.2701 -1.0403 -0.4326
19318TIP3    H279446   3.910   0.575   5.264 -1.1725  1.2735 -1.5419
19319TIP3   OH279447   1.217   2.138   2.057 -0.0185  0.1490  0.4931
19319TIP3    H179448   1.261   2.148   2.141  0.8453  0.3890  0.0252
19319TIP3    H279449   1.263   2.198   1.998 -1.9602  1.5936  0.3358
19320TIP3   OH279450   4.899   6.502  12.958 -0.2146 -0.3415  0.4063
19320TIP3    H179451   4.880   6.522  12.867 -1.3613 -1.7980  0.2856
19320TIP3    H279452   4.820   6.526  13.006 -0.4938 -1.6584  0.6608
19321TIP3   OH279453   4.702   0.927   3.147  0.4606 -0.2535 -0.0293
19321TIP3    H179454   4.673   0.956   3.233  0.3220 -2.2594  0.6587
19321TIP3    H279455   4.627   0.942   3.090 -0.3046 -1.0294  0.7249
19322TIP3   OH279456   5.031   3.212  10.764  0.2408 -0.0026  0.0673
19322TIP3    H179457   5.004   3.163  10.686 -0.9427  1.3400 -0.4101
19322TIP3    H279458   5.127   3.206  10.764  0.1496 -1.9388 -0.1802
19323TIP3   OH279459   0.537   5.068  13.446 -0.1410  0.1525  0.1610
19323TIP3    H179460   0.592   5.144  13.427 -0.8897  0.0216 -3.0029
19323TIP3    H279461   0.447   5.101  13.439 -0.4744 -0.8750 -0.6297
19324TIP3   OH279462   0.593   2.233  11.433  0.3489  0.2450 -0.0060
19324TIP3    H179463   0.636   2.161  11.479 -2.1087 -1.3192 -0.0287
19324TIP3    H279464   0.583   2.202  11.343  0.7985  1.3421 -0.4536
19325TIP3   OH279465   2.639   0.266   0.308  0.8136  0.6764  0.2554
19325TIP3    H179466   2.653   0.180   0.269 -2.5322  0.0507  0.0651
19325TIP3    H279467   2.623   0.324   0.233 -1.2456  0.4324  0.4462
19326TIP3   OH279468   5.802   2.061   3.189  0.7063  0.1352  0.7326
19326TIP3    H179469   5.794   2.123   3.117  0.2664  0.8437  1.3762
19326TIP3    H279470   5.712   2.044   3.217  0.9215  0.9352  1.9950
19327TIP3   OH279471   3.036   4.030   1.118 -0.1839  0.3300  0.3067
19327TIP3    H179472   2.955   3.987   1.145 -0.0460  0.7821  1.5007
19327TIP3    H279473   3.077   3.968   1.057 -1.9216  0.5468 -1.1845
19328TIP3   OH279474   0.125   3.970   5.142  0.1316  0.0414 -0.5535
19328TIP3    H179475   0.184   3.963   5.217 -0.5405  0.2348 -0.0022
19328TIP3    H279476   0.039   3.949   5.177 -0.5242  2.1605 -0.8053
19329TIP3   OH279477   6.410   0.388  14.663  0.0419  0.0901 -0.3873
19329TIP3    H179478   6.431   0.320  14.727 -1.5312 -0.0081  0.0861
19329TIP3    H279479   6.396   0.467  14.715  0.9021  0.5445 -0.8394
19330TIP3   OH279480   0.657   0.968  16.523 -0.8126  0.1723  0.7116
19330TIP3    H179481   0.600   1.044  16.522 -0.5832  0.3923 -1.9055
19330TIP3    H279482   0.616   0.906  16.462  0.6060 -0.5277  0.4240
19331TIP3   OH279483   2.064   0.489  12.718 -0.2047 -0.6174  0.4425
19331TIP3    H179484   2.094   0.543  12.645 -0.9986 -0.2120  0.4080
19331TIP3    H279485   1.997   0.432  12.679 -0.4127 -0.6107  0.7832
19332TIP3   OH279486   3.910   1.243   3.832  0.2588  0.1099 -0.2856
19332TIP3    H179487   3.984   1.299   3.810 -0.3302  1.1338  0.2546
19332TIP3    H279488   3.836   1.303   3.841 -0.5454 -0.8366 -0.3638
19333TIP3   OH279489   4.816   6.266  15.919 -0.0335  0.9093  0.4319
19333TIP3    H179490   4.801   6.349  15.963  0.6609  1.2772  0.0033
19333TIP3    H279491   4.864   6.213  15.983 -1.7231  0.2965  1.2298
19334TIP3   OH279492   6.393   4.096   4.554 -0.2345 -0.0698 -0.0075
19334TIP3    H179493   6.436   4.042   4.488 -1.8220  0.2328 -1.3412
19334TIP3    H279494   6.453   4.169   4.568  0.1356 -0.1549 -1.0912
19335TIP3   OH279495   0.446   0.817   0.984  0.2254  0.1698  0.3976
19335TIP3    H179496   0.533   0.777   0.987  0.1016 -0.1058  0.3585
19335TIP3    H279497   0.462   0.907   0.956  0.5228  0.1943  0.6429
19336TIP3   OH279498   3.112   3.094   2.580 -0.2694  0.6728  0.2618
19336TIP3    H179499   3.168   3.103   2.503 -0.0591 -0.1256  0.3185
19336TIP3    H279500   3.026   3.071   2.544 -0.2835  0.7503  0.2445
19337TIP3   OH279501   2.279   4.955   1.752  0.3082 -0.6023 -0.0253
19337TIP3    H179502   2.260   5.011   1.676 -0.7704 -0.1963  0.5169
19337TIP3    H279503   2.370   4.927   1.740  0.7403  0.9370 -0.5314
19338TIP3   OH279504   4.271   0.133  14.041  0.1794  0.2097 -0.0706
19338TIP3    H179505   4.184   0.171  14.047  0.9996  2.4712 -1.1993
19338TIP3    H279506   4.307   0.167  13.959  1.1365 -2.9258 -1.1244
19339TIP3   OH279507   3.735   5.029  17.144 -0.4369 -0.2274 -0.3570
19339TIP3    H179508   3.715   5.062  17.232  1.1407 -1.9367  0.7173
19339TIP3    H279509   3.740   5.108  17.089 -1.2280  0.8999  1.1163
19340TIP3   OH279510   1.718   2.828   3.299 -0.1362  0.3818 -0.0967
19340TIP3    H179511   1.643   2.835   3.359  0.3620 -0.0150  0.5813
19340TIP3    H279512   1.793   2.856   3.351  0.4246 -0.7501 -0.2809
19341TIP3   OH279513   0.891   4.864   2.615 -0.0666  0.1138 -0.3274
19341TIP3    H179514   0.874   4.927   2.685 -0.1234 -0.9563  0.6642
19341TIP3    H279515   0.841   4.786   2.641 -3.7421  1.0057 -3.7366
19342TIP3   OH279516   5.146   5.816   3.612  0.7433  0.1793 -0.1266
19342TIP3    H179517   5.201   5.887   3.644  0.4608  1.3793 -2.1828
19342TIP3    H279518   5.143   5.828   3.517 -1.8230 -0.7510 -0.2380
19343TIP3   OH279519   1.350   4.169   0.709  0.2150  0.6040  0.0158
19343TIP3    H179520   1.275   4.210   0.666  1.1045  1.7445 -0.4943
19343TIP3    H279521   1.371   4.227   0.782  1.6542  1.2522 -0.8752
19344TIP3   OH279522   3.642   3.513  11.157  1.0120 -0.0436  0.5604
19344TIP3    H179523   3.633   3.608  11.153 -0.2671 -0.1423  0.7236
19344TIP3    H279524   3.736   3.498  11.149  1.2568  1.2401  0.7677
19345TIP3   OH279525   0.604   5.446  13.957 -0.2588  0.1599  0.2014
19345TIP3    H179526   0.594   5.386  13.883 -1.0874  0.4643  0.0655
19345TIP3    H279527   0.645   5.524  13.920 -0.0239  0.0361  0.2011
19346TIP3   OH279528   3.742   4.669   1.881 -0.2083  0.2869  0.3330
19346TIP3    H179529   3.704   4.593   1.923  0.6275 -0.7406 -0.6891
19346TIP3    H279530   3.732   4.740   1.944  0.3924 -1.0291  1.9579
19347TIP3   OH279531   5.504   4.850  14.362  0.4565  0.3702  0.0820
19347TIP3    H179532   5.432   4.911  14.349  0.0261 -0.3252 -0.9438
19347TIP3    H279533   5.471   4.767  14.327  0.9247 -0.5247  1.6969
19348TIP3   OH279534   4.333   2.063   1.534  0.3045  0.4731  0.0313
19348TIP3    H179535   4.305   2.154   1.520  0.6913  0.8755  1.6500
19348TIP3    H279536   4.319   2.048   1.628  0.0065 -1.2331 -0.2552
19349TIP3   OH279537   5.882   1.082  12.322  0.3765 -0.0629  0.1031
19349TIP3    H179538   5.830   1.162  12.328  0.0597 -0.3538  2.1946
19349TIP3    H279539   5.900   1.071  12.229 -3.0660  0.2247 -0.7218
19350TIP3   OH279540   1.677   0.916   2.372  0.6204 -0.6351  0.1546
19350TIP3    H179541   1.637   0.933   2.458 -1.5656  0.0212 -0.9288
19350TIP3    H279542   1.634   0.837   2.340  0.4819 -0.1669 -0.8586
19351TIP3   OH279543   6.745   3.666   4.409 -0.3526  0.5047 -0.3996
19351TIP3    H179544   6.653   3.690   4.420 -0.3125  1.2380 -1.5185
19351TIP3    H279545   6.762   3.679   4.316  0.0339 -2.7340 -0.8760
19352TIP3   OH279546   1.065   3.625   4.050  0.0891  0.0937  0.3161
19352TIP3    H179547   0.970   3.632   4.042  0.0946  1.1041  0.8912
19352TIP3    H279548   1.082   3.531   4.054 -0.8535 -0.1074 -0.1285
19353TIP3   OH279549   0.055   4.924   5.457 -0.5246  0.5289 -0.5995
19353TIP3    H179550  -0.031   4.906   5.493 -1.0970  1.7197 -1.3133
19353TIP3    H279551   0.111   4.935   5.535 -1.3949  1.4699 -0.0715
19354TIP3   OH279552   2.302   1.124  15.832  0.5070 -0.0171  0.3970
19354TIP3    H179553   2.383   1.143  15.785  0.2515 -0.1877 -0.1118
19354TIP3    H279554   2.232   1.143  15.770  0.0716  1.6470  1.3254
19355TIP3   OH279555   6.068   1.136  17.208 -0.5266 -0.6707  0.0555
19355TIP3    H179556   6.125   1.085  17.265  1.7167  0.1848 -1.2740
19355TIP3    H279557   5.979   1.117  17.239  0.4299 -2.3256  2.0257
19356TIP3   OH279558   5.851   2.799   0.905 -0.1834 -0.6663 -0.0762
19356TIP3    H179559   5.819   2.710   0.920 -0.5744 -0.5976 -0.4628
19356TIP3    H279560   5.811   2.825   0.822 -0.8463  0.2136  0.4941
19357TIP3   OH279561   1.548   3.453   2.423 -0.4520  0.2985 -0.3893
19357TIP3    H179562   1.492   3.494   2.356 -1.4805 -1.4358 -0.6431
19357TIP3    H279563   1.489   3.434   2.495  0.0492 -0.5334 -0.1914
19358TIP3   OH279564   6.742   5.225  12.018 -0.3854 -0.3548  0.0598
19358TIP3    H179565   6.756   5.311  11.977 -0.6439 -0.8677 -1.1687
19358TIP3    H279566   6.735   5.165  11.944  0.4227 -1.5435  0.9026
19359TIP3   OH279567   3.458   5.769   5.539 -0.6847 -0.7457  0.9795
19359TIP3    H179568   3.467   5.838   5.473  1.6146 -0.8598  1.0770
19359TIP3    H279569   3.385   5.715   5.508 -0.9000  0.2978 -0.4292
19360TIP3   OH279570   4.750   5.907   5.641  0.0664  0.1504 -0.6550
19360TIP3    H179571   4.688   5.980   5.644  0.3787  0.4187 -0.6293
19360TIP3    H279572   4.774   5.892   5.733 -1.9006 -1.6507 -0.3625
19361TIP3   OH279573   0.584   4.266  12.347  0.4222  0.0014 -0.0568
19361TIP3    H179574   0.670   4.308  12.351  0.4492  0.0567 -0.9929
19361TIP3    H279575   0.579   4.230  12.258 -0.1399 -0.8283  0.3066
19362TIP3   OH279576   0.509   5.538   1.888 -0.7060  0.5200  0.3724
19362TIP3    H179577   0.582   5.478   1.905  0.2723  1.0987 -1.5465
19362TIP3    H279578   0.533   5.618   1.935  0.0262  0.7744 -0.4081
19363TIP3   OH279579   0.364   6.016  15.174  0.7529 -0.5741  0.0682
19363TIP3    H179580   0.418   5.989  15.099 -0.0901 -0.1557 -0.7068
19363TIP3    H279581   0.404   6.098  15.204  1.4461 -1.0475  0.4598
19364TIP3   OH279582   6.766   3.724   4.900 -0.0552  0.7096 -0.3323
19364TIP3    H179583   6.737   3.660   4.965 -1.2595  0.2011 -1.3238
19364TIP3    H279584   6.846   3.686   4.863  3.5620  3.1547  3.9943
19365TIP3   OH279585   3.612   3.312  10.853 -0.0209 -0.8390 -0.1510
19365TIP3    H179586   3.676   3.252  10.891 -0.0295  0.4166  1.9621
19365TIP3    H279587   3.530   3.263  10.851  0.3243 -1.4256  0.0564
19366TIP3   OH279588   5.031   5.139   2.916 -0.0565  0.3006  0.0147
19366TIP3    H179589   5.019   5.114   3.007  2.7057 -1.7836 -0.0499
19366TIP3    H279590   5.017   5.233   2.914  1.1932  0.6401  2.9018
19367TIP3   OH279591   4.978   3.401   5.241  0.4814 -1.0354 -0.2045
19367TIP3    H179592   4.934   3.448   5.170  0.8138  0.4672  0.5466
19367TIP3    H279593   5.070   3.404   5.217  0.6614 -0.0126  0.5409
19368TIP3   OH279594   2.078   6.606   2.698  0.6033  0.3471 -0.1413
19368TIP3    H179595   2.109   6.617   2.788  2.3048  1.5985 -0.8216
19368TIP3    H279596   2.093   6.513   2.678 -0.5697 -0.1388  1.0927
19369TIP3   OH279597   3.228   1.091  10.863  0.0370 -0.1958 -0.3122
19369TIP3    H179598   3.176   1.024  10.819  0.0956 -0.3060 -0.2134
19369TIP3    H279599   3.316   1.053  10.869  0.9332  1.1526 -3.2264
19370TIP3   OH279600   3.855   6.375   3.588  0.2997  0.2121 -0.2594
19370TIP3    H179601   3.914   6.316   3.636  0.9648  0.6515 -0.5313
19370TIP3    H279602   3.911   6.415   3.522 -0.2665  0.7871 -0.3877
19371TIP3   OH279603   3.514   1.870  17.106  0.5982  0.1140 -0.2070
19371TIP3    H179604   3.500   1.786  17.062 -1.1545 -0.4190  1.2492
19371TIP3    H279605   3.522   1.933  17.035  0.9697 -1.1279 -1.3189
19372TIP3   OH279606   3.475   1.287   4.592 -0.9725 -0.2471  0.3513
19372TIP3    H179607   3.403   1.290   4.529 -1.2559 -0.1674  0.6788
19372TIP3    H279608   3.520   1.204   4.573 -0.8145 -0.0394 -0.2156
19373TIP3   OH279609   3.867   3.063   5.119  0.5060 -0.5995  0.5283
19373TIP3    H179610   3.912   3.129   5.067 -0.7834 -0.4405 -0.4332
19373TIP3    H279611   3.872   3.094   5.209  1.1201  0.0872  0.2595
19374TIP3   OH279612   6.348   1.012   5.156  0.0090  0.1185 -0.4531
19374TIP3    H179613   6.332   0.918   5.160  1.8427 -0.2014 -0.0507
19374TIP3    H279614   6.312   1.045   5.239  0.2838 -0.3754 -0.1337
19375TIP3   OH279615   2.673   6.798   2.677  0.1058 -0.2371  0.3414
19375TIP3    H179616   2.680   6.740   2.602 -1.9681 -0.4414  0.2502
19375TIP3    H279617   2.589   6.776   2.717  0.0658  1.4928  1.3284
19376TIP3   OH279618   2.029   5.571   1.284 -0.6590 -0.2500 -0.3335
19376TIP3    H179619   1.970   5.577   1.209 -0.7522  1.0747 -0.1682
19376TIP3    H279620   1.983   5.617   1.354 -1.4352 -3.0136  1.1494
19377TIP3   OH279621   1.392   2.098  12.540 -0.0845  0.1343 -0.1050
19377TIP3    H179622   1.444   2.143  12.607  1.6703  2.6204 -2.8973
19377TIP3    H279623   1.342   2.032  12.589  1.6211  1.2467  3.4881
19378TIP3   OH279624   5.593   6.598  13.539 -0.4560  0.2140  0.1308
19378TIP3    H179625   5.522   6.559  13.487  0.5204 -0.2694 -0.9003
19378TIP3    H279626   5.673   6.563  13.499  0.4297  2.1272  0.1148
19379TIP3   OH279627   0.190   3.522   3.016 -0.1017 -0.0541  0.0601
19379TIP3    H179628   0.256   3.556   2.956 -1.4866  0.9968 -0.9608
19379TIP3    H279629   0.135   3.466   2.961 -0.5074 -0.2880  0.6969
19380TIP3   OH279630   4.172   4.498   2.319 -0.0611  0.2667  0.3914
19380TIP3    H179631   4.161   4.582   2.364 -0.2440  0.7739 -0.5783
19380TIP3    H279632   4.164   4.519   2.226 -1.1208 -0.9802  0.1636
19381TIP3   OH279633   2.647   3.546  11.356 -0.0610  0.2209  0.2906
19381TIP3    H179634   2.726   3.534  11.409  1.9495  1.2046 -2.2307
19381TIP3    H279635   2.628   3.459  11.320  1.0120  0.2927 -0.4991
19382TIP3   OH279636   0.495   6.717   0.985  0.0377  0.2595  0.4577
19382TIP3    H179637   0.587   6.732   1.008 -0.5554  0.5965  2.8936
19382TIP3    H279638   0.491   6.625   0.962  0.8461  0.0333  1.1614
19383TIP3   OH279639   1.125   3.838  13.994 -0.2320  0.2440  0.2693
19383TIP3    H179640   1.106   3.921  13.952 -1.6292  0.7391  1.7684
19383TIP3    H279641   1.118   3.857  14.088  2.1296 -0.9408  0.7643
19384TIP3   OH279642   2.492   6.010  15.062  0.2526 -0.1451 -0.1121
19384TIP3    H179643   2.544   6.022  14.983  0.5177 -0.7942 -0.0412
19384TIP3    H279644   2.549   6.041  15.133  0.6950 -1.2025  0.0044
19385TIP3   OH279645   1.985   1.517   1.262  0.5123  0.4145 -0.0040
19385TIP3    H179646   1.958   1.519   1.170 -0.6227 -1.3563  0.2482
19385TIP3    H279647   2.063   1.463   1.263  0.8975  0.9575  0.0148
19386TIP3   OH279648   0.717   5.363   1.835  0.2211 -0.1325 -0.2566
19386TIP3    H179649   0.765   5.445   1.825 -3.3515  1.9826 -2.1842
19386TIP3    H279650   0.756   5.304   1.771  0.0552  1.6376 -2.0920
19387TIP3   OH279651   2.499   0.725   0.880  0.1292  0.4740  0.1027
19387TIP3    H179652   2.414   0.759   0.907  0.1419  0.0688  0.6657
19387TIP3    H279653   2.494   0.631   0.899  0.1270  0.1545 -1.3256
19388TIP3   OH279654   4.018   2.060   0.288 -0.1545 -0.2249  0.0860
19388TIP3    H179655   4.048   1.971   0.265  1.3011  0.4209 -0.6596
19388TIP3    H279656   4.004   2.103   0.204 -0.3900  0.4049  0.4402
19389TIP3   OH279657   1.286   4.205  13.166 -0.2402 -0.5204 -0.5088
19389TIP3    H179658   1.381   4.212  13.164 -0.1493 -0.6341  1.4183
19389TIP3    H279659   1.265   4.137  13.103  1.2532 -2.6575  1.1673
19390TIP3   OH279660   2.225   0.395   3.667 -0.2682  0.2373  0.5921
19390TIP3    H179661   2.254   0.455   3.599  0.5666 -1.0144 -0.2117
19390TIP3    H279662   2.182   0.323   3.620 -0.3031 -0.3113  1.4314
19391TIP3   OH279663   1.899   1.026   1.385  0.3595 -0.3730  0.2694
19391TIP3    H179664   1.886   1.070   1.301  1.8534  0.1075  0.2650
19391TIP3    H279665   1.881   1.093   1.450  0.6501 -0.3172  0.2957
19392TIP3   OH279666   3.644   1.518  11.394 -0.0157 -0.0050  0.2371
19392TIP3    H179667   3.556   1.538  11.362 -0.0257 -0.5330 -0.0658
19392TIP3    H279668   3.702   1.563  11.333 -0.0730  0.8125  0.7578
19393TIP3   OH279669   0.483   3.488   1.565  0.4024  0.2982  0.0935
19393TIP3    H179670   0.578   3.475   1.572  0.7713  1.4099 -1.9572
19393TIP3    H279671   0.449   3.401   1.542  0.7027 -0.4129  2.1504
19394TIP3   OH279672   1.518   3.695   3.185  0.0516 -0.1659 -0.4209
19394TIP3    H179673   1.587   3.642   3.224  1.2219  2.2488  1.0487
19394TIP3    H279674   1.545   3.708   3.094  1.3339  0.3601  0.0127
19395TIP3   OH279675   2.923   2.324  12.503  0.6474 -0.3471 -0.1568
19395TIP3    H179676   2.872   2.336  12.423  0.7654 -0.4910 -0.2543
19395TIP3    H279677   2.913   2.231  12.523 -0.0844 -0.1449  0.4724
19396TIP3   OH279678   1.602   2.721   4.972 -0.3007 -0.4693 -0.4675
19396TIP3    H179679   1.570   2.799   4.926 -1.5950 -1.0582 -0.6234
19396TIP3    H279680   1.560   2.648   4.926  2.0232 -1.3820 -1.2679
19397TIP3   OH279681   1.078   3.461   6.633  0.0276 -0.0229  0.1177
19397TIP3    H179682   1.088   3.406   6.711 -3.1702  0.2695  0.9044
19397TIP3    H279683   1.023   3.409   6.574 -1.7971  1.6545  0.2492
19398TIP3   OH279684   2.999   1.449  15.949  0.1894 -0.6451 -0.1565
19398TIP3    H179685   3.037   1.534  15.927  0.0881 -1.1134 -2.4336
19398TIP3    H279686   2.905   1.461  15.942  0.2010 -1.1330 -1.4313
19399TIP3   OH279687   4.098   1.550  16.227  0.5320  0.2389  0.2289
19399TIP3    H179688   4.160   1.518  16.162  0.0736  0.8507 -0.5229
19399TIP3    H279689   4.037   1.605  16.178 -0.4011 -0.0576  1.0014
19400TIP3   OH279690   1.131   0.986  10.930 -0.3121 -0.4517  0.8104
19400TIP3    H179691   1.064   1.017  10.869 -1.0239 -1.4831  1.0504
19400TIP3    H279692   1.197   1.056  10.930 -0.1326 -0.5377 -1.3797
19401TIP3   OH279693   2.637   1.905  11.775 -0.1511 -0.1771  0.0305
19401TIP3    H179694   2.713   1.941  11.821  0.3820  1.2612 -1.8532
19401TIP3    H279695   2.671   1.827  11.731 -0.4615 -1.0616  1.2734
19402TIP3   OH279696   3.679   4.204   0.168 -0.2028 -0.4009  0.6677
19402TIP3    H179697   3.727   4.156   0.100 -0.5370 -1.1342  0.9364
19402TIP3    H279698   3.682   4.146   0.244 -2.0010 -0.7517  0.5185
19403TIP3   OH279699   2.888   2.062   3.983 -0.0435 -0.4941 -0.0919
19403TIP3    H179700   2.798   2.054   4.016 -0.7025 -1.0046 -1.9246
19403TIP3    H279701   2.940   2.008   4.043 -1.2152 -1.5169  0.0329
19404TIP3   OH279702   3.473   4.113   3.650  0.5099  0.2819 -0.0042
19404TIP3    H179703   3.561   4.085   3.673  0.5516  0.7706  0.4605
19404TIP3    H279704   3.459   4.193   3.702 -0.2856  0.0773  0.1076
19405TIP3   OH279705   4.062   1.475   4.058 -0.2238 -0.2368  0.0183
19405TIP3    H179706   4.006   1.527   4.116 -1.2890  1.3278 -2.2617
19405TIP3    H279707   4.104   1.411   4.116 -1.4317  1.0146  2.4263
19406TIP3   OH279708   0.208   4.136  16.261 -0.4800  0.3075 -0.3903
19406TIP3    H179709   0.125   4.136  16.309  0.4996 -1.6420  1.4641
19406TIP3    H279710   0.254   4.214  16.293  0.0527 -0.8291  1.7566
19407TIP3   OH279711   2.501   5.188  15.838  0.2622 -0.1161 -0.2047
19407TIP3    H179712   2.500   5.095  15.815 -4.1561 -0.2713 -0.2964
19407TIP3    H279713   2.505   5.190  15.934 -1.3642 -0.5887 -0.0951
19408TIP3   OH279714   0.389   2.703  16.512 -0.3202 -0.5684  0.2654
19408TIP3    H179715   0.432   2.738  16.434 -0.6528 -0.7863 -0.0183
19408TIP3    H279716   0.353   2.619  16.484  2.0150 -2.0607  1.4125
19409TIP3   OH279717   1.780   4.218   1.916  0.6486  0.6466  0.0566
19409TIP3    H179718   1.709   4.211   1.851 -0.3558  2.9563  0.8088
19409TIP3    H279719   1.842   4.279   1.877 -0.2992  2.6033  1.4563
19410TIP3   OH279720   0.328   5.374  13.664 -0.1641 -0.1236  0.0258
19410TIP3    H179721   0.278   5.449  13.696  0.0341  0.0104  0.0188
19410TIP3    H279722   0.284   5.298  13.704  1.2091  0.1286  2.1892
19411TIP3   OH279723   5.112   4.175   5.743  0.3121 -0.9145  0.5395
19411TIP3    H179724   5.086   4.165   5.651 -0.6990 -0.8467  0.8080
19411TIP3    H279725   5.206   4.155   5.743  0.7485  0.8753 -0.8138
19412TIP3   OH279726   6.446   4.782  13.434 -0.2959 -0.5319  0.3485
19412TIP3    H179727   6.411   4.870  13.422  2.2236  0.3297 -1.7665
19412TIP3    H279728   6.500   4.788  13.513  0.2531 -0.0068 -0.0560
19413TIP3   OH279729   5.487   6.081   2.520 -0.1551  0.3031  0.1141
19413TIP3    H179730   5.471   5.988   2.507  1.1339  0.1062 -0.2215
19413TIP3    H279731   5.423   6.107   2.587 -0.1036 -0.9634  0.6895
19414TIP3   OH279732   1.034   4.321  15.701  0.1757 -0.1312  0.5981
19414TIP3    H179733   1.014   4.356  15.614  3.4944 -2.6425 -1.3858
19414TIP3    H279734   1.004   4.230  15.698  0.8988 -0.4331  1.8311
19415TIP3   OH279735   2.300   4.639  13.334 -1.3971  0.4316  0.5347
19415TIP3    H179736   2.210   4.670  13.318 -1.8529 -1.0021  0.1852
19415TIP3    H279737   2.294   4.591  13.416 -1.1971 -0.5437 -0.0005
19416TIP3   OH279738   3.673   3.067  12.268  0.4507 -0.1696 -0.5536
19416TIP3    H179739   3.596   3.044  12.319  1.2318  1.0492  1.2750
19416TIP3    H279740   3.639   3.124  12.198 -0.4742 -0.8669 -0.6894
19417TIP3   OH279741   1.513   2.646  13.325 -0.2436 -0.1867  0.3150
19417TIP3    H179742   1.471   2.574  13.371 -0.5032 -0.3997 -0.2436
19417TIP3    H279743   1.588   2.669  13.379 -0.3541 -0.6527  0.6677
19418TIP3   OH279744   0.957   0.413  16.627  0.2086 -0.0825  0.3508
19418TIP3    H179745   0.897   0.341  16.607 -1.6854  1.2212  0.9716
19418TIP3    H279746   0.921   0.487  16.577  1.2118  0.7909  0.9040
19419TIP3   OH279747   1.418   4.661  11.517  0.1047  0.0902  0.1740
19419TIP3    H179748   1.490   4.684  11.576 -0.1118 -0.2708  0.5845
19419TIP3    H279749   1.385   4.745  11.486  0.7697  0.2561 -0.1019
19420TIP3   OH279750   6.781   5.657   4.134 -0.2522  0.0962  0.6687
19420TIP3    H179751   6.687   5.666   4.119  0.0018  0.8141 -0.5938
19420TIP3    H279752   6.791   5.570   4.172 -1.3134 -0.4364 -0.2205
19421TIP3   OH279753   1.596   5.362   3.591  0.2933 -0.3790  0.0595
19421TIP3    H179754   1.623   5.440   3.542  2.2047 -0.7049  0.5309
19421TIP3    H279755   1.583   5.394   3.681  1.9067 -0.7044  0.4446
19422TIP3   OH279756   5.103   4.106   1.321 -0.2879  0.2335  0.0950
19422TIP3    H179757   5.050   4.056   1.259  0.3076 -0.5990  0.2419
19422TIP3    H279758   5.189   4.113   1.279 -0.0487  0.1697  0.5661
19423TIP3   OH279759   0.367   1.457   6.539  0.1526  0.6675  0.2369
19423TIP3    H179760   0.336   1.376   6.499  0.7835  1.3694 -1.8198
19423TIP3    H279761   0.320   1.463   6.622 -1.6727 -0.5953 -0.6453
19424TIP3   OH279762   0.460   5.324   2.788  0.0047  0.4014  0.1894
19424TIP3    H179763   0.425   5.364   2.709  0.8932  2.8085  0.9030
19424TIP3    H279764   0.395   5.259   2.813  0.6065 -1.9057 -3.5120
19425TIP3   OH279765   1.497   2.100  16.013  0.2558 -0.2556 -0.8916
19425TIP3    H179766   1.562   2.158  15.975  0.8896  0.3541  1.0114
19425TIP3    H279767   1.450   2.154  16.077 -2.0717 -0.7178 -2.0972
19426TIP3   OH279768   4.030   6.292   0.265  0.1828 -0.0047 -0.0771
19426TIP3    H179769   4.097   6.249   0.211  0.1363  0.1115 -0.2296
19426TIP3    H279770   4.006   6.226   0.330  1.6532  0.5391  1.0488
19427TIP3   OH279771   4.538   5.165  15.320  0.9108  0.0049  0.1334
19427TIP3    H179772   4.610   5.158  15.382  0.9927 -1.1300 -0.0691
19427TIP3    H279773   4.540   5.257  15.291  1.0765  0.4663  1.5281
19428TIP3   OH279774   6.709   0.485   1.945 -0.0067  0.3965  0.3746
19428TIP3    H179775   6.729   0.579   1.942 -1.6456  0.9353  3.0336
19428TIP3    H279776   6.618   0.479   1.916  0.1101 -0.3977  0.1583
19429TIP3   OH279777   4.519   5.417  13.636  0.5261 -0.3593 -0.9762
19429TIP3    H179778   4.490   5.338  13.683 -0.7335  1.1276  0.9263
19429TIP3    H279779   4.449   5.434  13.573  0.4159 -0.3501 -0.8536
19430TIP3   OH279780   5.114   5.422  12.337  0.0398  0.4204  0.5063
19430TIP3    H179781   5.172   5.475  12.282 -0.1117  1.3303  1.1888
19430TIP3    H279782   5.070   5.362  12.276  1.6941 -0.3007 -0.0202
19431TIP3   OH279783   3.606   3.630   5.111 -0.2977  0.4954  0.2650
19431TIP3    H179784   3.535   3.692   5.096 -0.0168  1.2399  1.8444
19431TIP3    H279785   3.575   3.574   5.182 -0.1976 -0.6377 -0.5627
19432TIP3   OH279786   6.250   6.503   4.425 -0.3993  0.0712  0.1566
19432TIP3    H179787   6.258   6.475   4.334 -0.7756  0.8858 -0.1377
19432TIP3    H279788   6.330   6.553   4.442  0.7246 -1.8941  0.9723
19433TIP3   OH279789   1.247   2.336  14.323 -0.2765  0.1615  0.0128
19433TIP3    H179790   1.260   2.419  14.369  0.2210  0.8148 -1.2540
19433TIP3    H279791   1.152   2.327  14.315 -0.3875 -0.1497  1.4572
19434TIP3   OH279792   4.394   5.748   5.218 -0.2729  0.8219  0.1562
19434TIP3    H179793   4.393   5.652   5.213  2.4436  0.7166 -0.2603
19434TIP3    H279794   4.461   5.767   5.284  1.9492  2.3529 -2.3093
19435TIP3   OH279795   1.839   4.219   1.477  0.2969  0.3891  0.2084
19435TIP3    H179796   1.848   4.173   1.394  0.3101  1.1750 -0.2373
19435TIP3    H279797   1.926   4.214   1.517  0.2734 -0.0459  0.2042
19436TIP3   OH279798   5.360   0.014  13.921  0.8427 -0.2688  0.2913
19436TIP3    H179799   5.381   0.027  13.828  2.3375 -0.3308  0.5963
19436TIP3    H279800   5.307  -0.065  13.923 -0.4930  0.5594 -0.6526
19437TIP3   OH279801   5.326   2.965   2.134  0.3274 -0.2106  0.0806
19437TIP3    H179802   5.406   3.009   2.164 -1.3061  0.7150  3.5135
19437TIP3    H279803   5.352   2.873   2.126  1.9078  0.1707  0.3798
19438TIP3   OH279804   0.281   5.456  13.979 -0.4279 -0.3550 -0.0085
19438TIP3    H179805   0.357   5.419  13.934  1.0408  1.2720  0.9961
19438TIP3    H279806   0.234   5.504  13.911 -0.0884 -0.6788 -0.4758
19439TIP3   OH279807   0.584   1.527   3.274 -0.7101  0.2746 -1.0920
19439TIP3    H179808   0.533   1.506   3.352 -0.4651  3.1920 -0.0402
19439TIP3    H279809   0.603   1.620   3.281  2.8688 -0.1636 -2.5646
19440TIP3   OH279810   4.538   5.034   0.032  0.3292  0.3112 -0.0397
19440TIP3    H179811   4.588   5.039  -0.049 -0.7987 -1.4288 -0.9139
19440TIP3    H279812   4.602   5.011   0.099  1.1382  0.9394 -0.5836
19441TIP3   OH279813   1.446   1.109   0.644  0.3440 -0.6270 -0.4238
19441TIP3    H179814   1.478   1.022   0.667 -2.8520 -1.5572  1.1278
19441TIP3    H279815   1.425   1.104   0.551  0.1369 -1.5819 -0.3323
19442TIP3   OH279816   1.181   6.280  15.683 -0.2840  0.1608 -0.4730
19442TIP3    H179817   1.257   6.330  15.656  0.0816  0.0883  0.3989
19442TIP3    H279818   1.175   6.293  15.777 -1.4105  0.2491 -0.5358
19443TIP3   OH279819   3.851   2.811  11.370  0.9676  0.4459  0.0420
19443TIP3    H179820   3.821   2.785  11.283  0.3713  0.2582  0.2933
19443TIP3    H279821   3.881   2.730  11.411 -1.3512 -0.0187  1.0046
19444TIP3   OH279822   4.839   2.035  14.314 -0.4697 -0.3194 -0.3663
19444TIP3    H179823   4.761   2.030  14.259 -1.1353  0.8718  0.4389
19444TIP3    H279824   4.905   2.077  14.258 -2.1568  4.3371  0.6468
19445TIP3   OH279825   0.156   4.007  12.074 -0.0049  0.1701 -0.6952
19445TIP3    H179826   0.162   4.093  12.117  0.4844  0.1940 -0.8021
19445TIP3    H279827   0.063   3.998  12.052 -0.4777 -0.2903  1.2757
19446TIP3   OH279828   6.389   1.107  15.664 -0.2909  0.1969  0.5015
19446TIP3    H179829   6.463   1.166  15.648 -0.7111  0.5442 -0.2239
19446TIP3    H279830   6.373   1.065  15.579 -0.3106 -0.6029  0.8877
19447TIP3   OH279831   2.102   1.359  16.959 -0.1157 -0.1640 -0.2769
19447TIP3    H179832   2.017   1.321  16.937 -0.2059  0.1950 -0.5731
19447TIP3    H279833   2.166   1.295  16.928 -0.2762 -0.4460 -0.0320
19448TIP3   OH279834   5.264   3.929  12.128 -0.1262  0.2530 -0.3961
19448TIP3    H179835   5.217   3.968  12.054  0.1885 -0.3032 -0.9037
19448TIP3    H279836   5.263   3.835  12.110 -0.9634 -0.0048  0.8599
19449TIP3   OH279837   6.454   6.543   2.362  0.0219  0.2660 -0.9643
19449TIP3    H179838   6.514   6.616   2.377 -1.3850  0.9240  2.4368
19449TIP3    H279839   6.492   6.471   2.412  0.0162 -0.5545 -2.1138
19450TIP3   OH279840   0.560   6.217  13.832 -0.1282 -0.4604  0.0556
19450TIP3    H179841   0.631   6.153  13.837  0.2662 -0.0427 -0.0553
19450TIP3    H279842   0.508   6.189  13.756 -0.2966 -0.9782  0.3594
19451TIP3   OH279843   2.566   2.337   3.602  0.6690  0.2187  0.5106
19451TIP3    H179844   2.533   2.414   3.648  0.0222 -0.5934  1.4351
19451TIP3    H279845   2.614   2.373   3.527 -0.4925  1.4944  0.3420
19452TIP3   OH279846   3.501   6.613  15.341  0.2679 -0.3112  0.1668
19452TIP3    H179847   3.579   6.651  15.382  0.7345  0.3637 -1.2912
19452TIP3    H279848   3.517   6.519  15.344  2.1240 -0.1413 -1.8589
19453TIP3   OH279849   6.295   3.544   0.979  0.5726  0.4940  0.7166
19453TIP3    H179850   6.357   3.535   0.907 -0.9591  1.1316 -0.7553
19453TIP3    H279851   6.231   3.475   0.965  0.6080  0.1992  1.8893
19454TIP3   OH279852   2.152   1.860  14.801  0.2523 -0.6313 -0.0991
19454TIP3    H179853   2.179   1.950  14.821  1.3398 -0.9899  0.1622
19454TIP3    H279854   2.191   1.843  14.715 -1.0570 -0.4304 -0.7536
19455TIP3   OH279855   2.207   3.413  17.282  0.1678  0.4257 -0.3862
19455TIP3    H179856   2.261   3.491  17.267  1.0355  0.0221  0.4972
19455TIP3    H279857   2.133   3.446  17.333  0.0892  0.8142 -0.7413
19456TIP3   OH279858   6.662   0.952  10.697 -0.1140  0.1074 -0.5359
19456TIP3    H179859   6.590   0.952  10.760 -0.0990  0.9522 -0.5052
19456TIP3    H279860   6.729   0.896  10.737 -1.0331 -1.3222 -0.9203
19457TIP3   OH279861   5.496   6.194  15.637 -0.2257  0.3259  0.0482
19457TIP3    H179862   5.564   6.223  15.576 -1.3164 -1.1021 -1.9801
19457TIP3    H279863   5.533   6.116  15.679  0.1565  0.7444  0.4974
19458TIP3   OH279864   4.837   6.138   2.472  0.1049 -0.4685 -0.1145
19458TIP3    H179865   4.790   6.058   2.495 -0.9889  0.6146  1.6140
19458TIP3    H279866   4.925   6.126   2.509 -0.1623 -0.7298  0.4466
19459TIP3   OH279867   0.510   4.984  14.224  0.6430 -0.3877  0.5110
19459TIP3    H179868   0.584   5.043  14.209  0.3475 -0.5256 -2.0165
19459TIP3    H279869   0.438   5.024  14.175 -0.4778 -1.1888  1.4460
19460TIP3   OH279870   0.056   1.316  13.234  0.1252  0.1742 -0.2577
19460TIP3    H179871   0.095   1.385  13.288  2.4752 -0.6813 -0.7388
19460TIP3    H279872   0.087   1.334  13.146  1.6522 -1.9951 -0.2463
19461TIP3   OH279873   6.195   4.215  17.270 -0.0202 -0.4064  0.0246
19461TIP3    H179874   6.190   4.269  17.192  1.3711  0.1072  0.2532
19461TIP3    H279875   6.258   4.261  17.327 -0.1460 -1.3502  0.9551
19462TIP3   OH279876   6.169   2.896  13.150  0.0475  0.2253 -0.4738
19462TIP3    H179877   6.173   2.985  13.116 -0.9819  0.5193  0.1470
19462TIP3    H279878   6.166   2.841  13.072 -2.4960  0.9039 -0.9301
19463TIP3   OH279879   1.878   0.270  14.673 -0.3863  0.5419  0.1877
19463TIP3    H179880   1.810   0.231  14.728  1.2743 -1.0579  1.2357
19463TIP3    H279881   1.893   0.205  14.604  0.2766  0.7372  0.1390
19464TIP3   OH279882   1.234   0.094  11.845  0.1458  0.1276  0.2303
19464TIP3    H179883   1.168   0.049  11.897 -2.7846  0.3635 -2.9328
19464TIP3    H279884   1.240   0.182  11.883 -1.9249  0.3160  0.2039
19465TIP3   OH279885   3.116   2.326   3.476  0.0982 -0.0796  0.5517
19465TIP3    H179886   3.114   2.244   3.426  1.4231  0.0674  0.2299
19465TIP3    H279887   3.207   2.336   3.503 -0.2376  0.8031  1.4179
19466TIP3   OH279888   3.097   0.328  13.977  0.2518 -0.3620 -0.0966
19466TIP3    H179889   3.094   0.314  14.072 -1.6609 -1.9510 -0.3211
19466TIP3    H279890   3.077   0.420  13.966  1.7897  0.1598  1.0724
19467TIP3   OH279891   4.315   4.682   0.554  0.2131 -0.1743 -0.0860
19467TIP3    H179892   4.266   4.721   0.481  0.4590  0.4560  0.0842
19467TIP3    H279893   4.279   4.593   0.561  1.3141 -0.8346 -2.0373
19468TIP3   OH279894   5.561   5.484   5.248 -0.4224 -0.2283 -0.0944
19468TIP3    H179895   5.509   5.417   5.204 -1.0215  0.0847  0.1203
19468TIP3    H279896   5.595   5.539   5.177 -1.5122  0.3665 -0.1762
19469TIP3   OH279897   5.815   6.741   0.418  0.5881 -0.1778  0.2365
19469TIP3    H179898   5.788   6.833   0.422  0.5084 -0.1230 -1.0788
19469TIP3    H279899   5.732   6.693   0.413  0.5067 -0.5307  3.0574
19470TIP3   OH279900   3.862   6.188  12.986  0.2997 -0.1087  0.0693
19470TIP3    H179901   3.852   6.111  13.042 -1.4253 -0.2365 -0.3504
19470TIP3    H279902   3.944   6.228  13.014  1.4326 -2.2686  0.0746
19471TIP3   OH279903   6.672   2.443  16.793  0.4569  0.1030  0.3217
19471TIP3    H179904   6.640   2.527  16.759 -0.2340 -1.4707 -3.4058
19471TIP3    H279905   6.595   2.402  16.832 -0.0666 -0.1342 -0.9118
19472TIP3   OH279906   0.067   4.897   0.210  0.0309 -0.0320 -0.3168
19472TIP3    H179907   0.003   4.830   0.233 -0.2933  0.3996  0.0490
19472TIP3    H279908   0.018   4.960   0.157  0.5806 -0.6136 -1.5674
19473TIP3   OH279909   2.649   1.213   2.826  0.6441 -0.3193 -0.3242
19473TIP3    H179910   2.647   1.263   2.907 -3.6561  0.1137 -0.4570
19473TIP3    H279911   2.659   1.279   2.757 -1.1906 -0.0075 -0.3265
19474TIP3   OH279912   2.835   0.456  13.236  0.5104 -0.5835  0.3504
19474TIP3    H179913   2.904   0.441  13.300  0.0433 -0.0968  0.9936
19474TIP3    H279914   2.755   0.460  13.288 -0.0160 -1.2416 -0.3899
19475TIP3   OH279915   5.409   1.367   0.239  0.1173 -0.6733  0.2832
19475TIP3    H179916   5.460   1.445   0.217  0.3094 -1.1171 -0.8913
19475TIP3    H279917   5.470   1.294   0.231 -0.0105 -0.9443  1.5739
19476TIP3   OH279918   2.447   6.243   4.413 -0.3831 -0.4515 -0.2644
19476TIP3    H179919   2.353   6.259   4.411 -0.2467  0.3890 -0.6900
19476TIP3    H279920   2.469   6.237   4.506 -0.4902  1.8322 -0.0335
19477TIP3   OH279921   4.468   0.236   1.655 -0.6126  0.2251 -0.0775
19477TIP3    H179922   4.458   0.166   1.719  1.1508  0.3840  0.4297
19477TIP3    H279923   4.557   0.224   1.620 -0.0837  2.4346  0.3395
19478TIP3   OH279924   5.869   0.637  11.844  0.4097 -0.4065 -0.6456
19478TIP3    H179925   5.886   0.606  11.933  4.5039  1.6413 -0.5098
19478TIP3    H279926   5.934   0.592  11.790 -0.4862  0.1192 -2.2199
19479TIP3   OH279927   6.611   3.556   0.463  0.0340  0.0528 -0.2173
19479TIP3    H179928   6.660   3.585   0.386 -0.5265  0.5214 -0.4065
19479TIP3    H279929   6.569   3.474   0.435 -0.1803  0.2302 -0.4166
19480TIP3   OH279930   6.130   3.936   0.418 -0.2257  0.4781  0.1262
19480TIP3    H179931   6.102   3.930   0.509  1.9321 -1.1393  0.7881
19480TIP3    H279932   6.134   3.845   0.388  1.5725  0.7766 -0.7011
19481TIP3   OH279933   4.394   1.625   0.079  0.6105  0.1329  0.5162
19481TIP3    H179934   4.446   1.584   0.010  0.2883  0.4072  0.1028
19481TIP3    H279935   4.324   1.671   0.032 -1.3359 -2.0139  1.0938
19482TIP3   OH279936   0.123   0.907   4.247  0.0367 -0.2009  0.2900
19482TIP3    H179937   0.070   0.922   4.325  0.5994  0.4733  0.5557
19482TIP3    H279938   0.066   0.857   4.189  0.4439 -3.0016  2.0977
19483TIP3   OH279939   0.531   6.576   0.298  0.3749  0.3647  0.2509
19483TIP3    H179940   0.495   6.501   0.345 -2.1832  0.8597 -0.7662
19483TIP3    H279941   0.593   6.615   0.359 -1.2650 -0.2133  2.4207
19484TIP3   OH279942   0.048   6.738  11.029 -0.4423  0.5857 -0.0607
19484TIP3    H179943   0.107   6.689  10.972  0.0428  0.7029  0.3310
19484TIP3    H279944   0.096   6.748  11.111 -0.1457  2.4932 -0.4169
19485TIP3   OH279945   4.344   3.769  11.614  0.3052  0.1323 -0.3213
19485TIP3    H179946   4.356   3.862  11.633  0.1782 -0.0395  0.6562
19485TIP3    H279947   4.255   3.751  11.644  0.7591 -0.5732  0.6596
19486TIP3   OH279948   0.865   1.706  17.279  0.0816  0.3693  0.8626
19486TIP3    H179949   0.891   1.783  17.229  0.1150 -0.4627 -0.4778
19486TIP3    H279950   0.769   1.706  17.275  0.1066 -0.1730  0.0021
19487TIP3   OH279951   2.930   2.154   1.852 -0.5719 -0.2296 -0.2025
19487TIP3    H179952   3.024   2.138   1.859 -0.5855  0.4050  3.9074
19487TIP3    H279953   2.890   2.069   1.870 -0.8055 -0.1972 -0.5484
19488TIP3   OH279954   4.207   1.508   2.145 -0.2275  0.0473  0.1801
19488TIP3    H179955   4.135   1.445   2.146  0.5333 -0.8839 -1.2341
19488TIP3    H279956   4.248   1.497   2.059  0.2263  2.1533  0.0638
19489TIP3   OH279957   6.612   1.873  16.691  0.1302  0.3484  0.1808
19489TIP3    H179958   6.611   1.784  16.726 -1.6156  0.5762  0.7948
19489TIP3    H279959   6.609   1.861  16.596 -0.2962 -0.2709  0.2636
19490TIP3   OH279960   5.542   6.498  12.968  0.0935 -0.0546  0.1278
19490TIP3    H179961   5.513   6.408  12.980  1.2460 -0.6009 -0.9600
19490TIP3    H279962   5.616   6.507  13.027 -0.0312  0.1790  0.2472
19491TIP3   OH279963   6.467   0.285  12.455 -0.0994  0.0589 -0.3913
19491TIP3    H179964   6.473   0.312  12.364  1.4742  0.4490 -0.2102
19491TIP3    H279965   6.445   0.192  12.452 -0.0676  0.0750 -1.1666
19492TIP3   OH279966   5.608   0.831   3.428  1.2674  0.4165  0.0929
19492TIP3    H179967   5.607   0.788   3.343  3.1614  0.1221  0.1690
19492TIP3    H279968   5.557   0.911   3.415  1.3064  0.2451 -1.2419
19493TIP3   OH279969   5.006   0.389  15.631 -0.3009  0.0815  0.1442
19493TIP3    H179970   5.002   0.359  15.540 -0.2884 -0.4111  0.2992
19493TIP3    H279971   4.959   0.321  15.680 -0.0008  0.1636  0.5484
19494TIP3   OH279972   3.993   1.691  11.463  0.3073 -0.2030 -0.5216
19494TIP3    H179973   3.954   1.688  11.375 -1.4543 -1.0724  0.2432
19494TIP3    H279974   4.054   1.617  11.464 -1.7031 -1.9481 -0.1628
19495TIP3   OH279975   0.954   0.841   1.936  0.1716 -0.7633  0.5023
19495TIP3    H179976   1.019   0.896   1.981  0.5797 -1.7723  1.1766
19495TIP3    H279977   0.895   0.813   2.006 -1.4703  0.7185 -0.1948
19496TIP3   OH279978   3.319   4.383  13.285 -0.0579  0.5351  0.3847
19496TIP3    H179979   3.231   4.395  13.321 -0.5435 -0.1078 -0.5377
19496TIP3    H279980   3.306   4.332  13.205  1.1906  0.1223  0.4109
19497TIP3   OH279981   2.780   5.765   1.820 -0.0053 -0.8691 -0.1220
19497TIP3    H179982   2.826   5.769   1.737  2.3844 -2.6106  0.9854
19497TIP3    H279983   2.731   5.683   1.816 -1.0641 -0.2380 -0.3438
19498TIP3   OH279984   2.837   2.941   5.308  0.0628 -0.1042 -0.0738
19498TIP3    H179985   2.918   2.944   5.359 -0.5202  1.5830  0.8511
19498TIP3    H279986   2.819   2.848   5.295  1.7963 -0.5162  0.2385
19499TIP3   OH279987   1.288   5.309  11.303  0.5061  0.4810 -0.5436
19499TIP3    H179988   1.224   5.343  11.366  0.4819 -0.5514  0.0115
19499TIP3    H279989   1.266   5.353  11.221  0.7426  2.1084  0.2123
19500TIP3   OH279990   4.134   2.905  15.021  0.1158  0.0514  0.5468
19500TIP3    H179991   4.206   2.964  15.045  0.2078 -0.0916  0.6243
19500TIP3    H279992   4.176   2.820  15.011  0.2745  0.2815 -1.1299
19501TIP3   OH279993   0.805   3.708  12.904 -0.0456  0.0809 -0.1755
19501TIP3    H179994   0.843   3.651  12.971  0.4049  1.8229  1.1255
19501TIP3    H279995   0.875   3.720  12.840  0.5749  0.7524  0.5967
19502TIP3   OH279996   6.243   3.466   1.225 -0.1778 -0.2833 -0.4321
19502TIP3    H179997   6.164   3.519   1.236 -0.7295 -0.6324 -2.2853
19502TIP3    H279998   6.289   3.508   1.153  0.9590 -0.5373  0.1289
19503TIP3   OH279999   3.507   5.433   6.455  0.5547  0.1399  0.2401
19503TIP3    H180000   3.450   5.508   6.473  2.4986  1.5165  0.9738
19503TIP3    H280001   3.447   5.363   6.428 -1.5044  1.3541  1.4419
19504TIP3   OH280002   6.615   3.214  11.997 -0.1008  0.0680  0.2287
19504TIP3    H180003   6.547   3.150  12.017  0.5206 -1.9215 -3.3385
19504TIP3    H280004   6.568   3.298  11.992 -1.6111 -0.6733  1.2747
19505TIP3   OH280005   5.901   2.464   1.237  0.0729 -0.8779  0.5222
19505TIP3    H180006   5.812   2.451   1.270  0.4027 -1.8054  1.0924
19505TIP3    H280007   5.911   2.399   1.167 -0.2543  0.3574 -0.7065
19506TIP3   OH280008   3.040   6.382   3.337 -0.2902  0.1181 -0.3803
19506TIP3    H180009   3.104   6.317   3.306 -2.4205 -1.7582 -1.1336
19506TIP3    H280010   3.035   6.366   3.432 -0.5045 -0.5824 -0.4990
19507TIP3   OH280011   2.358   1.477  16.086 -0.8135 -0.1394 -0.0021
19507TIP3    H180012   2.273   1.435  16.101 -1.1200  0.3083 -0.4714
19507TIP3    H280013   2.422   1.411  16.111 -1.2741 -1.2246 -1.6156
19508TIP3   OH280014   6.062   2.823  11.058  0.4607 -0.1154 -0.0343
19508TIP3    H180015   5.983   2.777  11.030 -0.2692  0.4684  1.0190
19508TIP3    H280016   6.094   2.774  11.133  0.0229  0.7212  0.7143
19509TIP3   OH280017   6.609   1.342   0.899  0.1944 -0.3909 -0.2178
19509TIP3    H180018   6.646   1.304   0.978  1.5986  0.2883 -0.5207
19509TIP3    H280019   6.685   1.366   0.846 -0.6818  0.8013 -0.9896
19510TIP3   OH280020   4.253   6.413   5.122  0.1642  0.2990  0.3769
19510TIP3    H180021   4.223   6.422   5.032 -0.9363  0.1624  0.7140
19510TIP3    H280022   4.332   6.467   5.127 -0.5865  1.4971 -0.2849
19511TIP3   OH280023   0.057   0.001   2.142  0.3627 -0.2871 -0.1980
19511TIP3    H180024  -0.005  -0.031   2.077  0.1212 -0.8261  0.2920
19511TIP3    H280025   0.052   0.097   2.136 -1.5151 -0.2831  0.7561
19512TIP3   OH280026   1.046   5.770   4.540 -0.1574 -0.2870 -0.0783
19512TIP3    H180027   1.102   5.696   4.563 -0.8012 -0.5875  0.5297
19512TIP3    H280028   1.068   5.788   4.448  1.9906  0.5441  0.5251
19513TIP3   OH280029   2.706   4.532  15.978  0.2169 -0.0103  0.0403
19513TIP3    H180030   2.643   4.467  15.948  0.3591 -0.0093 -0.2560
19513TIP3    H280031   2.710   4.597  15.908 -0.4248  0.6765  0.6127
19514TIP3   OH280032   5.768   5.162   1.858  0.6272  0.7044  0.4381
19514TIP3    H180033   5.764   5.206   1.943  0.1245 -3.1945  2.6516
19514TIP3    H280034   5.763   5.069   1.878  0.2454 -0.4605 -3.9441
19515TIP3   OH280035   6.166   6.603  11.454 -0.7886  0.2401 -0.3534
19515TIP3    H180036   6.080   6.619  11.414 -0.5858  0.0699 -0.8586
19515TIP3    H280037   6.219   6.566  11.384 -0.2118  0.6127 -0.1172
19516TIP3   OH280038   3.808   0.545  13.882 -0.2494 -0.2704  0.2539
19516TIP3    H180039   3.751   0.469  13.898 -2.1797  0.4542 -2.4644
19516TIP3    H280040   3.748   0.613  13.852  1.4856  2.2797  2.1633
19517TIP3   OH280041   2.746   0.710   2.715 -0.4948  0.1506 -0.1050
19517TIP3    H180042   2.827   0.744   2.678 -1.8167  1.7288 -1.7744
19517TIP3    H280043   2.735   0.624   2.674  0.6255 -0.3698  0.6448
19518TIP3   OH280044   3.612   2.023   0.027 -0.6949  0.5487  0.3041
19518TIP3    H180045   3.684   2.046   0.086 -0.4398  0.3192  0.0830
19518TIP3    H280046   3.538   2.075   0.058 -1.1531 -1.0969  2.1256
19519TIP3   OH280047   2.816   4.253   2.664 -0.5927 -0.2894  0.1247
19519TIP3    H180048   2.752   4.253   2.593 -1.6334 -0.7718  1.0421
19519TIP3    H280049   2.890   4.203   2.630 -1.5261 -1.4534 -0.2400
19520TIP3   OH280050   1.040   0.752  16.792 -0.0959  0.4785  0.2009
19520TIP3    H180051   1.022   0.802  16.712  1.0149 -0.2590 -0.5503
19520TIP3    H280052   1.098   0.681  16.763  0.5280  0.3344  1.7115
19521TIP3   OH280053   6.299   3.967  17.235  0.5443 -0.2667  0.2187
19521TIP3    H180054   6.240   4.041  17.223 -0.3752 -0.7792  1.4280
19521TIP3    H280055   6.317   3.936  17.146  0.6663  1.1805 -0.2757
19522TIP3   OH280056   0.337   4.345   5.087 -0.0865  0.5240 -0.0028
19522TIP3    H180057   0.413   4.348   5.146  0.9844 -0.6971 -1.2434
19522TIP3    H280058   0.262   4.331   5.145  0.7194  0.9419  1.1887
19523TIP3   OH280059   6.003   1.932   1.472 -0.4775  0.2483  0.0979
19523TIP3    H180060   6.003   1.971   1.384  0.7612 -0.4893 -0.2408
19523TIP3    H280061   6.053   1.994   1.525  1.7320 -0.9188 -0.5013
19524TIP3   OH280062   0.146   0.218  16.102  0.2772  0.0432  0.2464
19524TIP3    H180063   0.095   0.207  16.022  0.7746  0.7996 -0.1805
19524TIP3    H280064   0.145   0.131  16.143  1.2111 -0.7402 -1.2931
19525TIP3   OH280065   0.504   0.167  14.132 -0.1512 -0.1343  0.2733
19525TIP3    H180066   0.493   0.253  14.091  1.8611  0.4610  0.8363
19525TIP3    H280067   0.542   0.112  14.064 -3.7470 -1.4469 -0.9026
19526TIP3   OH280068   4.720   4.374   0.288 -0.7395 -0.4152  0.9127
19526TIP3    H180069   4.763   4.360   0.373  1.1985 -2.6061 -0.3284
19526TIP3    H280070   4.714   4.287   0.250 -2.2028  0.4465 -0.9395
19527TIP3   OH280071   0.891   3.894  11.501 -0.2093  0.1908 -0.7878
19527TIP3    H180072   0.849   3.818  11.460  0.6979  0.0730 -1.5376
19527TIP3    H280073   0.932   3.941  11.429 -0.1828  1.0324 -0.2421
19528TIP3   OH280074   3.791   5.596   0.492 -0.5845 -0.7270 -0.0583
19528TIP3    H180075   3.807   5.521   0.435 -1.7352 -0.6840 -0.4696
19528TIP3    H280076   3.798   5.561   0.581 -0.3252 -1.1368 -0.2392
19529TIP3   OH280077   4.548   5.901   0.605  0.0828 -0.0535  0.0415
19529TIP3    H180078   4.617   5.911   0.671  1.0315  1.3002 -1.1014
19529TIP3    H280079   4.537   5.806   0.596  2.1807 -0.3263 -0.1245
19530TIP3   OH280080   5.408   1.259  10.416 -0.4638 -0.6895  0.3089
19530TIP3    H180081   5.483   1.252  10.475 -0.9193 -0.4877  0.9290
19530TIP3    H280082   5.434   1.211  10.338  1.2072  1.2499 -0.4194
19531TIP3   OH280083   3.701   0.943  16.530  0.2284  0.0417  0.5166
19531TIP3    H180084   3.630   0.967  16.590 -0.2198  1.7117 -0.6042
19531TIP3    H280085   3.780   0.953  16.582 -0.2775 -0.7772  1.4728
19532TIP3   OH280086   5.751   3.090   2.630 -0.5191 -0.0133 -0.5750
19532TIP3    H180087   5.764   2.997   2.613 -1.3716 -0.1483 -0.5343
19532TIP3    H280088   5.708   3.094   2.715  2.3262  0.5920  0.9489
19533TIP3   OH280089   6.168   6.568  12.410 -0.1288  0.3564 -0.5631
19533TIP3    H180090   6.104   6.577  12.480 -0.6686 -0.8031 -0.8887
19533TIP3    H280091   6.214   6.652  12.409 -0.4100  0.5493  0.8695
19534TIP3   OH280092   6.485   3.774   4.454  0.1015 -0.2247 -0.6454
19534TIP3    H180093   6.398   3.765   4.415  0.5643 -1.7307 -1.4111
19534TIP3    H280094   6.481   3.721   4.534  0.5590 -1.0461 -1.1502
19535TIP3   OH280095   5.301   0.490  15.074 -0.2679 -0.2978  0.4040
19535TIP3    H180096   5.307   0.395  15.072  0.0235 -0.2678 -0.7492
19535TIP3    H280097   5.375   0.520  15.020  0.4802  0.6214  1.8764
19536TIP3   OH280098   3.759   6.173   1.060 -0.2241 -0.2291 -0.4512
19536TIP3    H180099   3.681   6.214   1.099 -0.8323 -0.2665 -1.5909
19536TIP3    H280100   3.819   6.246   1.045 -0.0633 -0.1874  0.3678
19537TIP3   OH280101   4.295   6.492  16.950 -0.0473  0.1833  0.6979
19537TIP3    H180102   4.250   6.477  17.033 -2.4661 -0.2614 -0.5979
19537TIP3    H280103   4.226   6.523  16.891  1.5995  0.5383 -1.1446
19538TIP3   OH280104   3.945   3.964   5.605  0.2404 -0.4354 -0.2916
19538TIP3    H180105   3.911   3.883   5.567  1.6058  0.1740 -3.0459
19538TIP3    H280106   3.891   4.033   5.567  2.1047  0.2574 -1.8099
19539TIP3   OH280107   2.793   2.681   4.233  0.2462 -0.5707 -0.1791
19539TIP3    H180108   2.875   2.658   4.189 -0.2500  1.2865 -2.2616
19539TIP3    H280109   2.734   2.705   4.161 -0.4614  3.1443  1.4394
19540TIP3   OH280110   2.222   0.081  11.171 -0.0637 -0.5494 -0.2428
19540TIP3    H180111   2.251   0.116  11.087 -0.3329  0.7111  0.1662
19540TIP3    H280112   2.136   0.045  11.153  0.2385 -1.0610 -0.6877
19541TIP3   OH280113   6.329   4.769   1.972 -0.3179 -0.3984  0.4674
19541TIP3    H180114   6.244   4.745   1.937  0.7091 -4.2766  0.1466
19541TIP3    H280115   6.383   4.691   1.960  2.7017  1.1495  2.5583
19542TIP3   OH280116   3.855   5.444  13.991  0.3897  0.4805  0.0901
19542TIP3    H180117   3.807   5.437  14.074 -0.0234  0.6840 -0.1286
19542TIP3    H280118   3.940   5.481  14.015  0.8378 -0.8560  0.6269
19543TIP3   OH280119   0.520   3.986   1.431  0.6720 -0.1511 -0.0725
19543TIP3    H180120   0.456   3.995   1.501 -0.2508  0.6992 -1.0000
19543TIP3    H280121   0.581   3.920   1.463 -1.2236 -1.7462  0.4266
19544TIP3   OH280122   0.905   2.358   6.008  0.0636  0.4227 -0.5496
19544TIP3    H180123   0.903   2.321   5.920  0.7137  1.4527 -1.0251
19544TIP3    H280124   0.982   2.416   6.008  0.2168  0.2617  0.7752
19545TIP3   OH280125   4.355   4.729  16.902  0.4658  0.1595  0.0965
19545TIP3    H180126   4.297   4.802  16.923 -0.4548  0.0869 -1.9998
19545TIP3    H280127   4.304   4.651  16.923  0.3345  0.1066 -0.4088
19546TIP3   OH280128   2.150   2.985  11.386 -0.4987 -0.1894  0.6330
19546TIP3    H180129   2.129   3.073  11.417 -1.0563 -0.0796 -0.0222
19546TIP3    H280130   2.074   2.959  11.334  0.4915 -0.2519 -0.8594
19547TIP3   OH280131   1.389   3.300   1.371  0.2979 -0.1753  0.0029
19547TIP3    H180132   1.417   3.212   1.345  0.8649  0.2311 -0.7682
19547TIP3    H280133   1.458   3.358   1.341 -1.2233  0.8363 -1.7399
19548TIP3   OH280134   1.891   4.442  15.343  0.0461  1.1565 -0.2003
19548TIP3    H180135   1.809   4.426  15.297  0.3055  0.1198 -0.3205
19548TIP3    H280136   1.952   4.471  15.275 -0.1564  1.7103 -0.1479
19549TIP3   OH280137   6.100   1.277  13.674 -0.1371 -0.7806  0.0967
19549TIP3    H180138   6.099   1.286  13.769 -0.2743  1.7110 -0.0790
19549TIP3    H280139   6.037   1.207  13.656 -1.9631  0.3421  1.7499
19550TIP3   OH280140   1.765   4.477  13.706 -0.2975 -0.1649 -0.5410
19550TIP3    H180141   1.857   4.493  13.682 -0.0698 -0.6000  0.0212
19550TIP3    H280142   1.723   4.562  13.693  0.5577  0.5150  0.8625
19551TIP3   OH280143   0.933   1.629  11.605  0.0231  0.0037 -0.3671
19551TIP3    H180144   1.018   1.584  11.611 -0.4811 -1.0263 -0.7090
19551TIP3    H280145   0.878   1.568  11.556 -0.9706  0.5837  0.0205
19552TIP3   OH280146   0.751   6.159   5.445 -0.1125  0.3430  0.4182
19552TIP3    H180147   0.762   6.072   5.483  2.1182 -0.2727 -1.3818
19552TIP3    H280148   0.818   6.212   5.487  0.7191  0.2843 -0.7594
19553TIP3   OH280149   4.852   5.973  14.021  0.9006  0.8335  0.2420
19553TIP3    H180150   4.791   5.958  14.093 -2.2112  1.8606 -1.9900
19553TIP3    H280151   4.843   5.895  13.966  1.2499  1.2293 -0.3784
19554TIP3   OH280152   4.644   3.151  16.650  0.4019  0.2400 -0.2954
19554TIP3    H180153   4.580   3.082  16.633 -0.6867  1.1509 -0.0764
19554TIP3    H280154   4.656   3.150  16.745  0.0503  0.5990 -0.2377
19555TIP3   OH280155   2.077   6.090   5.338 -0.3994 -0.0216 -0.2133
19555TIP3    H180156   1.991   6.078   5.379 -0.1496 -0.0809  0.2940
19555TIP3    H280157   2.137   6.103   5.411 -0.0203  0.3109 -0.5807
19556TIP3   OH280158   1.102   1.013   2.891  0.0161  0.2205 -0.2008
19556TIP3    H180159   1.159   0.946   2.851 -1.5735 -1.3425  0.0613
19556TIP3    H280160   1.113   1.090   2.834  1.8543 -0.2354 -0.5379
19557TIP3   OH280161   2.371   2.200   3.139 -0.6244  0.2257 -0.3054
19557TIP3    H180162   2.376   2.289   3.174  0.8155  0.9346 -2.1822
19557TIP3    H280163   2.353   2.145   3.216  1.6904  1.7751  1.4455
19558TIP3   OH280164   0.290   5.154   2.886 -0.3402 -0.3982 -0.2611
19558TIP3    H180165   0.346   5.162   2.963 -1.9487  0.9023  0.8336
19558TIP3    H280166   0.210   5.113   2.919 -0.1989 -1.9668 -1.7342
19559TIP3   OH280167   5.262   6.760  14.218 -0.2679 -0.0701  0.4331
19559TIP3    H180168   5.249   6.806  14.135 -2.0069 -0.4104  0.4665
19559TIP3    H280169   5.255   6.829  14.285  0.4174  0.0937  0.3434
19560TIP3   OH280170   3.933   4.969   2.731 -0.2941  0.7628 -0.7179
19560TIP3    H180171   3.863   4.925   2.683  0.1583 -2.6007  1.4091
19560TIP3    H280172   3.912   4.954   2.823  2.0013  1.7192  0.0331
19561TIP3   OH280173   4.487   4.796   6.134  0.2805  0.4299  0.1099
19561TIP3    H180174   4.472   4.855   6.060 -0.3098  3.6273  2.5522
19561TIP3    H280175   4.546   4.844   6.192  1.1277 -2.1398  1.5587
19562TIP3   OH280176   4.948   0.239  16.409 -0.3613 -0.5121 -0.0881
19562TIP3    H180177   4.967   0.224  16.502  2.6401  0.1370 -0.4891
19562TIP3    H280178   4.948   0.152  16.370  1.7944 -0.6320  0.0443
19563TIP3   OH280179   6.118   0.430   3.406 -0.2950 -0.4349  0.4486
19563TIP3    H180180   6.095   0.350   3.454  2.0209 -1.3883  0.1344
19563TIP3    H280181   6.168   0.482   3.468 -0.1807 -0.1042  0.0863
19564TIP3   OH280182   6.316   0.133  13.656 -0.0136  0.4014  0.4794
19564TIP3    H180183   6.268   0.082  13.721 -0.1216  1.6177  1.3839
19564TIP3    H280184   6.256   0.204  13.631  1.1309  1.7400  1.3702
19565TIP3   OH280185   2.460   5.557  14.154  0.0875 -0.6239  0.3152
19565TIP3    H180186   2.547   5.521  14.170  0.6610  0.2100 -0.7567
19565TIP3    H280187   2.476   5.641  14.112 -1.2326 -1.1864 -1.4485
19566TIP3   OH280188   4.167   2.191  12.840  0.1045 -0.4545 -0.3531
19566TIP3    H180189   4.198   2.272  12.880 -0.0673 -1.0192  1.0055
19566TIP3    H280190   4.137   2.216  12.753 -0.2461  0.9961  0.1608
19567TIP3   OH280191   1.741   1.708  14.248  0.7221  0.1869  0.5732
19567TIP3    H180192   1.646   1.701  14.238  0.8300  1.4629 -2.2776
19567TIP3    H280193   1.775   1.626  14.212  0.7575  1.1313 -1.6984
19568TIP3   OH280194   6.584   2.031   5.467 -0.1068  0.5709  0.0120
19568TIP3    H180195   6.636   2.108   5.444  0.3821 -0.2256 -1.7221
19568TIP3    H280196   6.616   1.962   5.409 -0.7352 -0.8783  1.3147
19569TIP3   OH280197   3.660   0.537  14.573  0.2837 -0.6791  0.7985
19569TIP3    H180198   3.683   0.518  14.482  1.7860  1.5463  0.6427
19569TIP3    H280199   3.743   0.559  14.615 -0.1414 -2.9639  3.1476
19570TIP3   OH280200   2.231   6.240   5.106 -0.1798 -0.8266  0.1644
19570TIP3    H180201   2.246   6.230   5.200  0.2567 -0.1202  0.1734
19570TIP3    H280202   2.136   6.235   5.096 -0.4457  1.5068  0.9628
19571TIP3   OH280203   6.297   0.323   1.076 -0.2476  0.0986 -0.2415
19571TIP3    H180204   6.296   0.388   1.005 -0.5194  1.1685  0.7069
19571TIP3    H280205   6.382   0.335   1.118 -0.2137 -0.3162 -0.1905
19572TIP3   OH280206   3.143   5.426   3.149 -0.2818 -0.1952  0.5764
19572TIP3    H180207   3.065   5.447   3.098 -0.5661 -0.3851  0.9263
19572TIP3    H280208   3.194   5.368   3.093 -1.4065 -1.8194  1.1368
19573TIP3   OH280209   1.348   3.763  16.618  0.4842 -0.8098 -0.0489
19573TIP3    H180210   1.316   3.747  16.707  2.8480 -1.4919  0.7655
19573TIP3    H280211   1.269   3.771  16.565 -1.0907  1.4865  2.3909
19574TIP3   OH280212   1.214   2.783   3.935 -0.1829  0.1709  0.1802
19574TIP3    H180213   1.228   2.827   4.019 -0.1607  1.5535 -0.5091
19574TIP3    H280214   1.246   2.694   3.948  0.7400  0.6496  1.3389
19575TIP3   OH280215   6.424   2.679   2.955  0.0442  0.4359  0.0177
19575TIP3    H180216   6.358   2.651   2.892 -1.0444 -1.3704  1.8265
19575TIP3    H280217   6.507   2.672   2.908 -0.7923  0.0200 -1.4567
19576TIP3   OH280218   4.566   6.568   0.092 -0.6509 -0.6734  0.1165
19576TIP3    H180219   4.536   6.518   0.016  0.4649 -0.1196 -0.7060
19576TIP3    H280220   4.615   6.504   0.145 -2.1960 -1.2925  0.8884
19577TIP3   OH280221   2.616   0.982  12.186 -0.5439 -0.2490  0.1340
19577TIP3    H180222   2.533   1.024  12.165 -0.5316 -1.5058 -3.0519
19577TIP3    H280223   2.619   0.905  12.128  2.2566 -0.9725  1.0786
19578TIP3   OH280224   6.404   1.130  12.077 -0.6252 -0.2666  0.5267
19578TIP3    H180225   6.400   1.138  12.172  3.4867 -0.9296  0.9492
19578TIP3    H280226   6.438   1.214  12.047 -2.7476  0.2797 -0.5869
19579TIP3   OH280227   1.205   4.964  13.661  0.1869 -0.5100 -0.2366
19579TIP3    H180228   1.230   4.980  13.570  0.1011  1.1852  0.0065
19579TIP3    H280229   1.285   4.936  13.704  0.8424  1.2416 -0.2747
19580TIP3   OH280230   3.891   4.304  10.796  0.3984 -0.0500  0.1194
19580TIP3    H180231   3.936   4.363  10.735 -0.3316  1.1856  0.7335
19580TIP3    H280232   3.952   4.232  10.810  0.6171 -0.3351 -2.0050
19581TIP3   OH280233   6.400   6.712  14.641 -0.5829 -0.1729  0.2174
19581TIP3    H180234   6.376   6.704  14.549 -1.0716 -0.8693  0.3980
19581TIP3    H280235   6.359   6.636  14.684  0.1570 -0.2046  0.8996
19582TIP3   OH280236   6.103   4.186   4.626 -0.0583 -0.3496  0.1876
19582TIP3    H180237   6.038   4.125   4.661  0.0808 -0.3480  0.4520
19582TIP3    H280238   6.164   4.131   4.577 -0.5519 -0.2908 -0.5121
19583TIP3   OH280239   5.183   1.516  12.686 -0.6392  0.0458  0.1037
19583TIP3    H180240   5.277   1.533  12.683 -0.7143  0.6691  0.7617
19583TIP3    H280241   5.170   1.439  12.631  0.5090 -1.1603  1.4403
19584TIP3   OH280242   6.386   6.661  13.245  0.3896 -0.0094 -0.6219
19584TIP3    H180243   6.408   6.743  13.290  0.2736  0.3628 -1.2341
19584TIP3    H280244   6.295   6.645  13.268  0.3923  0.0711 -0.5536
19585TIP3   OH280245   2.052   6.780   4.683  0.0983 -0.1564  0.0016
19585TIP3    H180246   2.131   6.822   4.650 -0.1912 -0.1686 -0.7311
19585TIP3    H280247   2.043   6.701   4.629 -0.6268  0.0482 -0.1847
19586TIP3   OH280248   2.413   2.421  17.073  0.4138  0.1379 -0.4073
19586TIP3    H180249   2.475   2.448  17.006 -2.4288  1.2029 -2.8258
19586TIP3    H280250   2.401   2.328  17.059  0.6939  0.1314 -0.6079
19587TIP3   OH280251   6.673   4.217   3.420  0.0575  0.4492  0.6851
19587TIP3    H180252   6.668   4.141   3.363 -0.3458  0.7621  0.3013
19587TIP3    H280253   6.708   4.183   3.502  0.8778  0.0384  0.1806
19588TIP3   OH280254   6.251   0.808   5.360  0.5049  0.5247 -0.0041
19588TIP3    H180255   6.258   0.718   5.329 -0.6076 -0.4342  2.3358
19588TIP3    H280256   6.310   0.812   5.435  2.1270  2.4036 -1.2677
19589TIP3   OH280257   3.867   5.025  11.862  0.4648  0.2339 -0.0614
19589TIP3    H180258   3.939   5.013  11.800  0.3375 -0.1426 -0.1371
19589TIP3    H280259   3.833   4.937  11.878 -1.2135  0.5638 -1.5037
19590TIP3   OH280260   2.915   6.357  12.522  0.1167  0.2142  0.0207
19590TIP3    H180261   2.958   6.273  12.507  0.7264  0.7473 -1.4219
19590TIP3    H280262   2.977   6.422  12.488 -1.1045  1.1180 -0.5865
19591TIP3   OH280263   0.362   2.339  12.441 -0.6350 -0.9634  0.2228
19591TIP3    H180264   0.387   2.418  12.393 -2.9423  0.1629  0.7302
19591TIP3    H280265   0.268   2.348  12.455 -1.2261 -4.3672 -0.6583
19592TIP3   OH280266   6.404   1.332   2.926  0.0598 -0.0075  0.4363
19592TIP3    H180267   6.437   1.280   2.853 -0.4570  1.9205 -1.2727
19592TIP3    H280268   6.322   1.290   2.951 -0.7583  0.3921 -1.4583
19593TIP3   OH280269   5.007   5.502  15.311  0.4455  0.2318 -0.2831
19593TIP3    H180270   4.921   5.538  15.293  0.6902  0.7659 -0.4174
19593TIP3    H280271   5.009   5.418  15.266  0.4465  0.7841 -1.3370
19594TIP3   OH280272   4.535   4.296  15.960 -0.5476  0.2081 -0.4928
19594TIP3    H180273   4.505   4.377  15.918  0.1603  0.9042  0.3043
19594TIP3    H280274   4.464   4.234  15.946 -2.2074  1.6665  0.9722
19595TIP3   OH280275   2.523   3.034   4.493  0.6477  0.0815  0.1651
19595TIP3    H180276   2.463   2.971   4.452  1.1495 -0.8290  0.8076
19595TIP3    H280277   2.466   3.091   4.545  0.4215 -1.7445  2.0436
19596TIP3   OH280278   4.529   0.449   0.874  0.1440 -0.7649 -0.6261
19596TIP3    H180279   4.531   0.407   0.788  1.4632 -2.3191  0.1011
19596TIP3    H280280   4.618   0.482   0.887  0.7456 -2.8104  1.1261
19597TIP3   OH280281   2.297   3.433   4.471  0.0894 -0.0965 -0.4154
19597TIP3    H180282   2.235   3.488   4.423 -0.9266  1.1302  2.1088
19597TIP3    H280283   2.379   3.483   4.470 -0.2609  0.5147  0.0941
19598TIP3   OH280284   6.148   5.381  15.712 -0.2537  0.5258  0.7565
19598TIP3    H180285   6.205   5.433  15.768 -2.5190  0.4492  3.3301
19598TIP3    H280286   6.181   5.291  15.722 -0.0474  0.6446  1.1737
19599TIP3   OH280287   2.799   1.316  17.299  0.6963  0.4166  0.1317
19599TIP3    H180288   2.832   1.254  17.364  1.1458 -0.9370 -1.3354
19599TIP3    H280289   2.712   1.282  17.275  0.4427  1.0238  0.1541
19600TIP3   OH280290   1.397   5.923   4.760 -0.3854  0.0804 -0.3791
19600TIP3    H180291   1.348   5.873   4.825 -1.7141  3.1565  1.1787
19600TIP3    H280292   1.341   5.998   4.739  2.0452  1.7432 -1.4355
19601TIP3   OH280293   4.914   3.328   4.824  0.1340  0.2906 -0.1781
19601TIP3    H180294   5.007   3.320   4.801  0.2693 -2.3946  0.9286
19601TIP3    H280295   4.914   3.386   4.901  1.2338 -1.4487  1.2151
19602TIP3   OH280296   1.634   2.211   2.448 -0.3105 -0.4464  0.4708
19602TIP3    H180297   1.610   2.295   2.488 -2.1766 -0.7755  0.1545
19602TIP3    H280298   1.680   2.235   2.367 -1.1535  0.3081  0.1933
19603TIP3   OH280299   5.506   3.634   5.002  0.3679 -0.1118  0.3952
19603TIP3    H180300   5.555   3.700   5.050  2.5872 -1.4032  0.0161
19603TIP3    H280301   5.505   3.557   5.060 -2.1465  0.1386  0.8217
19604TIP3   OH280302   4.575   6.753   3.059 -0.2281  0.5105 -0.0860
19604TIP3    H180303   4.603   6.805   2.984 -1.6542  0.9890 -0.3108
19604TIP3    H280304   4.499   6.704   3.029 -1.4174  1.4183  1.2591
19605TIP3   OH280305   1.859   5.231  15.477 -0.1822 -0.1931 -0.2485
19605TIP3    H180306   1.949   5.204  15.494 -0.5830 -1.5360 -0.1644
19605TIP3    H280307   1.860   5.326  15.491  1.2293 -0.1688 -0.3367
19606TIP3   OH280308   6.365   1.291   5.688  0.2627  0.5087 -0.5896
19606TIP3    H180309   6.319   1.272   5.770  1.0691  1.8636  0.2081
19606TIP3    H280310   6.370   1.206   5.644 -1.0195 -0.0735  0.3153
19607TIP3   OH280311   4.185   1.828   3.537 -0.6882 -0.0622 -0.0828
19607TIP3    H180312   4.242   1.752   3.534 -2.3760 -1.3537 -1.4690
19607TIP3    H280313   4.171   1.852   3.445  2.2696  3.9641  0.2629
19608TIP3   OH280314   4.046   0.764  12.954  0.0220 -0.3532  0.1776
19608TIP3    H180315   3.996   0.781  13.034  2.0535 -1.3401  1.7495
19608TIP3    H280316   4.116   0.829  12.956  0.1637 -0.4722 -0.7447
19609TIP3   OH280317   3.398   5.980  14.096  0.1190 -0.2777  0.0240
19609TIP3    H180318   3.343   6.005  14.022  0.9950  0.8695 -0.2735
19609TIP3    H280319   3.422   5.889  14.079 -2.3395 -1.1126  0.6106
19610TIP3   OH280320   1.920   0.305  13.643 -1.0917 -0.1697  0.4748
19610TIP3    H180321   1.861   0.230  13.629 -2.2617  1.1275 -2.3912
19610TIP3    H280322   1.861   0.380  13.653 -0.0390  1.0614 -1.7415
19611TIP3   OH280323   1.659   2.719  16.993  0.1901  0.0460 -0.4160
19611TIP3    H180324   1.643   2.663  16.917  1.5817  0.7156 -1.2416
19611TIP3    H280325   1.753   2.716  17.006 -0.0792 -0.5892  1.7415
19612TIP3   OH280326   0.223   1.067   1.416 -0.7598 -0.2468 -0.1234
19612TIP3    H180327   0.202   0.974   1.410 -1.6636 -0.0317 -0.5718
19612TIP3    H280328   0.138   1.110   1.432 -0.2621  0.4448  0.7801
19613TIP3   OH280329   2.303   1.259  14.453  0.9773  0.6006  0.0047
19613TIP3    H180330   2.391   1.297  14.458  0.7938  0.9451  0.7264
19613TIP3    H280331   2.310   1.175  14.497  0.4352  1.6207  2.1512
19614TIP3   OH280332   5.729   0.359   3.135  0.1142  0.2273 -0.0443
19614TIP3    H180333   5.653   0.388   3.186  0.0868  0.0605  0.0083
19614TIP3    H280334   5.800   0.417   3.164  0.1055  0.1180  0.2010
19615TIP3   OH280335   2.147   4.367  15.529  1.0114 -0.0965 -0.3355
19615TIP3    H180336   2.186   4.450  15.556  0.5553 -0.3117  1.0607
19615TIP3    H280337   2.072   4.392  15.475  0.9287  0.4102  0.0105
19616TIP3   OH280338   2.758   3.781   5.275 -0.1691  0.0477  0.2238
19616TIP3    H180339   2.745   3.687   5.274  1.7178 -0.3293 -3.1544
19616TIP3    H280340   2.671   3.818   5.258 -0.8399 -1.0308  1.1453
19617TIP3   OH280341   2.995   0.456   5.253  0.3700 -0.2857  0.7350
19617TIP3    H180342   2.927   0.390   5.243 -1.9195  2.1959 -2.4743
19617TIP3    H280343   3.057   0.438   5.182  1.3990 -0.6689  1.7006
19618TIP3   OH280344   2.412   4.706  14.487 -0.0154 -0.4437  0.1237
19618TIP3    H180345   2.365   4.757  14.553  0.1964 -1.1777  0.8446
19618TIP3    H280346   2.342   4.672  14.430 -0.4341 -1.8104  1.3884
19619TIP3   OH280347   1.621   0.893  14.519 -0.7278 -0.0430 -0.2325
19619TIP3    H180348   1.584   0.810  14.548 -1.1724 -0.1132 -0.9697
19619TIP3    H280349   1.691   0.868  14.458 -0.4443  0.1228  0.0163
19620TIP3   OH280350   1.099   3.425  10.987  0.3459  0.0111  0.3581
19620TIP3    H180351   1.055   3.424  11.072 -1.0673  1.1636 -0.3056
19620TIP3    H280352   1.029   3.407  10.924  1.0331  0.7898 -0.6599
19621TIP3   OH280353   1.041   6.239  10.749  0.2590  0.1121 -0.4044
19621TIP3    H180354   1.102   6.230  10.676  0.4108 -0.1751 -0.2431
19621TIP3    H280355   0.976   6.302  10.718  1.9076  2.2911  0.2653
19622TIP3   OH280356   1.286   5.959  15.860  0.3910 -0.1146 -0.2949
19622TIP3    H180357   1.213   5.905  15.831  0.3648 -0.1588 -0.1485
19622TIP3    H280358   1.361   5.928  15.809  0.4655 -0.5740  0.0849
19623TIP3   OH280359   4.187   5.442  11.445  0.8427 -0.3519 -0.3755
19623TIP3    H180360   4.255   5.399  11.394  1.0445 -1.6006  0.8988
19623TIP3    H280361   4.232   5.477  11.522  0.1902 -0.3795  0.0243
19624TIP3   OH280362   6.326   1.247   1.545 -0.0972  0.0339  0.1884
19624TIP3    H180363   6.310   1.260   1.452 -0.2959  2.2059  0.4730
19624TIP3    H280364   6.412   1.285   1.560  1.1696 -2.7431  0.4515
19625TIP3   OH280365   0.370   2.465  11.200 -0.4969  0.0091  0.3981
19625TIP3    H180366   0.423   2.459  11.120  1.8986 -0.8267  1.9316
19625TIP3    H280367   0.308   2.535  11.182 -0.0262 -0.1211 -2.1625
19626TIP3   OH280368   0.505   0.282  16.788 -0.1650  0.0673  0.4717
19626TIP3    H180369   0.540   0.306  16.703  0.9282  0.1919  0.9484
19626TIP3    H280370   0.518   0.359  16.843 -1.3613  0.1882  0.6259
19627TIP3   OH280371   4.582   6.503  16.903 -0.1493  0.1254 -0.2510
19627TIP3    H180372   4.582   6.529  16.995  0.2865 -0.1795 -0.1648
19627TIP3    H280373   4.509   6.552  16.865  1.1312  2.0923 -0.2762
19628TIP3   OH280374   2.297   3.138  15.288 -0.1286  0.4765 -0.4220
19628TIP3    H180375   2.233   3.148  15.217 -1.8946 -0.1474  1.0005
19628TIP3    H280376   2.365   3.203  15.269 -1.7791  1.9871 -1.3980
19629TIP3   OH280377   2.848   3.318  12.789 -0.2945 -0.2395 -0.1452
19629TIP3    H180378   2.907   3.260  12.741 -0.8138 -1.4348  0.6339
19629TIP3    H280379   2.885   3.406  12.775 -0.2084 -0.5835 -2.3622
19630TIP3   OH280380   6.021   2.401   0.514  0.3382 -0.4691  0.3122
19630TIP3    H180381   5.930   2.390   0.488  1.0764 -0.6786 -2.4844
19630TIP3    H280382   6.022   2.482   0.565 -1.3020 -0.1156 -0.1657
19631TIP3   OH280383   3.913   3.130   3.204  0.5575 -0.6217  0.3682
19631TIP3    H180384   3.911   3.215   3.248  2.2232 -0.5831  0.4335
19631TIP3    H280385   3.829   3.124   3.160  0.8345  1.6245 -0.6193
19632TIP3   OH280386   4.704   4.382   4.091 -0.0594 -0.5791 -0.0500
19632TIP3    H180387   4.783   4.334   4.066 -0.5107 -0.5650 -1.5902
19632TIP3    H280388   4.645   4.371   4.017 -0.8503  0.8660  0.3283
19633TIP3   OH280389   6.361   0.649   6.601 -0.2276 -0.5763 -0.7645
19633TIP3    H180390   6.428   0.589   6.633 -0.3416 -0.5840 -0.5379
19633TIP3    H280391   6.353   0.628   6.508 -0.9920 -1.6208 -0.4822
19634TIP3   OH280392   4.912   5.702   4.467 -0.0022  0.7736 -0.0674
19634TIP3    H180393   4.824   5.740   4.470 -0.3417 -0.0103  0.3028
19634TIP3    H280394   4.963   5.755   4.528 -0.2918  1.0571 -0.0689
19635TIP3   OH280395   4.648   3.315   5.993 -0.1807  0.3270  0.1261
19635TIP3    H180396   4.657   3.223   6.019  0.1957 -0.1132 -1.4370
19635TIP3    H280397   4.581   3.350   6.051 -1.1691 -1.2477  0.0057
19636TIP3   OH280398   4.486   4.064   3.870  0.0873  0.1661 -0.5678
19636TIP3    H180399   4.433   4.143   3.854  2.8443  2.5657  1.2609
19636TIP3    H280400   4.426   4.005   3.916 -1.7745  1.5975 -0.9864
19637TIP3   OH280401   3.128   2.097   3.351 -0.7115 -0.3885 -0.2244
19637TIP3    H180402   3.219   2.081   3.325 -0.1647  4.9353 -2.8274
19637TIP3    H280403   3.078   2.031   3.303  1.5677 -2.7483  0.3830
19638TIP3   OH280404   0.186   6.260  13.354 -0.0774  0.1040  0.0287
19638TIP3    H180405   0.232   6.333  13.312 -1.2354  0.5297 -0.5637
19638TIP3    H280406   0.143   6.300  13.430 -0.3509 -0.0516 -0.0423
19639TIP3   OH280407   0.961   0.910   0.450  0.3910  0.4287 -0.1594
19639TIP3    H180408   0.955   0.999   0.414 -1.6004  0.7459  0.8030
19639TIP3    H280409   1.015   0.862   0.387  1.8566  2.3868 -0.5147
19640TIP3   OH280410   0.191   0.871  17.043  0.0416  0.1674  0.1460
19640TIP3    H180411   0.188   0.914  16.957  0.8342 -0.8322 -0.3957
19640TIP3    H280412   0.134   0.925  17.098  0.2557  1.3645 -0.7576
19641TIP3   OH280413   0.277   3.674   1.654 -0.2386 -0.7103  0.1990
19641TIP3    H180414   0.301   3.745   1.595 -0.0236  0.9483  2.1698
19641TIP3    H280415   0.335   3.602   1.629  1.1838  0.5694 -0.3730
19642TIP3   OH280416   5.306   5.291   4.889  0.2926  0.2436 -0.3540
19642TIP3    H180417   5.355   5.298   4.807  2.6002  0.4506  0.9750
19642TIP3    H280418   5.296   5.382   4.919 -1.8203  0.3004 -1.0491
19643TIP3   OH280419   6.233   1.145  12.558 -0.3733  0.1542 -0.9858
19643TIP3    H180420   6.270   1.087  12.492  0.2490  0.8389 -1.2541
19643TIP3    H280421   6.309   1.182  12.603 -0.7759  0.2349 -0.3498
19644TIP3   OH280422   2.603   0.565   5.239  0.2443  0.3951  0.2987
19644TIP3    H180423   2.537   0.512   5.284 -0.7139 -0.4530 -1.9361
19644TIP3    H280424   2.572   0.655   5.248 -0.2330  0.1841  0.8024
19645TIP3   OH280425   2.875   3.793  15.385  0.3276  0.1798 -0.0737
19645TIP3    H180426   2.876   3.885  15.412 -0.0300  0.2301 -0.2298
19645TIP3    H280427   2.890   3.745  15.467 -1.0224  0.3235  0.2826
19646TIP3   OH280428   3.791   3.569   1.863 -0.1451  0.3225 -0.6117
19646TIP3    H180429   3.727   3.508   1.899  0.0847 -0.8349 -2.0846
19646TIP3    H280430   3.875   3.523   1.868  1.0001  2.3759  2.7211
19647TIP3   OH280431   2.551   1.110   2.460  0.0513  0.3230  0.0047
19647TIP3    H180432   2.554   1.100   2.365 -3.3662 -0.0309 -0.1827
19647TIP3    H280433   2.633   1.154   2.482  0.9291  0.4518 -3.0877
19648TIP3   OH280434   5.417   1.254   4.912  0.3020  0.0212 -0.1883
19648TIP3    H180435   5.373   1.289   4.989 -0.2272 -0.1269 -0.4146
19648TIP3    H280436   5.345   1.225   4.855  0.6994 -1.9769  0.2488
19649TIP3   OH280437   2.596   6.094  15.323 -0.7763 -0.1273 -0.3593
19649TIP3    H180438   2.560   6.151  15.391 -0.6840 -0.8012  0.2775
19649TIP3    H280439   2.572   6.006  15.351 -0.9607 -0.4014 -1.3512
19650TIP3   OH280440   6.703   2.657  12.911 -0.1825  0.1023  0.1438
19650TIP3    H180441   6.660   2.742  12.907 -0.0707  0.1142 -1.2115
19650TIP3    H280442   6.761   2.655  12.835 -0.3498 -1.2542  0.0149
19651TIP3   OH280443   5.239   3.975   5.984 -0.6968  0.0106  0.2030
19651TIP3    H180444   5.287   3.967   5.902 -0.1933  1.3041  0.3517
19651TIP3    H280445   5.303   4.010   6.046 -0.9872 -1.1871  1.2441
19652TIP3   OH280446   5.029   2.512   2.284  0.4806 -0.3655 -0.5223
19652TIP3    H180447   5.088   2.507   2.209  0.5830 -2.0758 -0.3525
19652TIP3    H280448   4.962   2.445   2.268  0.4716 -0.7310  0.8707
19653TIP3   OH280449   1.229   5.827   4.948 -0.0781 -0.2802 -0.4221
19653TIP3    H180450   1.273   5.760   5.001 -0.9032 -0.2590  0.3187
19653TIP3    H280451   1.138   5.798   4.944 -0.3354  0.5216 -0.5422
19654TIP3   OH280452   2.098   1.505  15.040  0.5956 -0.5826  0.0214
19654TIP3    H180453   2.092   1.420  14.996  1.2387 -0.9995  0.7130
19654TIP3    H280454   2.187   1.536  15.019  0.5846 -0.3696  0.2911
19655TIP3   OH280455   5.480   5.838   1.914  0.1559  0.1853  0.4013
19655TIP3    H180456   5.476   5.745   1.895 -0.1106  0.3214 -0.2574
19655TIP3    H280457   5.566   5.866   1.881 -0.6722  0.6036 -1.5779
19656TIP3   OH280458   6.398   5.517   1.576 -0.0446  1.0454  0.0912
19656TIP3    H180459   6.419   5.427   1.598 -3.7459  0.2587  1.0877
19656TIP3    H280460   6.400   5.519   1.480 -3.0369 -1.1609 -0.1740
19657TIP3   OH280461   0.277   1.782   1.411  0.0076  0.6250  0.0905
19657TIP3    H180462   0.232   1.839   1.349  1.0535  0.7808 -0.5605
19657TIP3    H280463   0.291   1.701   1.362  0.3522  0.5549  0.3035
19658TIP3   OH280464   4.857   0.676  13.487  0.1073 -0.4018  0.3444
19658TIP3    H180465   4.784   0.715  13.535  1.0351  1.9663  0.0015
19658TIP3    H280466   4.904   0.624  13.551 -1.6364 -1.6783  0.6512
19659TIP3   OH280467   1.080   1.522  17.246 -0.2353 -0.2058  0.2264
19659TIP3    H180468   0.992   1.560  17.254 -0.1879  0.5717 -2.3000
19659TIP3    H280469   1.103   1.534  17.154  2.2831 -0.9733  0.6980
19660TIP3   OH280470   3.437   4.390   5.706  0.1404 -0.0194 -0.2689
19660TIP3    H180471   3.488   4.470   5.713  0.7311 -0.4466  0.3807
19660TIP3    H280472   3.445   4.364   5.614 -0.3871  0.8678 -0.5827
19661TIP3   OH280473   2.286   2.247  17.353  0.1308  0.0333 -0.2184
19661TIP3    H180474   2.213   2.274  17.410  0.4201 -1.8527  1.1231
19661TIP3    H280475   2.251   2.174  17.302  0.3305  0.7693 -1.4455
19662TIP3   OH280476   3.005   0.397  14.944 -0.1969 -0.9181 -0.3811
19662TIP3    H180477   3.051   0.472  14.983 -0.5601 -1.5679  1.3884
19662TIP3    H280478   2.922   0.433  14.912  0.3774 -0.2531 -1.1582
19663TIP3   OH280479   1.051   1.458  15.999  0.0421 -0.0151 -0.2076
19663TIP3    H180480   1.135   1.467  15.955 -1.3382  2.2430 -2.7212
19663TIP3    H280481   1.035   1.364  16.001  2.8151 -0.5651  0.9114
19664TIP3   OH280482   3.329   6.595   6.161 -0.0907  0.3987  0.6433
19664TIP3    H180483   3.420   6.623   6.146  0.7992 -2.6921 -0.5142
19664TIP3    H280484   3.276   6.664   6.121  1.6575  2.5543  1.8025
19665TIP3   OH280485   2.736   2.419   4.370  0.4627 -0.4743  0.1264
19665TIP3    H180486   2.822   2.458   4.352  0.2751 -0.5678 -1.0245
19665TIP3    H280487   2.675   2.492   4.360  0.2322 -0.7890 -0.8678
19666TIP3   OH280488   4.263   0.004   1.155 -0.2365 -0.3612 -0.0637
19666TIP3    H180489   4.327  -0.012   1.224 -1.1388  0.5700  1.0338
19666TIP3    H280490   4.211  -0.076   1.152  1.2479 -1.3438 -1.3372
19667TIP3   OH280491   0.440   0.214  12.223  0.0913  0.0740  0.0072
19667TIP3    H180492   0.419   0.245  12.311  1.0251 -0.0531  0.2852
19667TIP3    H280493   0.535   0.227  12.214  0.0288 -0.0222 -0.9365
19668TIP3   OH280494   6.724   4.078  11.333 -0.2019  0.3996  0.1965
19668TIP3    H180495   6.773   4.055  11.254 -0.0320  1.6775 -0.0998
19668TIP3    H280496   6.632   4.066  11.308 -0.1067 -0.2106  0.1419
19669TIP3   OH280497   3.832   5.599   3.044 -0.2738 -1.0358 -0.3194
19669TIP3    H180498   3.889   5.533   3.083  1.0169 -0.3056 -0.8872
19669TIP3    H280499   3.807   5.561   2.959 -0.5614 -1.3205 -0.1085
19670TIP3   OH280500   4.247   0.914   0.948 -0.2060  0.2229  0.2389
19670TIP3    H180501   4.215   0.852   1.014  3.2180 -1.5078  0.5007
19670TIP3    H280502   4.248   0.863   0.867  0.6585  0.5733  0.0161
19671TIP3   OH280503   4.501   2.972  17.084  0.4317 -0.1434  0.7163
19671TIP3    H180504   4.572   2.974  17.148  1.9192  0.3848 -0.8807
19671TIP3    H280505   4.504   2.884  17.047  0.0899 -0.1932  0.8017
19672TIP3   OH280506   0.428   5.898  17.126  0.4293 -0.2305 -0.0400
19672TIP3    H180507   0.413   5.930  17.215 -1.0179 -0.7189 -0.0955
19672TIP3    H280508   0.383   5.961  17.070  0.8165 -0.2649 -0.3916
19673TIP3   OH280509   1.784   1.667   1.412  0.2847  0.0592  0.4285
19673TIP3    H180510   1.851   1.626   1.357  0.4796 -0.4828  1.0633
19673TIP3    H280511   1.833   1.705   1.485 -0.0226  0.3803  0.4688
19674TIP3   OH280512   4.695   0.535  12.952  0.4427  0.5032  0.6067
19674TIP3    H180513   4.659   0.600  13.012  1.3553  0.6550  1.0128
19674TIP3    H280514   4.750   0.479  13.007  1.5771  0.8499 -0.1207
19675TIP3   OH280515   1.380   2.682   7.310 -0.1995  0.2765  0.5912
19675TIP3    H180516   1.341   2.708   7.227 -0.5689 -1.5835  0.1566
19675TIP3    H280517   1.381   2.587   7.308  2.8968  0.1866  1.2676
19676TIP3   OH280518   4.390   3.707   2.527  0.4053  0.7970 -0.1961
19676TIP3    H180519   4.465   3.750   2.566  0.3290  1.2275 -0.5200
19676TIP3    H280520   4.399   3.615   2.552 -0.6374  1.3205  2.4682
19677TIP3   OH280521   3.483   1.138  16.085  0.0390 -0.2604 -0.1103
19677TIP3    H180522   3.499   1.063  16.142 -2.1741  0.2632  1.3386
19677TIP3    H280523   3.557   1.196  16.100 -0.4542 -0.1401  2.3368
19678TIP3   OH280524   1.655   2.316  11.535  0.0028 -0.2663  0.5547
19678TIP3    H180525   1.660   2.247  11.468  0.9651  1.0679 -0.8316
19678TIP3    H280526   1.564   2.345  11.533 -0.3490 -1.2911  0.9659
19679TIP3   OH280527   0.664   2.162   4.769 -0.2315 -0.4879  0.3461
19679TIP3    H180528   0.675   2.169   4.864  0.3348 -0.1463  0.2600
19679TIP3    H280529   0.570   2.158   4.756 -0.2994 -2.1952  1.0405
19680TIP3   OH280530   4.941   5.684  17.184 -0.0734  0.1906 -0.2939
19680TIP3    H180531   4.963   5.614  17.123 -0.2089  0.9952 -1.3120
19680TIP3    H280532   4.855   5.714  17.156 -0.5948 -0.1018  0.9591
19681TIP3   OH280533   6.412   2.818  15.744 -0.2606 -0.0089 -0.1993
19681TIP3    H180534   6.329   2.774  15.764  0.1024 -1.1063 -1.0352
19681TIP3    H280535   6.462   2.753  15.694 -0.3925  1.9296 -3.0764
19682TIP3   OH280536   2.933   4.697   0.484  0.0215 -0.2208  0.0449
19682TIP3    H180537   2.847   4.673   0.520 -0.4966 -0.1300 -1.0973
19682TIP3    H280538   2.964   4.618   0.441  0.0160  0.0637 -0.4824
19683TIP3   OH280539   4.060   3.043  14.461  0.1328  0.8522 -0.4937
19683TIP3    H180540   4.145   2.999  14.465  1.0852  2.4035 -2.1303
19683TIP3    H280541   3.998   2.973  14.445  1.4264 -0.0725 -1.7014
19684TIP3   OH280542   4.400   3.729   0.282  0.0112 -0.0276 -0.6508
19684TIP3    H180543   4.433   3.805   0.329 -1.2514  0.2037 -0.1057
19684TIP3    H280544   4.406   3.754   0.189  1.7961 -0.1996 -0.6130
19685TIP3   OH280545   2.138   2.992   2.672 -0.1540  1.0252  0.2045
19685TIP3    H180546   2.171   3.045   2.599 -2.4380 -0.3884 -1.9984
19685TIP3    H280547   2.201   2.920   2.679  0.1928  1.2762 -0.2579
19686TIP3   OH280548   1.690   6.708  14.947 -0.0078 -0.0024 -0.0944
19686TIP3    H180549   1.597   6.728  14.939  0.4207  3.5792  1.7619
19686TIP3    H280550   1.713   6.662  14.866 -2.6988  1.9123 -2.0872
19687TIP3   OH280551   3.551   1.957   6.167  0.2951  0.2949 -0.6616
19687TIP3    H180552   3.592   1.985   6.248 -1.5234  1.4673 -0.0790
19687TIP3    H280553   3.477   1.904   6.195 -0.1651  0.4470 -1.5524
19688TIP3   OH280554   6.380   5.336   5.426  0.9979 -0.0648  0.0973
19688TIP3    H180555   6.438   5.380   5.364  2.1906 -0.1288  1.1115
19688TIP3    H280556   6.411   5.245   5.428  1.8854  0.2324  1.7558
19689TIP3   OH280557   6.272   1.066   5.441 -1.2445  0.0923 -0.0453
19689TIP3    H180558   6.288   0.980   5.403 -0.6601  0.2553 -0.1708
19689TIP3    H280559   6.237   1.048   5.528 -0.3126 -0.2687  0.2580
19690TIP3   OH280560   1.263   1.249   1.998  0.1747 -0.4283 -0.1556
19690TIP3    H180561   1.258   1.201   1.916 -1.0178  0.9514 -0.9436
19690TIP3    H280562   1.172   1.260   2.025  0.5573 -1.1831  1.5750
19691TIP3   OH280563   1.662   4.894   4.438  0.7104  0.0290 -0.1411
19691TIP3    H180564   1.655   4.975   4.489  0.3574 -0.7935  1.1797
19691TIP3    H280565   1.584   4.893   4.383  0.1074  0.0542  0.6846
19692TIP3   OH280566   4.591   4.994  13.026 -0.0255  0.1679 -0.3029
19692TIP3    H180567   4.640   5.073  13.004  0.7732  0.0497  0.9432
19692TIP3    H280568   4.602   4.985  13.120 -1.0689 -0.8017 -0.2574
19693TIP3   OH280569   6.319   2.092   3.916 -0.4149  0.5999  0.3383
19693TIP3    H180570   6.379   2.033   3.869 -0.8763  0.6481 -0.3219
19693TIP3    H280571   6.304   2.049   4.000 -1.0164 -0.4014 -0.2726
19694TIP3   OH280572   2.232   6.241  10.793  0.5432  0.1866  0.6087
19694TIP3    H180573   2.235   6.165  10.734 -0.3028 -0.1024  0.9252
19694TIP3    H280574   2.176   6.304  10.747  1.7733  0.9165  0.0346
19695TIP3   OH280575   6.386   0.545  14.224  0.6547 -0.2062 -0.4921
19695TIP3    H180576   6.355   0.608  14.158  1.8886  1.4160  0.4086
19695TIP3    H280577   6.475   0.573  14.244  0.0004  0.0316  2.5876
19696TIP3   OH280578   0.126   6.642  11.487 -0.3684 -0.2376  0.0878
19696TIP3    H180579   0.106   6.697  11.563  1.2219  0.1085  0.2837
19696TIP3    H280580   0.076   6.561  11.502  0.3502 -0.4011  1.8089
19697TIP3   OH280581   0.790   1.643  14.118  0.2162 -0.0304 -0.0411
19697TIP3    H180582   0.714   1.681  14.162 -1.0043 -2.0051 -0.3548
19697TIP3    H280583   0.865   1.679  14.166 -0.8790  1.7653  0.4367
19698TIP3   OH280584   0.378   3.836  13.909  0.7385  0.2919 -0.1289
19698TIP3    H180585   0.377   3.778  13.832  0.8333 -0.2146  0.2453
19698TIP3    H280586   0.352   3.779  13.981  1.2254  0.6204  0.3106
19699TIP3   OH280587   4.889   1.984   5.439 -0.2435 -0.3458  0.1441
19699TIP3    H180588   4.894   1.889   5.439 -1.0246 -0.3944 -0.0521
19699TIP3    H280589   4.957   2.012   5.377 -0.3131 -0.7928 -0.1358
19700TIP3   OH280590   4.839   4.625   3.890 -0.0701 -0.1581  0.5707
19700TIP3    H180591   4.900   4.552   3.904 -1.1234 -0.7061  2.5660
19700TIP3    H280592   4.762   4.584   3.849 -0.7929 -0.2631  1.9859
19701TIP3   OH280593   2.142   0.265  15.935 -0.3816 -0.1896 -0.5537
19701TIP3    H180594   2.070   0.227  15.886 -1.0946  0.4446 -0.0215
19701TIP3    H280595   2.109   0.274  16.024  0.3699  0.0722 -0.2878
19702TIP3   OH280596   4.878   6.355  15.668  0.0570  0.1831  0.0717
19702TIP3    H180597   4.837   6.331  15.751  4.1114 -2.1287  1.6938
19702TIP3    H280598   4.909   6.444  15.682 -0.6635  0.3895  0.4028
19703TIP3   OH280599   2.483   2.364   0.084  0.4035 -0.5274 -0.0919
19703TIP3    H180600   2.461   2.457   0.096  0.6681 -0.5168  0.3185
19703TIP3    H280601   2.415   2.331   0.025  1.6145  0.4984 -2.2060
19704TIP3   OH280602   6.555   4.623  11.931  0.7373 -0.6360 -0.1776
19704TIP3    H180603   6.492   4.673  11.983 -0.2354 -1.7721 -0.2107
19704TIP3    H280604   6.636   4.672  11.939  0.7264 -0.9009  2.7152
19705TIP3   OH280605   4.214   2.086   4.305  0.5665  0.2697 -0.2586
19705TIP3    H180606   4.203   2.128   4.391 -0.9702  0.2533 -0.4257
19705TIP3    H280607   4.219   1.992   4.325 -0.1235  0.2407 -0.2055
19706TIP3   OH280608   5.894   4.473   5.067 -0.6490  0.2439 -0.1774
19706TIP3    H180609   5.849   4.438   4.990  0.4442  1.5398 -1.4697
19706TIP3    H280610   5.862   4.563   5.074 -0.5111  0.2276  0.7051
19707TIP3   OH280611   1.396   3.815  13.247  0.0520  0.4999 -0.3139
19707TIP3    H180612   1.412   3.721  13.246 -2.7415 -0.0439 -0.7353
19707TIP3    H280613   1.338   3.830  13.172 -0.6324  2.3531  0.5381
19708TIP3   OH280614   1.118   2.063  14.544 -0.2171  0.2485  0.1089
19708TIP3    H180615   1.033   2.033  14.577 -0.0161 -2.1402 -1.2987
19708TIP3    H280616   1.146   2.130  14.607 -3.0060  0.9691  0.7308
19709TIP3   OH280617   3.068   0.700  14.254 -0.5513  0.4138  0.2260
19709TIP3    H180618   2.977   0.725  14.240 -1.6234 -2.0323  2.1943
19709TIP3    H280619   3.112   0.722  14.171 -3.9432 -2.7659 -2.7391
19710TIP3   OH280620   0.436   6.528  17.316  0.3309 -0.3463  0.4121
19710TIP3    H180621   0.464   6.446  17.359 -0.7299 -1.1421 -0.3636
19710TIP3    H280622   0.356   6.552  17.362 -0.8273 -1.2151 -1.0715
19711TIP3   OH280623   2.782   2.815  11.299 -0.4549 -0.2079 -0.1284
19711TIP3    H180624   2.786   2.737  11.354 -0.1871 -0.4924 -0.5522
19711TIP3    H280625   2.764   2.782  11.211  2.0458 -0.0150 -0.7902
19712TIP3   OH280626   3.253   4.209   6.780  0.0662 -0.0581 -0.5920
19712TIP3    H180627   3.176   4.258   6.809  0.6205  0.1431  0.5798
19712TIP3    H280628   3.298   4.269   6.721  0.6632  0.8281  0.7193
19713TIP3   OH280629   5.485   0.849  15.988  0.6219  0.2503  0.4276
19713TIP3    H180630   5.410   0.804  15.949  1.5660  0.3010 -1.5813
19713TIP3    H280631   5.501   0.804  16.070 -1.8872  0.5520  1.1538
19714TIP3   OH280632   6.262   0.052   4.922  0.7174 -0.1260  0.8059
19714TIP3    H180633   6.314   0.117   4.876 -0.5731  0.4982  0.1825
19714TIP3    H280634   6.294  -0.032   4.890  0.1194  0.2902 -0.9551
19715TIP3   OH280635   3.220   0.411   5.079  0.0735  0.5379  0.3380
19715TIP3    H180636   3.278   0.375   5.146 -0.9823 -0.8537  0.5413
19715TIP3    H280637   3.279   0.446   5.013  1.3015 -3.2834 -0.8324
19716TIP3   OH280638   0.088   5.031   3.549  0.2529  0.9555  0.3346
19716TIP3    H180639   0.100   5.029   3.644  0.2489 -0.0068  0.3222
19716TIP3    H280640  -0.004   5.008   3.536  0.4670  0.2182  0.0685
19717TIP3   OH280641   2.184   5.732   0.905 -0.0375  0.6159 -0.6051
19717TIP3    H180642   2.135   5.732   0.823  2.5030  0.1007 -2.2072
19717TIP3    H280643   2.215   5.822   0.915  1.5820  0.1887 -1.4835
19718TIP3   OH280644   3.025   3.824  12.577  0.3147  0.0646  0.4708
19718TIP3    H180645   2.966   3.891  12.542 -1.9737 -2.3756 -0.7095
19718TIP3    H280646   3.070   3.867  12.650 -2.0449  2.4437  0.6698
19719TIP3   OH280647   5.620   6.291   2.907  0.0738  0.0458 -0.0673
19719TIP3    H180648   5.606   6.204   2.943  2.4480 -0.8637 -1.1682
19719TIP3    H280649   5.604   6.281   2.814 -0.6247  1.0598 -0.0705
19720TIP3   OH280650   5.900   2.612  11.813 -0.0829  0.4186  0.2904
19720TIP3    H180651   5.937   2.671  11.747 -0.0708  0.9304  0.7571
19720TIP3    H280652   5.813   2.646  11.830 -1.1026 -1.2083 -1.3408
19721TIP3   OH280653   4.161   4.606   2.707  0.3692  0.0820 -0.2826
19721TIP3    H180654   4.068   4.600   2.688  0.2364 -0.6395  0.5575
19721TIP3    H280655   4.176   4.543   2.777  2.1752 -2.6353 -2.8994
19722TIP3   OH280656   5.017   1.398   5.973  0.1163 -0.2019 -0.0358
19722TIP3    H180657   5.094   1.440   6.012 -0.5965  1.1063  0.0333
19722TIP3    H280658   4.943   1.434   6.022 -0.6125 -0.5165 -0.8804
19723TIP3   OH280659   5.804   5.141   4.605  0.1380  0.0324 -0.5218
19723TIP3    H180660   5.736   5.162   4.541  0.2068 -1.2600 -1.0544
19723TIP3    H280661   5.886   5.156   4.559  0.2103  0.3738 -0.2897
19724TIP3   OH280662   4.901   3.076   6.193  0.6557 -0.4375  0.4719
19724TIP3    H180663   4.828   3.044   6.246 -1.0177  0.4087 -1.2319
19724TIP3    H280664   4.898   3.171   6.202  2.6791 -0.4303  1.7454
19725TIP3   OH280665   3.375   5.931   2.379  0.7332  0.6031 -0.2992
19725TIP3    H180666   3.354   5.845   2.413  0.1506  1.4008  1.4527
19725TIP3    H280667   3.314   5.943   2.306  0.2380 -0.1242 -0.0168
19726TIP3   OH280668   0.701   4.777   4.303  0.4188  0.0721 -0.6934
19726TIP3    H180669   0.692   4.790   4.397 -0.4364 -0.6100 -0.6691
19726TIP3    H280670   0.745   4.693   4.294 -0.0683 -0.1680 -0.8964
19727TIP3   OH280671   3.331   1.686   6.007 -0.2208 -0.7766  0.1310
19727TIP3    H180672   3.246   1.682   5.964  0.0673 -1.0029 -0.4305
19727TIP3    H280673   3.321   1.753   6.074 -0.4847  0.0811 -0.7373
19728TIP3   OH280674   6.689   3.251   6.338 -0.5409 -0.0169  0.3574
19728TIP3    H180675   6.717   3.342   6.332 -1.6159  0.3828  1.2114
19728TIP3    H280676   6.758   3.208   6.389  0.2187  0.1954 -0.4684
19729TIP3   OH280677   5.726   6.333   2.208 -0.0644 -0.6973 -0.0212
19729TIP3    H180678   5.789   6.266   2.182 -1.4291 -2.0885  0.1457
19729TIP3    H280679   5.767   6.375   2.284  2.3352  1.0356 -2.0744
19730TIP3   OH280680   5.717   5.044   3.545  0.3427  0.1150 -0.1030
19730TIP3    H180681   5.710   5.068   3.637  0.0111  0.7488 -0.2918
19730TIP3    H280682   5.720   5.127   3.498  0.8196 -0.2006 -0.6464
19731TIP3   OH280683   4.639   0.285   1.982  0.4531  0.1740 -0.0664
19731TIP3    H180684   4.581   0.216   1.948  0.8546 -0.3183  0.2360
19731TIP3    H280685   4.591   0.366   1.967 -1.2401 -0.3472  1.9682
19732TIP3   OH280686   0.779   0.832   2.143 -0.8072 -0.8901 -0.3446
19732TIP3    H180687   0.729   0.752   2.131  0.0196 -1.6989  1.3764
19732TIP3    H280688   0.811   0.829   2.233 -2.5998  2.4463  0.5707
19733TIP3   OH280689   0.199   2.414  14.922 -0.6563  0.1252  0.3358
19733TIP3    H180690   0.190   2.468  15.001  0.0986 -1.4562  1.5618
19733TIP3    H280691   0.171   2.327  14.949 -0.4800 -0.4324 -1.1905
19734TIP3   OH280692   4.126   4.323   4.776  0.4552 -0.2486 -0.5553
19734TIP3    H180693   4.137   4.297   4.684  0.9504 -1.2404 -0.2258
19734TIP3    H280694   4.059   4.264   4.810  0.9551 -0.5218 -0.0278
19735TIP3   OH280695   0.785   4.711  15.613  0.5641  0.0765 -1.0229
19735TIP3    H180696   0.765   4.803  15.601  1.3272  0.3793 -0.0727
19735TIP3    H280697   0.759   4.670  15.530  0.6126  1.1943 -1.6097
19736TIP3   OH280698   4.996   4.976   0.608 -0.5231 -0.2368 -0.4431
19736TIP3    H180699   4.919   4.951   0.658 -3.3333  1.7744 -3.3131
19736TIP3    H280700   4.998   4.915   0.535 -0.9525  1.1385 -1.6673
19737TIP3   OH280701   5.868   4.711  14.467  0.1967  0.4463 -0.6899
19737TIP3    H180702   5.834   4.633  14.424 -0.3552  0.5567 -0.4665
19737TIP3    H280703   5.836   4.784  14.414  1.5984  0.4934 -1.5121
19738TIP3   OH280704   4.850   1.283  16.150 -0.0252  0.1118  0.1546
19738TIP3    H180705   4.766   1.315  16.184  0.4290  0.8369  0.6276
19738TIP3    H280706   4.847   1.303  16.057 -1.3939 -2.1288 -0.3600
19739TIP3   OH280707   2.749   1.459  15.036  0.1441  0.4496  0.0644
19739TIP3    H180708   2.673   1.403  15.021  0.2720 -0.2093  1.6375
19739TIP3    H280709   2.790   1.468  14.950 -1.0498 -0.1497 -0.5918
19740TIP3   OH280710   4.134   2.155   0.531 -0.6186  0.0691 -0.0806
19740TIP3    H180711   4.055   2.158   0.585 -0.9320 -0.2690 -0.5112
19740TIP3    H280712   4.104   2.118   0.448  0.1517 -0.8377  0.0368
19741TIP3   OH280713   5.200   0.089  12.787 -0.0799  0.1885  0.5139
19741TIP3    H180714   5.235   0.044  12.710  2.0487 -0.1470  1.6025
19741TIP3    H280715   5.135   0.150  12.751  0.2956 -0.4884 -1.4592
19742TIP3   OH280716   4.871   5.490   2.204 -0.0024  0.3933 -0.5014
19742TIP3    H180717   4.853   5.439   2.125 -1.2808  0.8234 -0.5113
19742TIP3    H280718   4.786   5.527   2.228  0.4920  0.7618  0.7318
19743TIP3   OH280719   2.568   4.330   5.398 -0.2998 -0.2690 -0.2245
19743TIP3    H180720   2.634   4.297   5.458  2.8413  0.4236 -3.0228
19743TIP3    H280721   2.532   4.252   5.356  0.2801 -0.5510 -0.2019
19744TIP3   OH280722   4.834   1.754  12.708  0.6075  0.5799  0.3461
19744TIP3    H180723   4.898   1.714  12.767  1.0803 -1.1918 -1.2395
19744TIP3    H280724   4.783   1.680  12.675 -1.6056  1.8412  0.7514
19745TIP3   OH280725   3.648   4.172  11.886  0.6262  0.2870 -0.2914
19745TIP3    H180726   3.560   4.171  11.847  0.0098  0.2225  1.0408
19745TIP3    H280727   3.641   4.115  11.962  1.8004  0.4007 -0.0780
19746TIP3   OH280728   0.115   2.254  14.333  0.1245  0.1661  0.3015
19746TIP3    H180729   0.200   2.261  14.376  0.9142 -0.3764 -1.0889
19746TIP3    H280730   0.132   2.200  14.256 -1.4552  0.1909 -0.0937
19747TIP3   OH280731   5.712   4.459  16.239 -0.5007  0.0402 -0.3470
19747TIP3    H180732   5.701   4.524  16.308  1.8721  0.8123 -0.5786
19747TIP3    H280733   5.646   4.481  16.174 -1.2356  0.7487  0.6091
19748TIP3   OH280734   4.234   0.824   1.844 -0.4221  0.3661 -0.0789
19748TIP3    H180735   4.273   0.740   1.870  1.4917  1.2129 -0.0760
19748TIP3    H280736   4.143   0.802   1.823  0.0702 -1.7481 -0.2705
19749TIP3   OH280737   6.612   6.073   0.223 -0.0710 -0.0719 -0.5482
19749TIP3    H180738   6.622   6.168   0.232  2.0587 -0.1589 -1.4078
19749TIP3    H280739   6.669   6.050   0.150  0.2799 -2.1642  0.3105
19750TIP3   OH280740   6.550   0.794   6.420 -0.2695  0.1762 -0.2304
19750TIP3    H180741   6.618   0.846   6.463  0.5505 -0.8622 -0.2251
19750TIP3    H280742   6.566   0.704   6.450 -0.4799 -0.3663 -1.6718
19751TIP3   OH280743   2.996   2.737  16.963 -0.0183 -0.4567  0.3284
19751TIP3    H180744   2.920   2.762  17.017 -0.9355 -0.4130 -0.9473
19751TIP3    H280745   3.070   2.782  17.004 -0.8836  0.5022  0.8791
19752TIP3   OH280746   5.077   0.562   0.674 -0.0403  0.2778  0.4358
19752TIP3    H180747   5.155   0.612   0.648  1.0149 -1.1197  0.8125
19752TIP3    H280748   5.102   0.520   0.756 -0.4060 -1.8903 -0.5038
19753TIP3   OH280749   4.796   2.445   4.078 -0.6413 -0.2758  0.0902
19753TIP3    H180750   4.723   2.411   4.131 -1.6237  1.9871  0.3140
19753TIP3    H280751   4.842   2.505   4.137  0.3969 -0.3794 -0.5900
19754TIP3   OH280752   3.290   6.725   2.143 -0.0114  0.5214 -0.2850
19754TIP3    H180753   3.302   6.732   2.049 -1.6761  0.0073 -0.5788
19754TIP3    H280754   3.254   6.809   2.170 -0.9809  0.1587 -0.3935
19755TIP3   OH280755   3.769   2.245  17.129  0.1845  0.1056 -0.2769
19755TIP3    H180756   3.783   2.328  17.083  1.6659  0.6294  1.0256
19755TIP3    H280757   3.679   2.250  17.161 -1.1918 -0.5927 -3.5790
19756TIP3   OH280758   1.856   3.677  13.718  0.2712 -0.1964 -0.1844
19756TIP3    H180759   1.792   3.744  13.694  2.6824  1.6615 -1.8386
19756TIP3    H280760   1.867   3.687  13.812 -0.1287  1.0554 -0.2581
19757TIP3   OH280761   4.738   5.071   1.732  0.2234  0.1088  0.0194
19757TIP3    H180762   4.747   5.151   1.680  1.1294  0.0348  0.0428
19757TIP3    H280763   4.695   5.098   1.813  0.8607  0.6521  0.1842
19758TIP3   OH280764   1.444   1.134   1.138  0.2502 -0.6418  0.0340
19758TIP3    H180765   1.457   1.228   1.129 -0.1368 -0.6006 -0.1151
19758TIP3    H280766   1.476   1.114   1.226 -2.3252  0.1240  1.2387
19759TIP3   OH280767   3.672   2.447  12.495 -0.2893  0.0100 -0.3240
19759TIP3    H180768   3.656   2.427  12.587 -0.4590  1.4006 -0.0198
19759TIP3    H280769   3.601   2.402  12.448  0.9957 -2.4545 -0.0328
19760TIP3   OH280770   6.338   4.610  11.332  0.3098 -0.1667 -0.3796
19760TIP3    H180771   6.381   4.695  11.321 -0.3391 -0.0078 -1.8776
19760TIP3    H280772   6.301   4.590  11.246 -1.5133 -0.8897  0.5197
19761TIP3   OH280773   4.130   6.412  14.289  0.1008 -0.1460 -0.7794
19761TIP3    H180774   4.213   6.448  14.258  0.5009  0.2060  0.6672
19761TIP3    H280775   4.127   6.324  14.251  1.4150 -0.3906 -0.3525
19762TIP3   OH280776   1.561   2.305  15.422 -0.5234  0.0437 -0.0720
19762TIP3    H180777   1.568   2.211  15.440  1.7856  0.1574 -0.1250
19762TIP3    H280778   1.525   2.342  15.502  1.5462 -0.5183  1.1668
19763TIP3   OH280779   4.948   3.042   4.088  0.0892  0.2740  0.1363
19763TIP3    H180780   4.915   3.129   4.065 -0.4038  0.1311  0.2955
19763TIP3    H280781   5.041   3.055   4.103  0.0375  0.7557  0.0581
19764TIP3   OH280782   1.479   3.305   5.595  0.0504 -0.1104 -0.4634
19764TIP3    H180783   1.499   3.280   5.504  0.2981 -1.2614 -0.1016
19764TIP3    H280784   1.484   3.223   5.644  0.0595  0.5293  0.6207
19765TIP3   OH280785   6.270   5.476  17.233 -0.2603  0.6922  0.1355
19765TIP3    H180786   6.305   5.508  17.150 -0.6600 -0.4596 -0.4900
19765TIP3    H280787   6.348   5.452  17.284 -0.0436  0.7237 -0.1786
19766TIP3   OH280788   6.331   3.876  11.861 -0.5948 -0.2194  0.8145
19766TIP3    H180789   6.366   3.920  11.938  1.5931 -0.7423  0.2081
19766TIP3    H280790   6.365   3.928  11.787 -0.0602 -1.4532  0.1648
19767TIP3   OH280791   6.234   1.143   4.862 -0.2188 -0.0288  0.7494
19767TIP3    H180792   6.297   1.109   4.798 -0.8765 -2.4515  1.2995
19767TIP3    H280793   6.200   1.065   4.906 -1.2008  1.4450  2.7395
19768TIP3   OH280794   0.053   0.093  11.882  0.1521 -0.0680  0.1578
19768TIP3    H180795   0.043   0.174  11.832  2.1409 -0.0316 -0.2626
19768TIP3    H280796   0.003   0.109  11.963 -0.3745  1.1475 -0.3769
19769TIP3   OH280797   0.485   6.164   2.337 -0.3421 -0.4262 -0.2067
19769TIP3    H180798   0.428   6.225   2.291 -1.5722  0.3631  2.1894
19769TIP3    H280799   0.509   6.100   2.271 -0.9083  1.3368 -2.2424
19770TIP3   OH280800   6.723   1.309  11.563  0.1238 -0.0232 -0.3555
19770TIP3    H180801   6.800   1.281  11.611 -0.1785 -1.3135 -0.5882
19770TIP3    H280802   6.726   1.260  11.481  0.6275  2.1139 -1.7112
19771TIP3   OH280803   1.442   6.421  11.602  0.0836  0.2727 -0.3992
19771TIP3    H180804   1.519   6.397  11.654  1.3404 -0.0529 -2.3048
19771TIP3    H280805   1.439   6.516  11.606  1.2416  0.3623 -1.1287
19772TIP3   OH280806   6.736   6.401  14.646 -0.1565  0.7104 -1.5557
19772TIP3    H180807   6.800   6.438  14.585 -0.0664  1.3418 -1.0821
19772TIP3    H280808   6.653   6.405  14.598 -0.3296  2.4407 -1.1725
19773TIP3   OH280809   2.226   2.831   1.735  0.3770 -0.2280 -0.1682
19773TIP3    H180810   2.198   2.762   1.795  0.2642 -0.5158 -0.5536
19773TIP3    H280811   2.150   2.848   1.680 -0.0127  1.0707  0.7195
19774TIP3   OH280812   5.014   3.705  11.958 -0.0257  0.1929 -0.0103
19774TIP3    H180813   5.064   3.723  11.878 -0.5169  2.0271  0.0504
19774TIP3    H280814   5.080   3.686  12.024  0.4632  0.1058 -0.5201
19775TIP3   OH280815   5.327   1.801  16.955 -0.0939 -0.1502  0.2293
19775TIP3    H180816   5.290   1.791  17.043  0.0783  0.1578  0.3384
19775TIP3    H280817   5.405   1.856  16.968 -0.4866  0.5261 -0.2181
19776TIP3   OH280818   5.129   3.513  13.147 -0.0799  0.3620  0.3428
19776TIP3    H180819   5.175   3.505  13.231 -0.0627 -2.4158  0.1714
19776TIP3    H280820   5.060   3.446  13.152  0.0320  0.0163 -1.9112
19777TIP3   OH280821   0.235   0.773  13.336  0.3207 -0.5210  0.0842
19777TIP3    H180822   0.326   0.773  13.307  0.3377 -1.4785  0.1188
19777TIP3    H280823   0.227   0.852  13.390  0.7165  0.3969 -1.1451
19778TIP3   OH280824   0.652   5.764   3.794 -0.4941 -0.3708  0.1462
19778TIP3    H180825   0.576   5.711   3.767 -1.2479  0.6500  0.1991
19778TIP3    H280826   0.623   5.854   3.783  1.6669  0.1432 -2.6834
19779TIP3   OH280827   2.674   4.165  16.311 -0.1557 -0.2656 -0.4702
19779TIP3    H180828   2.600   4.198  16.259 -0.0591  2.5786  1.0015
19779TIP3    H280829   2.638   4.091  16.360 -2.2362  1.2661  0.4882
19780TIP3   OH280830   3.362   0.262   2.447  0.4978 -0.0320 -0.2002
19780TIP3    H180831   3.425   0.249   2.376  2.5231  0.8752  1.3320
19780TIP3    H280832   3.310   0.182   2.447  2.5180 -1.4227 -0.7318
19781TIP3   OH280833   3.153   1.409  14.094  0.2140  0.7926  0.7808
19781TIP3    H180834   3.227   1.374  14.144 -0.0934  1.4758  1.7457
19781TIP3    H280835   3.125   1.336  14.039  2.1062  0.7589 -0.2143
19782TIP3   OH280836   6.774   3.896  12.798 -0.6915 -0.9149  0.5849
19782TIP3    H180837   6.816   3.839  12.863 -1.5863 -2.6230 -0.2657
19782TIP3    H280838   6.750   3.974  12.848  3.0806  0.0673  1.2011
19783TIP3   OH280839   0.860   4.056  15.084 -0.0225  0.6227  0.2716
19783TIP3    H180840   0.806   4.120  15.037 -0.1952  2.0514  2.3128
19783TIP3    H280841   0.928   4.107  15.126  2.0164 -0.9853 -0.9009
19784TIP3   OH280842   6.251   6.229  16.201  0.2347 -0.1086  0.5807
19784TIP3    H180843   6.227   6.240  16.293  1.3801  1.8558  0.7021
19784TIP3    H280844   6.346   6.242  16.199  0.3295 -0.8083 -0.7900
19785TIP3   OH280845   1.998   5.151   3.384  0.1100 -0.5489  0.3972
19785TIP3    H180846   1.995   5.116   3.295  1.4556  0.5740 -0.1340
19785TIP3    H280847   2.076   5.111   3.423  1.1038  1.0124  0.1097
19786TIP3   OH280848   0.178   0.836  13.905  0.2467 -0.2994 -0.5119
19786TIP3    H180849   0.176   0.774  13.978 -0.8961 -0.2627 -0.4974
19786TIP3    H280850   0.107   0.898  13.923 -0.7628 -0.9016 -2.1635
19787TIP3   OH280851   5.505   2.842   0.528  0.1535  0.2716  0.8453
19787TIP3    H180852   5.457   2.780   0.583 -2.6093 -0.1278 -1.7680
19787TIP3    H280853   5.539   2.789   0.456 -1.7839  1.5204 -1.1435
19788TIP3   OH280854   1.192   2.741   6.517 -0.2001 -0.5968 -0.1297
19788TIP3    H180855   1.189   2.827   6.475  1.1479 -1.0359 -1.2145
19788TIP3    H280856   1.282   2.732   6.547 -0.8110 -0.8442  1.7667
19789TIP3   OH280857   1.132   2.918  13.166 -0.2742  0.1853 -0.2086
19789TIP3    H180858   1.079   2.978  13.218 -0.5585  0.1510 -0.4588
19789TIP3    H280859   1.126   2.834  13.212  0.3557  0.4031  0.3020
19790TIP3   OH280860   5.288   3.785  10.794  0.0125  0.3374 -0.4118
19790TIP3    H180861   5.304   3.713  10.733 -0.0754  1.6113 -1.9955
19790TIP3    H280862   5.376   3.816  10.818  0.0929 -0.9897  1.2087
19791TIP3   OH280863   4.834   1.416  12.469 -0.1173 -0.1383 -0.1157
19791TIP3    H180864   4.774   1.450  12.535  1.6779  0.6221  1.2297
19791TIP3    H280865   4.780   1.404  12.391 -1.8943  0.9229  0.8812
19792TIP3   OH280866   4.304   2.940   4.773 -0.3672  0.1336 -0.2286
19792TIP3    H180867   4.243   2.868   4.762 -0.2689  0.1908 -1.2538
19792TIP3    H280868   4.389   2.898   4.784 -0.4760  0.0748  0.4612
19793TIP3   OH280869   5.743   3.045   5.177 -1.0571  0.4314  0.2267
19793TIP3    H180870   5.776   3.079   5.260 -0.2410  1.7381 -0.6031
19793TIP3    H280871   5.655   3.013   5.197 -0.8047  0.5642  1.6190
19794TIP3   OH280872   6.427   3.197  13.153  0.1532 -0.0722 -1.0504
19794TIP3    H180873   6.342   3.173  13.117 -1.1001 -0.1342  1.6925
19794TIP3    H280874   6.427   3.293  13.151 -0.8131 -0.0084  0.5885
19795TIP3   OH280875   2.793   3.577   2.341  0.1756  0.0796  0.7282
19795TIP3    H180876   2.847   3.619   2.274 -0.0526  0.5285  0.8207
19795TIP3    H280877   2.824   3.614   2.424 -0.4367  0.5411  0.7636
19796TIP3   OH280878   0.890   2.618   4.468  0.2719 -0.0042 -0.0208
19796TIP3    H180879   0.947   2.689   4.496 -0.8815  0.9715 -0.0539
19796TIP3    H280880   0.916   2.601   4.377  1.9543 -1.0824  0.6215
19797TIP3   OH280881   5.895   1.106   0.173  0.6473  0.1496  0.7499
19797TIP3    H180882   5.973   1.156   0.148 -0.0031  0.3614 -1.0741
19797TIP3    H280883   5.858   1.154   0.246  2.3837 -0.1446  1.8817
19798TIP3   OH280884   4.675   6.106  17.190 -0.0361  0.2407  0.5269
19798TIP3    H180885   4.599   6.117  17.133  2.3669 -0.4264 -3.1439
19798TIP3    H280886   4.710   6.020  17.166  1.1939 -0.0761  3.0887
19799TIP3   OH280887   4.377   0.121   0.891 -0.6368  0.3156  0.1393
19799TIP3    H180888   4.337   0.206   0.872  2.1142  1.4460 -1.2103
19799TIP3    H280889   4.379   0.115   0.986 -1.9236  1.1770  0.2433
19800TIP3   OH280890   4.779   1.022   4.263  0.4114  0.1797  0.5511
19800TIP3    H180891   4.868   1.039   4.293  0.8587  1.4044 -1.3053
19800TIP3    H280892   4.791   0.979   4.178 -0.7927 -1.1815  1.0297
19801TIP3   OH280893   4.334   6.390  14.595  0.1063  0.2797 -0.3731
19801TIP3    H180894   4.248   6.352  14.613  0.5789 -0.3722  0.5394
19801TIP3    H280895   4.319   6.447  14.519 -1.2538  0.6184  0.1249
19802TIP3   OH280896   4.456   3.149   1.072  0.5023  0.1006  0.5298
19802TIP3    H180897   4.432   3.203   1.147 -0.0383  0.4710  0.0925
19802TIP3    H280898   4.484   3.211   1.005  0.9675 -0.2276  0.4134
19803TIP3   OH280899   5.409   2.698  14.964 -0.2259 -0.1445  0.1510
19803TIP3    H180900   5.350   2.772  14.949  2.2814  1.7489 -1.3922
19803TIP3    H280901   5.428   2.701  15.058 -2.2980 -0.6305  0.6135
19804TIP3   OH280902   4.894   2.418  11.212 -0.1342 -0.4013 -0.7857
19804TIP3    H180903   4.800   2.435  11.222 -0.0592 -0.4213  0.0045
19804TIP3    H280904   4.931   2.504  11.189 -0.3303 -0.3714 -0.9931
19805TIP3   OH280905   4.508   2.205  12.638 -0.7089  0.0182  0.6752
19805TIP3    H180906   4.435   2.194  12.699 -1.1554 -3.2780 -0.2748
19805TIP3    H280907   4.585   2.216  12.693 -1.4874  0.1261  1.7590
19806TIP3   OH280908   3.708   2.268   5.138 -0.2601 -0.8607  0.1997
19806TIP3    H180909   3.692   2.354   5.099  0.5677 -1.0879 -0.6901
19806TIP3    H280910   3.789   2.238   5.097  1.4955 -0.5157  3.1603
19807TIP3   OH280911   1.947   6.639  11.322 -0.1676 -0.1080 -0.2408
19807TIP3    H180912   1.940   6.724  11.366 -0.7526  0.2765 -1.0414
19807TIP3    H280913   1.908   6.577  11.384  1.0704  0.0412  0.7327
19808TIP3   OH280914   4.178   0.732  16.462  0.6807  0.8174  0.3644
19808TIP3    H180915   4.271   0.754  16.470  1.0164 -0.5669  0.5885
19808TIP3    H280916   4.162   0.731  16.367  0.3976  2.8827  0.3511
19809TIP3   OH280917   5.682   1.607  12.338  0.8636  0.2783 -0.3120
19809TIP3    H180918   5.681   1.671  12.267  2.7414 -0.9865 -1.5603
19809TIP3    H280919   5.718   1.655  12.413  0.4838  1.1570 -0.6733
19810TIP3   OH280920   1.001   3.629  14.304  0.3561  0.3614  0.1549
19810TIP3    H180921   0.937   3.632  14.375  0.3086  0.3503  0.1130
19810TIP3    H280922   1.016   3.536  14.289  0.4252  0.3650  0.2029
19811TIP3   OH280923   4.575   1.460  12.323 -0.4257  0.2507  0.6689
19811TIP3    H180924   4.493   1.506  12.308 -1.6461 -2.2154 -0.9277
19811TIP3    H280925   4.640   1.511  12.274 -1.4193  1.0827  0.1752
19812TIP3   OH280926   3.876   6.007   2.264  0.2773 -0.5292  0.0797
19812TIP3    H180927   3.800   6.038   2.214  0.1586 -1.6944 -0.5147
19812TIP3    H280928   3.916   6.086   2.299 -1.2759  0.1005  0.5112
19813TIP3   OH280929   1.747   5.901  13.721  0.4655 -0.2771  0.0272
19813TIP3    H180930   1.837   5.870  13.713  0.7067  0.5334 -0.5604
19813TIP3    H280931   1.710   5.850  13.793  1.1073 -1.2667 -0.3355
19814TIP3   OH280932   0.868   4.515  13.059  0.3931  0.2660  0.1160
19814TIP3    H180933   0.903   4.535  13.146 -0.6475  0.5074  0.4937
19814TIP3    H280934   0.921   4.567  12.999  1.1287  0.0922  0.6024
19815TIP3   OH280935   6.321   1.275   2.383 -0.4116  0.5998  0.7215
19815TIP3    H180936   6.233   1.310   2.366 -1.5995 -2.3058  0.2040
19815TIP3    H280937   6.310   1.219   2.461  1.1662  0.7723  1.0978
19816TIP3   OH280938   0.345   4.325   0.770  0.2800 -0.3113 -0.0934
19816TIP3    H180939   0.367   4.345   0.861 -2.8412  0.7566  0.5371
19816TIP3    H280940   0.338   4.230   0.767  0.2719 -0.3459  0.8215
19817TIP3   OH280941   0.864   4.256   1.581  0.2406 -0.0218 -0.4665
19817TIP3    H180942   0.774   4.225   1.571  0.6584 -0.8628 -1.9532
19817TIP3    H280943   0.906   4.189   1.636  0.1043  0.0791 -0.2378
19818TIP3   OH280944   4.761   1.671   1.732  0.1846  0.5111  0.2213
19818TIP3    H180945   4.673   1.636   1.716 -0.1435  1.2242  0.4107
19818TIP3    H280946   4.805   1.604   1.785  0.0320 -0.2077 -0.5379
19819TIP3   OH280947   1.244   6.760   1.201  0.0973 -0.0677  0.1538
19819TIP3    H180948   1.177   6.722   1.145  0.3577 -2.2231  1.1979
19819TIP3    H280949   1.197   6.821   1.257 -0.9355 -1.1214  0.4829
19820TIP3   OH280950   2.748   6.364   3.525 -0.5978 -0.4897  0.8263
19820TIP3    H180951   2.705   6.390   3.606  0.2207 -0.3366  1.2141
19820TIP3    H280952   2.840   6.357   3.547 -0.2566  0.2637 -0.2589
19821TIP3   OH280953   4.751   0.006   3.708  0.1776 -0.2073 -0.0659
19821TIP3    H180954   4.777   0.047   3.790 -0.6751 -2.1420  1.2291
19821TIP3    H280955   4.681   0.062   3.674  1.3233  1.2621 -0.1466
19822TIP3   OH280956   2.793   3.657   0.862  0.2397 -0.6002  0.2835
19822TIP3    H180957   2.713   3.651   0.915 -0.6918 -2.1607 -1.2048
19822TIP3    H280958   2.859   3.610   0.912 -0.1916 -0.6637  0.8023
19823TIP3   OH280959   4.208   5.040   1.242 -0.3763  0.5632  0.5215
19823TIP3    H180960   4.172   4.974   1.301  0.7601 -0.4428  0.1154
19823TIP3    H280961   4.257   4.990   1.176 -0.8715  1.7061 -0.7772
19824TIP3   OH280962   6.115   0.455   4.655 -0.2899 -0.6444 -0.2914
19824TIP3    H180963   6.154   0.396   4.590  0.7088 -1.8028  1.2891
19824TIP3    H280964   6.064   0.398   4.712  0.4204  0.0236  1.0744
19825TIP3   OH280965   2.235   3.555   1.007  0.5304 -0.0193 -0.1568
19825TIP3    H180966   2.258   3.631   0.953  0.3874 -0.9038 -1.5182
19825TIP3    H280967   2.242   3.481   0.947 -1.1627 -0.8716  0.6468
19826TIP3   OH280968   2.803   5.720  17.057  0.1305 -0.2589 -0.0179
19826TIP3    H180969   2.870   5.766  17.007  1.3216 -0.0015  1.7101
19826TIP3    H280970   2.837   5.719  17.147 -2.1116 -0.2825  0.8863
19827TIP3   OH280971   3.809   2.460  14.815 -0.0700 -0.5773  0.7087
19827TIP3    H180972   3.756   2.522  14.865 -0.8232 -0.8241  0.2337
19827TIP3    H280973   3.788   2.374  14.853 -2.2114 -1.0239 -1.2931
19828TIP3   OH280974   4.846   0.164   0.627 -0.3509  0.0781 -0.2600
19828TIP3    H180975   4.850   0.258   0.611 -1.1923 -0.0477 -1.2889
19828TIP3    H280976   4.766   0.135   0.583  0.5686 -1.3313 -1.0842
19829TIP3   OH280977   2.513   2.931  16.889 -0.6933  0.2061  0.2075
19829TIP3    H180978   2.504   2.927  16.984 -1.0323 -1.2657  0.1403
19829TIP3    H280979   2.538   2.842  16.864 -0.5778  0.5823 -1.0794
19830TIP3   OH280980   4.812   4.020  16.613 -0.4152 -0.1967 -0.3484
19830TIP3    H180981   4.813   4.020  16.517  0.0027  1.1673 -0.3562
19830TIP3    H280982   4.899   4.052  16.639  0.8045 -3.7128  0.5715
19831TIP3   OH280983   3.085   3.924  11.542 -0.0977  0.0715  0.2318
19831TIP3    H180984   2.998   3.915  11.579 -0.1199 -0.3080  0.0949
19831TIP3    H280985   3.114   3.833  11.527  0.6840  0.1551  1.1342
19832TIP3   OH280986   5.142   0.373  11.686 -0.1351 -0.2758 -0.1400
19832TIP3    H180987   5.215   0.315  11.709  1.7641  1.4220 -1.4927
19832TIP3    H280988   5.162   0.402  11.598 -1.7679  1.3309 -0.0363
19833TIP3   OH280989   5.350   4.868   1.481  0.0590 -0.5622 -0.4033
19833TIP3    H180990   5.358   4.964   1.481 -1.6575 -0.3190  2.1673
19833TIP3    H280991   5.281   4.850   1.417 -1.4837  0.2213  0.9729
19834TIP3   OH280992   2.862   5.296  15.475  0.8381 -0.2759  0.5322
19834TIP3    H180993   2.836   5.325  15.388  1.2343  1.7340  1.0474
19834TIP3    H280994   2.957   5.285  15.469  0.6992 -1.5629  0.3467
19835TIP3   OH280995   2.720   5.490  14.289  0.4821  0.0081 -0.1455
19835TIP3    H180996   2.815   5.497  14.289  0.6521 -1.6534  1.0329
19835TIP3    H280997   2.703   5.399  14.264 -0.8478  0.5156 -1.2015
19836TIP3   OH280998   0.558   6.026  11.367  0.3417  0.4133 -0.2680
19836TIP3    H180999   0.544   6.052  11.276 -1.6219 -0.9791 -0.4267
19836TIP3    H281000   0.587   5.935  11.362 -0.7172  0.0109  0.5046
19837TIP3   OH281001   2.198   0.424   3.086 -0.6593 -0.2413 -0.6183
19837TIP3    H181002   2.268   0.360   3.068 -0.7834 -0.2803 -0.9688
19837TIP3    H281003   2.213   0.450   3.177  1.3278  1.6214 -1.3920
19838TIP3   OH281004   2.468   0.029  13.421 -0.1209  0.3834  0.1248
19838TIP3    H181005   2.560   0.056  13.425 -0.1033  0.2082  1.0395
19838TIP3    H281006   2.459  -0.038  13.488 -0.3481 -1.4071 -1.6215
19839TIP3   OH281007   2.118   5.241   2.902  0.2192 -0.5313 -0.6127
19839TIP3    H181008   2.039   5.286   2.874  0.1711  0.7467  1.3691
19839TIP3    H281009   2.103   5.149   2.880 -1.6998 -0.2686 -0.5186
19840TIP3   OH281010   0.264   6.086  13.904 -0.7491 -0.2101 -0.4735
19840TIP3    H181011   0.314   6.074  13.823 -0.5712 -1.1897 -0.2272
19840TIP3    H281012   0.324   6.132  13.962  0.4775 -2.6914  0.3473
19841TIP3   OH281013   3.413   2.319  15.118 -0.3335  0.1889 -0.0813
19841TIP3    H181014   3.455   2.280  15.042  1.4412 -0.5783  1.2084
19841TIP3    H281015   3.386   2.406  15.090  0.7052  0.0951 -1.4326
19842TIP3   OH281016   4.782   1.381  14.781  0.4310  0.0737 -0.5403
19842TIP3    H181017   4.708   1.348  14.831  1.2974 -0.4333  0.4302
19842TIP3    H281018   4.763   1.474  14.768 -0.4165 -0.0741 -0.3933
19843TIP3   OH281019   2.342   1.106  12.996  0.4510 -0.3714  0.3650
19843TIP3    H181020   2.390   1.150  13.066 -1.9853  0.3479  1.6950
19843TIP3    H281021   2.251   1.107  13.025 -0.7114  0.0387 -2.8651
19844TIP3   OH281022   0.881   4.524   6.508 -0.2900  0.5276  0.5223
19844TIP3    H181023   0.822   4.451   6.524 -1.4866  1.7743  2.2343
19844TIP3    H281024   0.966   4.484   6.491 -0.7322 -1.2646  2.1792
19845TIP3   OH281025   4.621   5.557  16.026  0.4988 -0.5283 -0.6097
19845TIP3    H181026   4.606   5.635  16.081  0.5893 -1.3134  0.5647
19845TIP3    H281027   4.578   5.578  15.943 -1.2348 -0.0126  0.3702
19846TIP3   OH281028   2.095   5.176  11.706  0.3889  0.2792  0.6912
19846TIP3    H181029   2.104   5.091  11.749  1.7308  0.1074  0.1344
19846TIP3    H281030   2.133   5.238  11.768  0.4837  0.3100  0.6017
19847TIP3   OH281031   1.766   4.107   3.308 -0.4359 -0.0365  0.6347
19847TIP3    H181032   1.746   4.024   3.352 -0.3956 -0.7763 -0.6657
19847TIP3    H281033   1.853   4.093   3.270 -0.5587  0.4805  0.1435
19848TIP3   OH281034   6.324   5.997   0.758 -0.3980  0.1202  0.0900
19848TIP3    H181035   6.273   5.923   0.789  0.0114  0.3034  1.2586
19848TIP3    H281036   6.401   5.958   0.716 -1.0115 -0.1316 -0.8311
19849TIP3   OH281037   3.223   5.883   4.895 -0.1621 -0.0500  0.0024
19849TIP3    H181038   3.233   5.938   4.817  0.5816 -0.7555 -0.4029
19849TIP3    H281039   3.224   5.946   4.968  0.2980  0.5162 -0.4792
19850TIP3   OH281040   3.325   6.500  14.842 -0.4241  0.2970 -0.1531
19850TIP3    H181041   3.407   6.539  14.812 -0.4670  1.5001  1.1571
19850TIP3    H281042   3.263   6.516  14.770  0.3737 -0.2492 -0.9749
19851TIP3   OH281043   5.823   2.355  14.804  0.0338 -0.0220  0.2447
19851TIP3    H181044   5.743   2.333  14.757 -0.0121  2.2440 -0.8668
19851TIP3    H281045   5.835   2.449  14.789  2.3939 -0.0987  1.1602
19852TIP3   OH281046   0.802   1.536  12.088 -0.8404 -0.2057  0.2578
19852TIP3    H181047   0.736   1.554  12.154 -0.0454  0.3928  0.9208
19852TIP3    H281048   0.880   1.510  12.138 -0.0693  0.7538 -0.3985
19853TIP3   OH281049   1.066   2.763  14.325  0.5110  0.1973 -0.3788
19853TIP3    H181050   1.023   2.737  14.406 -0.3643  0.7312 -0.6625
19853TIP3    H281051   1.059   2.687  14.268  0.9771 -0.1188 -0.0245
19854TIP3   OH281052   0.439   2.145   1.766 -0.6418 -0.0802 -0.4190
19854TIP3    H181053   0.519   2.094   1.774 -0.7470 -0.0856  1.0283
19854TIP3    H281054   0.390   2.103   1.696  0.4296 -0.3272 -1.0388
19855TIP3   OH281055   1.523   5.241  11.441 -0.0631 -0.0870  0.3864
19855TIP3    H181056   1.517   5.152  11.475 -0.6970  0.1881  1.0079
19855TIP3    H281057   1.437   5.258  11.404  0.5247 -0.2778 -1.1335
19856TIP3   OH281058   2.338   2.409  15.254 -0.5417  0.1675 -0.3696
19856TIP3    H181059   2.367   2.420  15.163 -0.3200  1.8311 -0.1207
19856TIP3    H281060   2.301   2.494  15.278 -1.8796 -0.6691  0.6683
19857TIP3   OH281061   3.195   2.113  14.330  0.1788 -0.1714 -0.9949
19857TIP3    H181062   3.123   2.095  14.270 -0.5192  1.2686 -0.6320
19857TIP3    H281063   3.188   2.206  14.350  1.0662 -0.3710  0.4518
19858TIP3   OH281064   1.118   1.515   5.413  0.1258  0.3351 -0.6762
19858TIP3    H181065   1.168   1.489   5.490 -0.3118 -1.5930 -0.9866
19858TIP3    H281066   1.098   1.432   5.368 -1.0895  1.2599 -1.9426
19859TIP3   OH281067   4.857   2.113  13.504 -0.0396  0.2582  0.3377
19859TIP3    H181068   4.891   2.024  13.510  1.8024  0.8291 -0.9129
19859TIP3    H281069   4.925   2.163  13.459 -1.7918  1.8889 -0.7156
19860TIP3   OH281070   5.784   6.319   4.594  0.1429  0.0073 -0.1910
19860TIP3    H181071   5.753   6.340   4.682 -1.0974  0.0353 -0.6154
19860TIP3    H281072   5.880   6.325   4.600  0.0593  0.3742  1.0522
19861TIP3   OH281073   5.953   3.359  15.025 -0.1425  0.2756  0.0324
19861TIP3    H181074   5.956   3.288  14.962 -2.5430  0.8996 -0.9265
19861TIP3    H281075   6.028   3.344  15.083  0.0952 -2.3373 -0.8225
19862TIP3   OH281076   4.971   1.707   5.421  0.0164 -0.3448 -0.3824
19862TIP3    H181077   5.056   1.681   5.385  0.3884  1.3258 -0.7984
19862TIP3    H281078   4.907   1.663   5.366  0.6177 -0.2121 -1.2072
19863TIP3   OH281079   6.770   2.554  13.726  0.5116  0.3600  0.1644
19863TIP3    H181080   6.835   2.554  13.655  0.3337  0.3729 -0.0001
19863TIP3    H281081   6.818   2.522  13.802  0.0945 -2.1668 -0.5356
19864TIP3   OH281082   3.925   5.406  14.394 -0.1402  0.4028 -0.3798
19864TIP3    H181083   3.899   5.323  14.435 -2.4601  1.2339  0.0067
19864TIP3    H281084   3.984   5.381  14.323  0.2906 -1.4504  0.5775
19865TIP3   OH281085   2.823   1.264   2.527 -0.0129 -0.0835 -0.2374
19865TIP3    H181086   2.866   1.181   2.549  0.7144  0.8362  2.1555
19865TIP3    H281087   2.892   1.318   2.489  1.1387  1.2975  3.3599
19866TIP3   OH281088   5.917   4.010   2.846 -0.0495 -0.0612 -0.0619
19866TIP3    H181089   5.949   4.062   2.773 -0.0930  0.6624  0.4137
19866TIP3    H281090   5.828   3.984   2.821  0.0357 -0.0437 -0.3755
19867TIP3   OH281091   3.138   5.542  13.441  0.2290  0.3725  0.4612
19867TIP3    H181092   3.113   5.484  13.512  1.2503 -1.0584 -0.2974
19867TIP3    H281093   3.234   5.546  13.445  0.2419  1.1731 -0.1507
19868TIP3   OH281094   1.464   0.896  11.018 -0.3736 -0.3299 -0.0033
19868TIP3    H181095   1.428   0.920  10.933  2.0410  0.5058 -0.8735
19868TIP3    H281096   1.503   0.810  11.004  2.1524  0.8064 -0.5212
19869TIP3   OH281097   1.712   2.168  10.918 -0.0924  0.3156  0.3563
19869TIP3    H181098   1.667   2.095  10.962 -1.3351  2.2603  2.5264
19869TIP3    H281099   1.794   2.177  10.966  0.3161  0.0181 -0.2753
19870TIP3   OH281100   4.683   2.753   1.218  0.1163 -0.0251  0.0530
19870TIP3    H181101   4.637   2.731   1.299  0.2473  1.8231  0.6840
19870TIP3    H281102   4.707   2.845   1.228  1.0199 -0.0187 -1.6801
19871TIP3   OH281103   5.699   4.287   1.682  0.1910  0.0578 -0.1531
19871TIP3    H181104   5.674   4.215   1.624 -1.6939  1.1313 -0.7697
19871TIP3    H281105   5.784   4.261   1.717  1.2921 -0.8342 -3.1329
19872TIP3   OH281106   5.873   6.495   0.107 -0.6315  0.4325 -0.2026
19872TIP3    H181107   5.931   6.563   0.141 -1.3200  0.6330  0.6059
19872TIP3    H281108   5.793   6.542   0.081 -1.1996 -0.0809  0.5721
19873TIP3   OH281109   5.662   3.590  11.969 -0.6742 -0.2229  0.6239
19873TIP3    H181110   5.733   3.556  12.023 -0.9212 -0.2421  0.9373
19873TIP3    H281111   5.687   3.681  11.950 -1.0328  0.0720  1.5374
19874TIP3   OH281112   1.774   2.929  17.155 -0.3834  0.2988  0.2350
19874TIP3    H181113   1.853   2.951  17.204  0.4837  0.8775 -1.3630
19874TIP3    H281114   1.766   2.834  17.164 -0.0627  0.3420  1.1688
19875TIP3   OH281115   2.532   6.763  16.524 -0.3612 -0.6300  0.2569
19875TIP3    H181116   2.514   6.672  16.505 -2.0832 -0.2508 -0.0499
19875TIP3    H281117   2.542   6.767  16.619 -1.6120 -0.9417  0.4145
19876TIP3   OH281118   5.731   6.800  16.063 -0.5192  0.1683  0.1083
19876TIP3    H181119   5.673   6.737  16.105  0.6925 -1.0575  0.0196
19876TIP3    H281120   5.792   6.747  16.013  0.1586  1.4539 -0.4742
19877TIP3   OH281121   6.232   3.548  11.769 -0.6699  0.6648 -0.2110
19877TIP3    H181122   6.316   3.583  11.739 -0.5750  0.7517  0.1490
19877TIP3    H281123   6.199   3.498  11.695 -0.1822  0.4252 -0.2699
19878TIP3   OH281124   0.505   4.971   4.463 -0.5078 -0.2768  0.1485
19878TIP3    H181125   0.451   4.893   4.448  0.5408 -0.7482 -1.4230
19878TIP3    H281126   0.497   5.021   4.382  0.3096  0.3275  0.4338
19879TIP3   OH281127   1.474   2.732   6.618 -0.1660  0.5127 -0.4696
19879TIP3    H181128   1.554   2.715   6.667 -0.6063 -0.3924 -0.0389
19879TIP3    H281129   1.440   2.814   6.653 -0.3640 -0.0163  0.6213
19880TIP3   OH281130   1.540   3.106   1.258 -0.0294 -0.0122  0.2558
19880TIP3    H181131   1.627   3.072   1.280  0.8706 -0.1190 -2.9787
19880TIP3    H281132   1.496   3.032   1.216  0.1855  1.3255 -2.5242
19881TIP3   OH281133   6.075   2.932  16.131 -0.4122 -0.4094  0.1906
19881TIP3    H181134   6.013   2.990  16.088 -0.8738 -1.5407 -0.7133
19881TIP3    H281135   6.025   2.888  16.198 -0.0661  0.1869  0.8610
19882TIP3   OH281136   2.573   3.824  11.313 -0.1001 -0.1292 -0.0394
19882TIP3    H181137   2.651   3.771  11.331  0.3542  0.7200  0.5214
19882TIP3    H281138   2.589   3.862  11.227  0.7240  1.1161  0.6463
19883TIP3   OH281139   3.299   2.868   6.710  0.2127  0.1842  0.3942
19883TIP3    H181140   3.385   2.858   6.751  0.4580 -0.3004 -0.2177
19883TIP3    H281141   3.311   2.837   6.621 -0.4165  0.8400  0.0733
19884TIP3   OH281142   1.214   6.323   6.243  0.1604  0.3832 -0.3365
19884TIP3    H181143   1.128   6.297   6.277  1.3388 -0.9476  1.8717
19884TIP3    H281144   1.226   6.412   6.275  0.2855 -0.0491  0.9101
19885TIP3   OH281145   6.534   1.799  13.794  0.3661 -0.6487  0.0730
19885TIP3    H181146   6.490   1.722  13.829  1.2477 -1.4321 -0.4822
19885TIP3    H281147   6.613   1.808  13.847 -0.1963  0.4651  0.7581
19886TIP3   OH281148   4.157   0.361  17.139  0.0144  0.0301 -0.1356
19886TIP3    H181149   4.115   0.299  17.199 -0.1655  1.5731  1.3801
19886TIP3    H281150   4.207   0.305  17.080 -1.5746 -1.6711  0.0184
19887TIP3   OH281151   2.904   0.025   2.426 -0.0991  0.1573  0.5539
19887TIP3    H181152   2.898  -0.009   2.336  1.1651  2.5350 -0.5189
19887TIP3    H281153   2.821  -0.001   2.467 -0.7301 -0.9473 -1.2971
19888TIP3   OH281154   1.245   2.793  14.845 -0.0210  0.3814  0.8054
19888TIP3    H181155   1.239   2.753  14.932 -0.0972 -1.1895  0.1063
19888TIP3    H281156   1.333   2.831  14.843 -0.7922  2.4490  2.3523
19889TIP3   OH281157   3.674   0.251   5.997  0.0008  0.0689  0.5604
19889TIP3    H181158   3.694   0.344   6.008  1.1682  0.1439 -1.5895
19889TIP3    H281159   3.632   0.226   6.078 -0.5816  2.5343  1.1038
19890TIP3   OH281160   6.643   2.793  12.001 -0.1734 -0.3061 -0.2977
19890TIP3    H181161   6.690   2.794  11.917 -0.7730 -1.1521 -0.6547
19890TIP3    H281162   6.712   2.805  12.067  0.1011  2.5405 -0.9586
19891TIP3   OH281163   4.198   0.397  15.998  0.6524  0.4259 -0.1299
19891TIP3    H181164   4.152   0.418  16.079 -2.1281  1.2264 -1.8010
19891TIP3    H281165   4.291   0.408  16.020  0.3124 -2.2536  3.7139
19892TIP3   OH281166   5.189   2.656  14.511  0.6643  0.3012  0.5677
19892TIP3    H181167   5.277   2.631  14.539  0.6324 -1.1971 -0.5227
19892TIP3    H281168   5.131   2.595  14.557  0.4448 -0.5973 -0.8327
19893TIP3   OH281169   0.364   1.593   5.237 -0.5840 -0.2380  0.0369
19893TIP3    H181170   0.310   1.664   5.270 -2.0582 -1.5841  0.6438
19893TIP3    H281171   0.453   1.615   5.266 -0.7747  1.9076 -0.8123
19894TIP3   OH281172   3.860   0.182   1.858  0.3161  0.0747  0.1946
19894TIP3    H181173   3.776   0.140   1.838 -0.7395  2.4333 -0.7658
19894TIP3    H281174   3.850   0.211   1.949  0.7382 -0.9940  0.5971
19895TIP3   OH281175   5.473   4.296   3.009 -0.8252  0.0564 -0.1025
19895TIP3    H181176   5.413   4.333   3.073 -0.5507  1.5060 -0.6470
19895TIP3    H281177   5.426   4.221   2.972 -2.6559  1.5827 -1.0650
19896TIP3   OH281178   5.397   5.407  14.975  0.6397  0.0861 -0.0969
19896TIP3    H181179   5.455   5.483  14.962 -0.9491  1.2503 -0.6575
19896TIP3    H281180   5.378   5.408  15.069 -1.1636  1.7907 -0.4322
19897TIP3   OH281181   6.026   0.512  11.655 -0.5075  0.9260 -0.5839
19897TIP3    H181182   6.094   0.447  11.636 -0.3126  0.8942  0.1631
19897TIP3    H281183   6.009   0.555  11.572 -0.7442 -0.1882 -1.1311
19898TIP3   OH281184   6.247   2.117  13.408  0.3158  0.2568  0.4623
19898TIP3    H181185   6.181   2.135  13.342 -0.1820  1.0357  1.1601
19898TIP3    H281186   6.198   2.107  13.490  0.9756 -0.0924  0.8321
19899TIP3   OH281187   1.535   3.402  14.731 -0.7206 -0.0941  0.0544
19899TIP3    H181188   1.560   3.372  14.644  0.1424  0.9696 -0.0834
19899TIP3    H281189   1.498   3.490  14.717 -1.6028 -0.3560  0.6356
19900TIP3   OH281190   1.048   4.186   3.240  0.2640 -0.1097  0.2761
19900TIP3    H181191   0.959   4.194   3.206  0.0522  0.7349  0.9993
19900TIP3    H281192   1.095   4.260   3.201  0.3529  0.1014  0.7705
19901TIP3   OH281193   3.587   6.640   1.417 -0.3262  0.4577 -0.4419
19901TIP3    H181194   3.553   6.718   1.372 -0.7107  0.1849 -0.6332
19901TIP3    H281195   3.572   6.569   1.355  1.7457  0.5131 -1.0587
19902TIP3   OH281196   4.926   0.793   1.511 -0.0543 -0.2901  0.5288
19902TIP3    H181197   4.951   0.781   1.419  0.1374 -0.7417  0.6357
19902TIP3    H281198   4.960   0.715   1.555  0.5219  0.2755  1.1156
19903TIP3   OH281199   2.281   2.167  13.069 -0.1177  0.6555  0.1986
19903TIP3    H181200   2.256   2.144  12.980  3.4419 -1.7724 -0.3742
19903TIP3    H281201   2.330   2.249  13.060  1.1495 -0.1317 -0.3009
19904TIP3   OH281202   0.536   2.229   5.867  0.2119 -0.1055 -0.1561
19904TIP3    H181203   0.585   2.236   5.949 -0.1289 -0.9104  0.1333
19904TIP3    H281204   0.446   2.247   5.891  0.1798  0.1194 -0.4435
19905TIP3   OH281205   1.891   3.039   0.125 -0.7952 -0.6227 -0.2139
19905TIP3    H181206   1.936   2.975   0.070  0.0810 -0.7037  0.5694
19905TIP3    H281207   1.947   3.117   0.121 -0.1761 -0.9419  1.3077
19906TIP3   OH281208   5.918   1.063  12.063 -0.1835 -0.3807  0.2248
19906TIP3    H181209   5.912   1.128  11.992  3.0041 -0.5512 -0.3269
19906TIP3    H281210   5.974   0.994  12.028  0.4626 -1.0794  2.4802
19907TIP3   OH281211   0.088   4.921  16.794  0.4266  0.2518  0.0169
19907TIP3    H181212   0.122   4.970  16.869 -2.8838  2.3154  0.3687
19907TIP3    H281213   0.008   4.880  16.827  1.3468 -2.7987 -1.2132
19908TIP3   OH281214   4.051   3.151  11.532  0.1918  0.4427 -0.2804
19908TIP3    H181215   4.023   3.241  11.551 -1.9994  0.1949 -1.9502
19908TIP3    H281216   4.050   3.146  11.436 -1.8918 -1.9502 -0.2216
19909TIP3   OH281217   4.036   6.780   4.352  0.0344 -0.0996 -0.2891
19909TIP3    H181218   4.072   6.696   4.379  1.3212  0.8672  1.0831
19909TIP3    H281219   3.946   6.759   4.325  0.3079 -1.8938  0.0632
19910TIP3   OH281220   0.549   1.433  15.937 -0.5876 -0.2040 -0.4078
19910TIP3    H181221   0.524   1.491  15.865 -0.9374 -1.5352 -1.4137
19910TIP3    H281222   0.540   1.345  15.900  1.4013 -0.8733  0.5798
19911TIP3   OH281223   3.584   6.404   2.900 -0.3371 -0.6816  0.2010
19911TIP3    H181224   3.630   6.467   2.845 -1.5825  0.4890  0.4674
19911TIP3    H281225   3.550   6.339   2.838 -2.0838  0.8481 -0.5245
19912TIP3   OH281226   1.258   2.504  11.958 -0.1602 -0.1912 -0.4374
19912TIP3    H181227   1.193   2.448  11.916  0.3670 -1.6457  0.5924
19912TIP3    H281228   1.292   2.451  12.030  1.9683  0.6409 -0.7615
19913TIP3   OH281229   1.698   0.188  11.128 -0.2324 -0.3059  0.5960
19913TIP3    H181230   1.632   0.247  11.093  0.0046 -0.5762 -0.3313
19913TIP3    H281231   1.763   0.246  11.169 -0.5929  0.0075  0.7259
19914TIP3   OH281232   0.090   6.552   4.652  0.0918  0.1984 -0.0024
19914TIP3    H181233   0.141   6.476   4.622  0.8088  0.8847 -0.5757
19914TIP3    H281234   0.155   6.609   4.694  0.0343  1.5716 -1.6577
19915TIP3   OH281235   0.295   1.743  14.960 -0.4274  0.0955  0.6324
19915TIP3    H181236   0.297   1.686  15.037  0.0920 -0.9474 -0.1395
19915TIP3    H281237   0.383   1.737  14.924 -0.6976  0.5049 -0.1033
19916TIP3   OH281238   4.308   6.754   3.411  0.1341 -0.8452  0.2097
19916TIP3    H181239   4.273   6.673   3.450 -0.7730 -1.4383 -1.6931
19916TIP3    H281240   4.296   6.820   3.478 -2.3524 -1.5943  0.6169
19917TIP3   OH281241   6.296   5.913   2.005  0.3293 -0.4322 -0.0756
19917TIP3    H181242   6.216   5.965   2.013  1.3177  1.3397 -1.0330
19917TIP3    H281243   6.278   5.850   1.935  0.0658  0.5812 -0.9420
19918TIP3   OH281244   0.191   0.420   1.717  0.9262 -0.1716  0.1773
19918TIP3    H181245   0.158   0.510   1.728  3.0839  0.5678  1.4171
19918TIP3    H281246   0.176   0.379   1.802  2.5809  0.0344  0.6159
19919TIP3   OH281247   3.072   3.442   3.161 -0.1939  0.1296  0.4023
19919TIP3    H181248   3.114   3.484   3.236  0.8231  1.7641 -1.0368
19919TIP3    H281249   3.131   3.370   3.138 -0.7956 -0.7460  1.4602
19920TIP3   OH281250   5.724   0.730  14.544 -0.7680 -0.0295 -0.2501
19920TIP3    H181251   5.803   0.730  14.490 -0.7077  0.4851 -0.1659
19920TIP3    H281252   5.686   0.816  14.531 -0.5729  0.2279  0.7858
19921TIP3   OH281253   0.889   3.264   5.211 -0.5010  0.5937 -0.6996
19921TIP3    H181254   0.874   3.311   5.129 -0.8389 -1.0151 -1.6154
19921TIP3    H281255   0.837   3.184   5.202  1.6315 -0.9642 -0.1334
19922TIP3   OH281256   1.789   5.456   5.782  0.2877  0.2813  0.3512
19922TIP3    H181257   1.726   5.386   5.801  0.4495  0.1094  0.2598
19922TIP3    H281258   1.736   5.535   5.775 -0.0351 -0.0113 -0.6358
19923TIP3   OH281259   0.121   3.043   5.223  0.2956  0.3301 -0.1086
19923TIP3    H181260   0.043   3.000   5.256 -0.5293  0.4838 -1.7647
19923TIP3    H281261   0.188   2.975   5.220 -0.6322 -0.5762 -1.4719
19924TIP3   OH281262   6.292   3.349   5.538  0.5025 -0.3153 -0.8543
19924TIP3    H181263   6.380   3.336   5.573 -0.5750 -1.2036  1.7186
19924TIP3    H281264   6.302   3.422   5.476  2.7813  0.5493  0.4082
19925TIP3   OH281265   0.327   0.307   0.784  0.1056 -0.1045  0.2598
19925TIP3    H181266   0.324   0.228   0.839 -1.0330 -0.5203 -0.3737
19925TIP3    H281267   0.350   0.377   0.845 -0.4648 -0.6629  1.1383
19926TIP3   OH281268   1.902   0.251  12.295 -0.8578 -0.6655  0.2812
19926TIP3    H181269   1.920   0.297  12.213  3.0385  0.1635  1.3779
19926TIP3    H281270   1.955   0.172  12.289  1.0860  0.3489  2.6478
19927TIP3   OH281271   3.108   0.553   2.720  0.0948 -0.0510 -0.5852
19927TIP3    H181272   3.184   0.521   2.672 -0.6453  1.2197 -2.7625
19927TIP3    H281273   3.080   0.478   2.773  1.6090 -1.1955 -1.3256
19928TIP3   OH281274   4.624   1.185  11.974 -0.3867  0.0216 -0.2958
19928TIP3    H181275   4.535   1.195  11.939 -0.7079  1.5346  0.8450
19928TIP3    H281276   4.612   1.135  12.055  0.0273 -1.1566 -0.9330
19929TIP3   OH281277   1.292   6.340  11.871  0.0467  0.3495 -0.0481
19929TIP3    H181278   1.311   6.432  11.887 -0.4164  0.1805  1.8047
19929TIP3    H281279   1.372   6.305  11.832  0.7654  1.2319  0.5868
19930TIP3   OH281280   4.035   3.260  13.536  0.2657 -0.2424 -0.5273
19930TIP3    H181281   3.970   3.265  13.466 -0.5664 -1.7082  0.0769
19930TIP3    H281282   3.983   3.261  13.617  0.6833 -3.6829 -0.0515
19931TIP3   OH281283   1.496   0.659  16.389  0.5155  0.1092 -0.0174
19931TIP3    H181284   1.454   0.573  16.388 -0.6144  0.6273 -1.6519
19931TIP3    H281285   1.578   0.647  16.342  0.5247 -0.1379  0.0608
19932TIP3   OH281286   6.479   0.916   4.228  0.3752  0.6997  0.5429
19932TIP3    H181287   6.470   0.824   4.202  0.1566  1.1733 -1.1672
19932TIP3    H281288   6.391   0.943   4.253  0.6437  0.1513  2.1590
19933TIP3   OH281289   5.341   0.119   3.941 -0.4591  0.4415  0.2172
19933TIP3    H181290   5.387   0.202   3.933 -0.4825  0.6499  1.9268
19933TIP3    H281291   5.328   0.090   3.850  2.1577  0.8411 -0.3652
19934TIP3   OH281292   4.009   1.495  15.773 -0.4968  0.2153  0.2619
19934TIP3    H181293   4.013   1.401  15.789  3.5738  0.4993  2.2243
19934TIP3    H281294   3.956   1.529  15.845  0.6081 -0.3418  1.3624
19935TIP3   OH281295   0.726   4.185  14.866 -0.5361 -0.3712 -0.0670
19935TIP3    H181296   0.787   4.116  14.841  0.6569 -0.2454  2.2338
19935TIP3    H281297   0.757   4.263  14.820  1.9043 -0.0125  1.9880
19936TIP3   OH281298   6.776   4.204   2.492  0.2987  0.0428  0.3895
19936TIP3    H181299   6.713   4.247   2.434  0.9244  2.2161  1.2139
19936TIP3    H281300   6.723   4.145   2.545 -0.7991  0.5653 -0.0943
19937TIP3   OH281301   0.878   1.664  14.551  0.1824  0.4076 -0.6520
19937TIP3    H181302   0.862   1.713  14.633  1.1070  1.0300 -0.8308
19937TIP3    H281303   0.804   1.688  14.495 -2.0199 -2.1658  0.8984
19938TIP3   OH281304   5.002   6.625  14.108  0.5458 -0.2850  0.0205
19938TIP3    H181305   4.976   6.649  14.197  1.1694 -0.3555  0.2273
19938TIP3    H281306   5.010   6.709  14.062  0.9987 -0.1979  0.2544
19939TIP3   OH281307   2.274   5.983   0.895 -0.0419  0.6753 -0.0225
19939TIP3    H181308   2.360   6.005   0.929 -0.0550 -0.6246  0.9743
19939TIP3    H281309   2.256   6.048   0.827  1.4862  1.2726  0.1216
19940TIP3   OH281310   2.211   1.602  11.604  0.2347 -0.1708 -0.5381
19940TIP3    H181311   2.223   1.669  11.537 -2.0741 -0.3708 -1.2519
19940TIP3    H281312   2.162   1.646  11.673  0.5940 -0.5673 -0.0229
19941TIP3   OH281313   5.232   1.163   1.638 -0.5905  0.7006 -0.3714
19941TIP3    H181314   5.228   1.068   1.635 -0.5833  0.7108 -1.0346
19941TIP3    H281315   5.142   1.192   1.623 -0.4666  0.7976 -0.9668
19942TIP3   OH281316   4.500   5.782  16.410 -0.1367  0.3975  0.3220
19942TIP3    H181317   4.417   5.751  16.373 -0.2878  1.0486  0.0844
19942TIP3    H281318   4.559   5.708  16.404 -0.3927  0.2490 -0.5126
19943TIP3   OH281319   3.587   6.762   5.926 -0.2885 -0.2085 -0.4335
19943TIP3    H181320   3.597   6.729   6.016  2.6029  0.7415 -0.3202
19943TIP3    H281321   3.545   6.847   5.937  2.2086  1.0004  0.3179
19944TIP3   OH281322   0.055   6.600  14.036  0.0451 -0.2141  0.3083
19944TIP3    H181323   0.060   6.696  14.033 -0.3287 -0.2054 -0.0348
19944TIP3    H281324   0.116   6.575  14.106  0.8002  0.2233 -0.1821
19945TIP3   OH281325   1.333   6.102   3.791  0.4016  0.7208  0.0818
19945TIP3    H181326   1.374   6.062   3.868  0.7079 -1.1692 -0.9878
19945TIP3    H281327   1.381   6.184   3.778  1.2809  0.3858  1.0818
19946TIP3   OH281328   4.690   5.354  11.034  0.0913  0.2289 -0.3826
19946TIP3    H181329   4.774   5.356  10.987 -0.6558 -1.9654 -1.9941
19946TIP3    H281330   4.626   5.383  10.969 -0.7038 -0.7180 -0.0405
19947TIP3   OH281331   1.535   1.460   0.002 -0.5332 -0.3496  0.0418
19947TIP3    H181332   1.606   1.396  -0.002  0.2074  0.3918  0.9736
19947TIP3    H281333   1.468   1.424  -0.056  0.4243 -1.2731 -0.5403
19948TIP3   OH281334   2.688   0.763   0.289 -0.4961 -0.0066  0.1260
19948TIP3    H181335   2.667   0.831   0.353 -0.2803  0.3548 -0.1835
19948TIP3    H281336   2.783   0.751   0.297 -0.5813 -0.5437  0.4406
19949TIP3   OH281337   1.005   2.316   2.485 -0.2219  0.3463 -0.1614
19949TIP3    H181338   1.073   2.377   2.515  0.3469 -0.6274  0.5923
19949TIP3    H281339   1.028   2.298   2.394  0.6898 -0.1641  0.1584
19950TIP3   OH281340   3.295   5.895   3.885  0.1961  0.4226 -0.3917
19950TIP3    H181341   3.205   5.864   3.891  0.6636 -0.8240  0.5054
19950TIP3    H281342   3.308   5.913   3.792 -1.0475  0.8874 -0.4940
19951TIP3   OH281343   1.520   3.444   2.946 -0.2142  0.2198 -0.0720
19951TIP3    H181344   1.570   3.366   2.924  0.4648  0.8214 -0.7298
19951TIP3    H281345   1.447   3.412   3.000 -0.6554 -1.0222 -1.3600
19952TIP3   OH281346   0.156   6.020   2.194  0.3179 -0.0668  0.0842
19952TIP3    H181347   0.082   5.965   2.170 -0.9142  1.8050 -0.5773
19952TIP3    H281348   0.148   6.029   2.289 -2.2163  2.5768 -0.2467
19953TIP3   OH281349   6.695   2.017   2.902  0.6926 -0.5206 -0.4678
19953TIP3    H181350   6.680   2.104   2.867 -0.7027 -1.1027 -1.3924
19953TIP3    H281351   6.689   2.027   2.997  1.3789  0.5086 -0.5198
19954TIP3   OH281352   0.239   3.916  13.615  0.3646  0.0439 -0.2845
19954TIP3    H181353   0.231   3.834  13.664  1.9604 -0.2762 -0.4900
19954TIP3    H281354   0.159   3.922  13.563  0.6563 -1.9056 -1.0150
19955TIP3   OH281355   4.272   2.536   1.630 -0.0886 -0.0585  0.0846
19955TIP3    H181356   4.315   2.473   1.573  0.5818  0.2801  0.2018
19955TIP3    H281357   4.220   2.483   1.689  1.8099 -0.6509  1.3289
19956TIP3   OH281358   0.790   1.422   5.947 -0.4396  0.2107  0.7660
19956TIP3    H181359   0.771   1.508   5.910 -0.7613 -0.0588  0.2867
19956TIP3    H281360   0.884   1.411   5.935 -0.4618  0.3322  0.4712
19957TIP3   OH281361   1.682   3.511   3.333  0.3109  0.1148 -0.0521
19957TIP3    H181362   1.682   3.564   3.413  1.9724 -0.5768  0.4419
19957TIP3    H281363   1.630   3.433   3.356 -0.6124  0.6640 -0.2082
19958TIP3   OH281364   0.185   3.099  12.753  0.6757 -0.0940 -0.1462
19958TIP3    H181365   0.094   3.128  12.740  0.4779 -0.8726 -0.5378
19958TIP3    H281366   0.232   3.134  12.677  0.9711  1.2982  0.6225
19959TIP3   OH281367   2.588   4.334  15.773  0.5842 -0.0028 -0.6663
19959TIP3    H181368   2.542   4.318  15.691 -0.0409 -2.1927  0.0557
19959TIP3    H281369   2.645   4.258  15.784 -0.1257 -0.2923  1.4358
19960TIP3   OH281370   4.280   0.087   5.244  0.3862  0.1497  0.6983
19960TIP3    H181371   4.188   0.106   5.261 -0.1744 -0.7039 -1.0745
19960TIP3    H281372   4.281   0.048   5.156  2.4569  0.2691  0.5991
19961TIP3   OH281373   2.418   4.747  14.917  0.4447  0.2247 -0.1005
19961TIP3    H181374   2.503   4.774  14.882 -0.3541  0.5373 -1.9306
19961TIP3    H281375   2.436   4.666  14.965  1.5821 -0.4327 -1.5568
19962TIP3   OH281376   6.560   3.332   5.619 -0.0006  0.5963 -0.8905
19962TIP3    H181377   6.594   3.421   5.627 -0.6532  0.7727 -0.0696
19962TIP3    H281378   6.635   3.282   5.585  1.1545  0.9586  0.9881
19963TIP3   OH281379   1.055   6.366   0.013 -1.2467  0.1026 -0.1467
19963TIP3    H181380   1.123   6.386   0.077 -2.6251  1.5601  0.9707
19963TIP3    H281381   0.994   6.440   0.020 -1.5886  0.2127 -3.0139
19964TIP3   OH281382   6.782   2.724   0.698  0.2805  0.3888 -0.5267
19964TIP3    H181383   6.769   2.762   0.784 -0.0179 -1.7933  0.4388
19964TIP3    H281384   6.847   2.781   0.657 -0.0454  1.8321  0.8699
19965TIP3   OH281385   2.644   3.520  15.960  0.0370 -0.5419  0.4594
19965TIP3    H181386   2.604   3.607  15.964 -0.8602 -0.8172 -1.5439
19965TIP3    H281387   2.736   3.535  15.980 -0.6227  0.3677  3.2931
19966TIP3   OH281388   1.463   5.900  13.620 -0.0980  0.6197  0.8459
19966TIP3    H181389   1.478   5.808  13.596 -1.0507  0.7011 -0.1225
19966TIP3    H281390   1.550   5.932  13.646  0.6004 -0.0608 -0.5343
19967TIP3   OH281391   3.284   3.087   4.898 -0.2615  0.2761 -0.3418
19967TIP3    H181392   3.237   3.011   4.931 -0.8537  0.7953  0.0274
19967TIP3    H281393   3.218   3.138   4.852 -0.2413  1.3756  0.8003
19968TIP3   OH281394   5.698   2.159   3.464  0.0661  0.1491  0.0079
19968TIP3    H181395   5.649   2.077   3.457  0.1464 -0.3987  3.7491
19968TIP3    H281396   5.633   2.223   3.495  0.7218  0.6122  0.4659
19969TIP3   OH281397   4.012   1.994  16.622  0.1510 -0.3738  0.7164
19969TIP3    H181398   4.066   1.921  16.593 -0.7043 -0.6590 -0.2279
19969TIP3    H281399   3.968   2.024  16.542 -0.6396  0.2176  1.3608
19970TIP3   OH281400   0.767   1.837   6.016 -0.2672 -0.1509 -0.2054
19970TIP3    H181401   0.848   1.884   6.000  0.3103 -1.1951 -0.4159
19970TIP3    H281402   0.717   1.848   5.935  0.0686 -0.3035 -0.4363
19971TIP3   OH281403   0.576   1.170   4.569  0.8019  0.3319 -0.3221
19971TIP3    H181404   0.551   1.096   4.514  0.2211  0.3835 -0.1437
19971TIP3    H281405   0.557   1.141   4.658 -0.9137  1.2197 -0.3459
19972TIP3   OH281406   4.764   1.162  15.784  0.0598  0.4503 -0.4594
19972TIP3    H181407   4.789   1.103  15.713  0.2732  0.2523 -0.2195
19972TIP3    H281408   4.846   1.204  15.810 -0.1652  1.2305 -0.9682
19973TIP3   OH281409   5.874   1.678   0.970 -0.3475  0.3822  0.1698
19973TIP3    H181410   5.810   1.747   0.954 -2.2287 -1.0229  1.2702
19973TIP3    H281411   5.825   1.596   0.961  0.9597 -0.7224  2.1913
19974TIP3   OH281412   5.710   6.678  10.185  0.0270 -0.2364  0.5292
19974TIP3    H181413   5.737   6.768  10.170  0.4407 -0.4084  0.2291
19974TIP3    H281414   5.765   6.626  10.126 -0.5319 -0.6395  0.3508
19975TIP3   OH281415   3.757   2.624  17.326  0.0480  0.0579 -0.1705
19975TIP3    H181416   3.718   2.545  17.364  1.1615 -0.1309  0.6335
19975TIP3    H281417   3.770   2.682  17.401 -0.2635  0.7986 -0.6825
19976TIP3   OH281418   3.921   6.244  12.473 -0.2115 -0.0614 -0.2178
19976TIP3    H181419   4.007   6.202  12.480  0.2610  0.9837  0.5700
19976TIP3    H281420   3.925   6.317  12.535 -2.1628 -0.8111  0.8805
19977TIP3   OH281421   0.077   5.991  15.478 -0.3238 -0.6847 -0.4674
19977TIP3    H181422   0.049   6.014  15.389 -1.1965  1.2676  0.2450
19977TIP3    H281423  -0.003   5.958  15.520 -1.2189  2.7486  0.8858
19978TIP3   OH281424   6.520   6.403  14.479 -0.2022 -0.3024 -0.7327
19978TIP3    H181425   6.568   6.386  14.398  0.3487 -1.0793 -0.2681
19978TIP3    H281426   6.461   6.475  14.458  0.7862  0.3084 -1.4820
19979TIP3   OH281427   1.382   4.850   0.005 -0.3550 -0.3578 -0.0965
19979TIP3    H181428   1.291   4.840  -0.024 -0.5921 -0.3553  0.6324
19979TIP3    H281429   1.421   4.909  -0.059 -0.4665 -1.4799 -1.2539
19980TIP3   OH281430   2.721   4.551   1.904 -0.3183 -0.1487  0.0859
19980TIP3    H181431   2.765   4.521   1.984  3.9706 -0.6996 -2.1726
19980TIP3    H281432   2.759   4.636   1.886 -3.6842  1.5478  0.1851
19981TIP3   OH281433   2.633   2.624  13.619 -0.1088  0.6933 -0.0558
19981TIP3    H181434   2.712   2.589  13.579  0.7122  1.2482  1.0489
19981TIP3    H281435   2.565   2.560  13.596  0.6426  0.2027 -0.9987
19982TIP3   OH281436   5.350   6.318   2.566  0.0903 -0.6638  0.4174
19982TIP3    H181437   5.276   6.311   2.506 -0.3359  2.1358  0.4855
19982TIP3    H281438   5.314   6.297   2.652 -0.5501  0.2068  0.3785
19983TIP3   OH281439   3.351   0.362   3.420 -0.0192  0.1887  0.6045
19983TIP3    H181440   3.371   0.268   3.413 -1.6580 -0.2844  1.7036
19983TIP3    H281441   3.354   0.394   3.330  1.8432 -0.6128  0.3241
19984TIP3   OH281442   0.241   6.513  14.986 -0.7325  0.3844  0.3114
19984TIP3    H181443   0.169   6.530  14.925 -0.3904  0.8685  0.0274
19984TIP3    H281444   0.301   6.587  14.972  0.1040 -0.3209  0.1114
19985TIP3   OH281445   2.610   5.404   5.144 -0.3500  0.1756 -0.2591
19985TIP3    H181446   2.541   5.448   5.194  0.5442 -0.1755  1.3501
19985TIP3    H281447   2.598   5.311   5.163  0.4180  0.0950 -0.1519
19986TIP3   OH281448   5.972   4.211   1.718 -0.3450 -0.4949  0.3127
19986TIP3    H181449   6.006   4.121   1.718 -0.2944 -0.4745  0.5688
19986TIP3    H281450   6.015   4.253   1.792 -1.9519 -0.8487  1.4971
19987TIP3   OH281451   5.602   2.384  15.962  0.1494 -0.2754 -0.0473
19987TIP3    H181452   5.608   2.335  16.044  2.6507  0.6038  0.3787
19987TIP3    H281453   5.638   2.324  15.896 -1.6454 -0.8940 -0.5286
19988TIP3   OH281454   6.012   6.275  11.832  0.0148  0.0241  0.8719
19988TIP3    H181455   6.013   6.346  11.768  1.0550  0.7648  1.6603
19988TIP3    H281456   6.063   6.205  11.792  0.5824  0.4483  0.8458
19989TIP3   OH281457   6.282   0.713   6.310 -0.3143  0.2068 -0.4214
19989TIP3    H181458   6.232   0.793   6.298  1.4026  1.2062 -1.2908
19989TIP3    H281459   6.372   0.737   6.287  0.3544 -1.8124 -0.1124
19990TIP3   OH281460   5.319   1.854  13.952  0.3039 -0.1716  0.3237
19990TIP3    H181461   5.405   1.886  13.976 -0.3960  2.1407 -0.0058
19990TIP3    H281462   5.264   1.872  14.029 -0.5412  1.4062 -0.5894
19991TIP3   OH281463   1.061   2.446  10.882 -0.0850  0.3083  0.2927
19991TIP3    H181464   1.037   2.536  10.860 -0.5555  0.5475  1.6347
19991TIP3    H281465   1.157   2.448  10.888 -0.0992  0.7496  0.4175
19992TIP3   OH281466   2.429   0.565   4.303  0.3834  0.2241 -0.3708
19992TIP3    H181467   2.374   0.632   4.344 -1.4457 -0.6729 -1.2328
19992TIP3    H281468   2.447   0.600   4.215 -1.1332 -0.6405 -1.0650
19993TIP3   OH281469   2.075   6.520   2.095  0.0617  0.4454  0.0096
19993TIP3    H181470   2.168   6.517   2.117  0.3002  0.6543 -0.9264
19993TIP3    H281471   2.070   6.580   2.020 -0.6458 -0.5782 -0.7955
19994TIP3   OH281472   0.401   0.462  13.759 -0.3226 -0.2493  0.1609
19994TIP3    H181473   0.416   0.396  13.691  1.5714  0.4993 -0.2258
19994TIP3    H281474   0.385   0.411  13.838  1.6022 -1.2410 -0.0114
19995TIP3   OH281475   3.325   5.923  13.540  0.0166 -0.6063 -0.0723
19995TIP3    H181476   3.336   6.003  13.487  1.7649 -1.6700 -1.3931
19995TIP3    H281477   3.332   5.954  13.630 -1.1359  0.9771 -0.4553
19996TIP3   OH281478   5.889   4.070  16.716 -0.0057  0.0692 -0.2741
19996TIP3    H181479   5.895   4.002  16.782 -3.2357 -0.0701 -0.0027
19996TIP3    H281480   5.910   4.151  16.763 -0.2006 -0.2692  0.4006
19997TIP3   OH281481   5.310   3.732   6.708 -0.6431  0.0667 -0.0677
19997TIP3    H181482   5.255   3.656   6.688  0.2791 -0.4480 -0.6823
19997TIP3    H281483   5.375   3.699   6.770  0.5635  0.0009 -1.3197
19998TIP3   OH281484   6.097   6.193   1.763 -0.8273 -0.4487 -0.6151
19998TIP3    H181485   6.078   6.183   1.856 -0.7571 -0.4225 -0.5981
19998TIP3    H281486   6.114   6.104   1.733  0.5293 -0.3194 -0.3064
19999TIP3   OH281487   3.368   0.999   5.009 -0.4174 -0.6037  0.7890
19999TIP3    H181488   3.361   1.082   5.056 -0.6570 -0.9436  1.3521
19999TIP3    H281489   3.284   0.956   5.021 -1.2635  0.1770 -1.6440
20000TIP3   OH281490   3.730   0.783   0.917  0.1318  0.5030 -0.1918
20000TIP3    H181491   3.782   0.703   0.908  0.6515  0.5394  1.8860
20000TIP3    H281492   3.784   0.840   0.972 -0.5550  2.0161 -1.0231
20001TIP3   OH281493   0.626   5.259  12.347 -0.1595 -0.0834 -0.0551
20001TIP3    H181494   0.678   5.323  12.299 -1.2669  1.0411  0.1887
20001TIP3    H281495   0.564   5.225  12.283  0.2244 -0.7184 -0.1061
20002TIP3   OH281496   0.926   6.629   5.425  0.0465 -0.6704 -0.6340
20002TIP3    H181497   0.910   6.539   5.451  0.4994 -0.1860  1.5172
20002TIP3    H281498   1.011   6.627   5.381  0.6003 -1.1408  0.4270
20003TIP3   OH281499   0.778   6.559   5.129  0.2345  0.2104  0.7267
20003TIP3    H181500   0.739   6.541   5.214 -1.8541  2.1732  0.2779
20003TIP3    H281501   0.735   6.498   5.069 -1.5741  1.7048  0.4078
20004TIP3   OH281502   2.945   1.006   4.281  0.5361 -0.2910  0.3742
20004TIP3    H181503   2.957   1.074   4.214 -2.3022  1.4803  1.4541
20004TIP3    H281504   2.973   1.047   4.363  1.0081 -1.2876  0.7261
20005TIP3   OH281505   5.901   4.614  11.672  0.1126 -0.1102 -0.2015
20005TIP3    H181506   5.848   4.535  11.686  1.7181 -1.0887  0.7024
20005TIP3    H281507   5.961   4.616  11.747  0.8896  1.3469 -0.8190
20006TIP3   OH281508   1.455   0.054  11.530  0.3276 -0.3646 -0.2417
20006TIP3    H181509   1.463   0.144  11.497 -0.4588 -0.6776 -1.3496
20006TIP3    H281510   1.521   0.005  11.480 -1.7498 -1.1006 -2.4285
20007TIP3   OH281511   4.419   4.552   1.065 -0.0239  0.5011 -0.2941
20007TIP3    H181512   4.344   4.598   1.103  0.1923  1.0522 -0.5379
20007TIP3    H281513   4.387   4.520   0.981  0.4566  2.0631 -1.1091
20008TIP3   OH281514   3.485   0.394   3.658  0.2680  0.7893 -0.4793
20008TIP3    H181515   3.553   0.330   3.678  0.3516  0.6283 -1.2707
20008TIP3    H281516   3.474   0.389   3.563 -1.3786  0.2687 -0.2908
20009TIP3   OH281517   4.456   2.065  15.249 -0.0916 -0.4726  0.3059
20009TIP3    H181518   4.366   2.032  15.244  0.2132 -1.2860  0.0795
20009TIP3    H281519   4.492   2.025  15.328  0.8703 -2.2473 -0.9602
20010TIP3   OH281520   0.357   1.250  14.629  0.5997 -0.2287  0.2942
20010TIP3    H181521   0.445   1.237  14.663  0.4920 -0.7766  0.3761
20010TIP3    H281522   0.322   1.323  14.679  1.0565  0.0802  0.1660
20011TIP3   OH281523   2.896   3.834   3.741 -0.2703  0.2230 -0.2522
20011TIP3    H181524   2.969   3.886   3.774 -0.4825  0.1125  0.4211
20011TIP3    H281525   2.830   3.840   3.810 -0.6831 -0.1238 -0.6114
20012TIP3   OH281526   2.657   1.935  12.145  0.3053  0.3665  0.5678
20012TIP3    H181527   2.637   1.873  12.075  0.7530 -0.4159  1.1129
20012TIP3    H281528   2.746   1.912  12.173  0.3712  1.0761  0.9686
20013TIP3   OH281529   3.983   0.119   3.370 -0.3377  0.1275  0.8495
20013TIP3    H181530   4.054   0.151   3.425 -0.0109  0.9123  0.0078
20013TIP3    H281531   4.019   0.123   3.281 -0.8089 -1.2148  0.5811
20014TIP3   OH281532   2.085   1.627  15.356 -0.6014 -0.0421  0.2736
20014TIP3    H181533   2.113   1.543  15.321 -0.6532  1.5292 -4.0810
20014TIP3    H281534   2.155   1.687  15.333 -1.6019  1.5458  1.2176
20015TIP3   OH281535   3.497   2.337  12.262 -0.1228 -0.2763  0.1807
20015TIP3    H181536   3.444   2.366  12.188 -0.6254 -2.2893 -0.3223
20015TIP3    H281537   3.458   2.253  12.288  2.5958 -1.7391 -0.0552
20016TIP3   OH281538   3.069   4.764   1.047  0.0420 -0.3605  0.6022
20016TIP3    H181539   3.132   4.788   0.980 -0.3516  0.4337  0.4955
20016TIP3    H281540   3.078   4.833   1.114 -1.6801  0.5984 -0.0794
20017TIP3   OH281541   2.955   3.724  13.502 -0.8243 -0.0131 -0.3921
20017TIP3    H181542   2.924   3.669  13.573  1.5672 -3.2413 -1.5831
20017TIP3    H281543   2.881   3.731  13.442 -1.8398 -0.1019  0.8240
20018TIP3   OH281544   3.038   5.695  15.627  0.0826 -0.2376  0.0651
20018TIP3    H181545   3.114   5.751  15.611 -0.7166  0.4252 -1.7146
20018TIP3    H281546   3.040   5.632  15.555 -1.5608  0.4128 -0.5983
20019TIP3   OH281547   3.636   6.329   0.813 -0.3958  0.3995 -0.3770
20019TIP3    H181548   3.586   6.350   0.734 -1.5972  0.4908  0.3748
20019TIP3    H281549   3.673   6.243   0.796 -1.2009  0.1210 -0.7925
20020TIP3   OH281550   1.843   6.583  16.733 -0.0304  0.4946 -0.2674
20020TIP3    H181551   1.924   6.631  16.716  0.8391 -0.3667  1.2270
20020TIP3    H281552   1.860   6.495  16.699 -0.4931  0.4168 -0.2980
20021TIP3   OH281553   3.286   6.531  16.788  0.1135 -0.3978  0.1070
20021TIP3    H181554   3.347   6.458  16.776 -0.2622 -0.5728 -0.7863
20021TIP3    H281555   3.247   6.515  16.874  2.2873  0.4508  1.3385
20022TIP3   OH281556   4.890   3.125   2.268 -0.1383  0.3942  0.0288
20022TIP3    H181557   4.939   3.097   2.191 -1.1156  0.4058 -0.6173
20022TIP3    H281558   4.883   3.220   2.259  0.0185  0.4333  0.3057
20023TIP3   OH281559   1.683   1.536  13.674 -0.1050 -0.2740 -0.5045
20023TIP3    H181560   1.609   1.506  13.726  1.2147 -0.2307  1.5087
20023TIP3    H281561   1.660   1.626  13.649 -0.7727 -0.3019 -0.0235
20024TIP3   OH281562   5.291   4.912  13.337 -0.4077 -0.3677 -0.2715
20024TIP3    H181563   5.374   4.864  13.331 -0.5634 -0.5855 -0.7282
20024TIP3    H281564   5.283   4.935  13.430 -0.3815 -1.3236 -0.0226
20025TIP3   OH281565   3.076   6.608  13.264 -0.2775  0.1629 -0.3312
20025TIP3    H181566   3.103   6.525  13.226  1.9306  1.0027 -0.7512
20025TIP3    H281567   3.110   6.606  13.354  0.6810  0.9726 -0.6536
20026TIP3   OH281568   1.301   6.193   4.744  0.1182  0.2521  0.0382
20026TIP3    H181569   1.218   6.175   4.786  1.0079 -0.2822  1.6585
20026TIP3    H281570   1.353   6.239   4.810  1.5216 -0.4768 -0.4993
20027TIP3   OH281571   3.806   4.114  13.966  0.3636  0.2902 -0.2900
20027TIP3    H181572   3.835   4.137  14.054  0.0763  0.6039 -0.2737
20027TIP3    H281573   3.845   4.180  13.909 -0.1249  0.5839 -0.2931
20028TIP3   OH281574   0.398   6.752  10.905  0.3662 -0.4235 -0.2250
20028TIP3    H181575   0.379   6.805  10.827 -1.4424 -1.3783 -0.4799
20028TIP3    H281576   0.355   6.668  10.888 -2.9879  0.3381  3.0847
20029TIP3   OH281577   2.034   2.756   6.173  0.1813 -0.2637  0.0567
20029TIP3    H181578   2.065   2.814   6.104 -1.0816  0.2726 -0.0869
20029TIP3    H281579   2.108   2.749   6.233  0.6015  0.9395 -0.2846
20030TIP3   OH281580   1.609   5.165  14.891 -0.4711  0.0688  0.0073
20030TIP3    H181581   1.689   5.187  14.938  0.8684  1.3740 -2.6262
20030TIP3    H281582   1.557   5.245  14.893 -0.2515  0.2515 -0.9167
20031TIP3   OH281583   5.132   6.690  11.518 -0.2862 -0.4461  0.5592
20031TIP3    H181584   5.038   6.705  11.506 -0.2423 -0.6827 -0.1823
20031TIP3    H281585   5.139   6.644  11.601 -0.5161  2.4792  2.3374
20032TIP3   OH281586   5.169   6.018   4.446  0.2419 -0.3763  0.1054
20032TIP3    H181587   5.258   6.050   4.458  0.3034 -0.4839 -0.0693
20032TIP3    H281588   5.123   6.090   4.403  0.7870 -1.0872 -1.7967
20033TIP3   OH281589   0.800   3.498  14.532 -0.1794  0.2406  0.2846
20033TIP3    H181590   0.863   3.538  14.592  1.3108  0.2519 -1.2185
20033TIP3    H281591   0.737   3.454  14.589  0.2106  1.6560  1.8802
20034TIP3   OH281592   4.108   4.520  13.638 -0.0438 -0.1945 -0.1323
20034TIP3    H181593   4.030   4.491  13.683  1.2480 -0.2977  2.1815
20034TIP3    H281594   4.181   4.492  13.694  1.6230  0.5899 -1.7755
20035TIP3   OH281595   0.548   3.200   3.464 -0.5461 -0.4083 -0.5834
20035TIP3    H181596   0.461   3.216   3.503  0.4877  2.6624  0.8462
20035TIP3    H281597   0.606   3.192   3.540  0.7680  0.3400 -1.4788
20036TIP3   OH281598   5.327   1.855  13.659  0.1822 -0.3457 -0.1397
20036TIP3    H181599   5.247   1.898  13.627  1.7229  3.3951  0.4764
20036TIP3    H281600   5.309   1.836  13.751 -0.0189  0.4766 -0.0021
20037TIP3   OH281601   1.156   6.213  16.733  0.8557 -0.0908 -0.4963
20037TIP3    H181602   1.160   6.221  16.828 -0.0493  1.0950 -0.5358
20037TIP3    H281603   1.076   6.259  16.708  1.6341  0.5561 -1.9381
20038TIP3   OH281604   6.700   6.414  16.951  0.4759  0.9145  0.0762
20038TIP3    H181605   6.610   6.444  16.954 -0.2038 -0.9573 -0.3895
20038TIP3    H281606   6.748   6.484  16.905 -0.5807  2.2101  0.8914
20039TIP3   OH281607   5.956   4.918   5.299  0.4040  0.0793  0.0104
20039TIP3    H181608   5.870   4.878   5.288 -0.5548  1.8370  0.5880
20039TIP3    H281609   5.973   4.911   5.393  0.9295 -0.3344 -0.1157
20040TIP3   OH281610   5.578   6.281  13.351  0.1497 -0.8410 -0.4161
20040TIP3    H181611   5.612   6.223  13.283 -0.3252 -0.9410 -0.5711
20040TIP3    H281612   5.488   6.301  13.324 -0.1261 -1.0654  0.2946
20041TIP3   OH281613   1.392   3.282  12.893  0.1379  0.2485  0.1100
20041TIP3    H181614   1.366   3.373  12.875 -1.3103  0.0276  0.9669
20041TIP3    H281615   1.394   3.276  12.988  2.1306 -0.1324  0.1021
20042TIP3   OH281616   5.621   3.053   2.879  0.1383  0.6346 -0.5049
20042TIP3    H181617   5.558   2.981   2.879 -0.0594  0.8047 -0.7772
20042TIP3    H281618   5.643   3.066   2.971 -0.2056  0.5546 -0.4090
20043TIP3   OH281619   2.245   5.746   6.324  0.0102  0.3255  0.2373
20043TIP3    H181620   2.192   5.705   6.392  0.7879 -0.2686  0.4984
20043TIP3    H281621   2.318   5.685   6.310  0.6427  1.1380 -0.0908
20044TIP3   OH281622   3.656   3.551  12.578  0.3200  0.5467 -0.0631
20044TIP3    H181623   3.672   3.627  12.521  1.4822  0.7587  0.5278
20044TIP3    H281624   3.741   3.532  12.618  0.3443 -1.7746 -1.0445
20045TIP3   OH281625   1.989   4.923   4.016  0.7126 -0.3265 -0.8134
20045TIP3    H181626   1.905   4.954   4.049  0.6204 -2.0721  0.7530
20045TIP3    H281627   2.054   4.970   4.069  0.7320  0.3941 -1.4515
20046TIP3   OH281628   0.589   5.669   3.423  0.0586  0.1367  0.0555
20046TIP3    H181629   0.651   5.611   3.467 -0.1156 -0.1339 -0.0504
20046TIP3    H281630   0.641   5.717   3.358 -0.3732 -2.5159 -2.4364
20047TIP3   OH281631   6.664   6.554   5.612 -0.3320 -0.0654 -0.6634
20047TIP3    H181632   6.585   6.545   5.665  1.1259 -1.2098  1.4861
20047TIP3    H281633   6.647   6.630   5.556 -2.9750 -0.3826 -0.4176
20048TIP3   OH281634   0.174   2.925   0.664 -0.5118 -0.1995  0.1436
20048TIP3    H181635   0.144   2.995   0.723 -0.4135 -0.5877  0.6660
20048TIP3    H281636   0.247   2.884   0.710 -0.8038 -0.8855  0.0180
20049TIP3   OH281637   0.363   6.328  16.126  0.0119  0.0126 -0.2580
20049TIP3    H181638   0.427   6.372  16.070 -0.1272 -1.0917 -1.3381
20049TIP3    H281639   0.303   6.286  16.064  0.4992 -2.1875  0.6671
20050TIP3   OH281640   4.727   3.478  12.711  0.3154  0.0814 -0.5059
20050TIP3    H181641   4.639   3.465  12.745  0.1080  1.1057 -0.6414
20050TIP3    H281642   4.747   3.396  12.666 -0.7248 -0.0084 -0.8248
20051TIP3   OH281643   1.425   6.050   5.524 -0.0217 -0.7534 -0.2881
20051TIP3    H181644   1.509   6.067   5.566  0.3988 -2.4358 -0.3619
20051TIP3    H281645   1.432   6.091   5.438 -0.8314  2.5875  1.0951
20052TIP3   OH281646   1.058   3.860   3.910  0.6467  0.0119  0.0516
20052TIP3    H181647   1.116   3.927   3.947  0.6426  0.8359 -1.3970
20052TIP3    H281648   1.089   3.779   3.949  1.0297  0.7649  1.3923
20053TIP3   OH281649   1.371   1.820  13.198  0.4931  0.4131  0.2760
20053TIP3    H181650   1.428   1.743  13.192  1.6756  1.3482 -1.3625
20053TIP3    H281651   1.334   1.828  13.110 -0.0821  1.3833  0.5987
20054TIP3   OH281652   3.020   2.500   6.109 -0.2590  0.3229 -0.5150
20054TIP3    H181653   3.036   2.465   6.196  1.5479  0.7075 -0.6669
20054TIP3    H281654   2.935   2.545   6.117 -2.1426 -2.9744 -0.0446
20055TIP3   OH281655   2.726   6.091   3.468  0.1992 -0.4072 -0.4137
20055TIP3    H181656   2.715   6.184   3.491 -0.0395 -0.2670 -1.0612
20055TIP3    H281657   2.649   6.070   3.415  0.3781 -0.9095 -0.4799
20056TIP3   OH281658   4.366   6.722  16.367 -0.3456  0.3604 -0.0307
20056TIP3    H181659   4.346   6.813  16.344 -1.8985  0.2873  0.9206
20056TIP3    H281660   4.462   6.719  16.372 -0.2134  1.6462 -1.1899
20057TIP3   OH281661   0.917   4.939  13.609  0.1753  0.2905  0.2039
20057TIP3    H181662   0.862   4.885  13.665  0.1346  0.0433 -0.0731
20057TIP3    H281663   1.003   4.938  13.652  0.9374 -2.2246 -1.1752
20058TIP3   OH281664   2.820   0.980  12.845 -0.5536 -0.0139 -0.2480
20058TIP3    H181665   2.902   0.942  12.814 -2.1891 -1.7106 -2.8051
20058TIP3    H281666   2.816   0.954  12.937  0.5662 -2.2031 -0.7403
20059TIP3   OH281667   2.211   2.312   2.162  0.1319  0.5435  0.2332
20059TIP3    H181668   2.296   2.332   2.201  0.3480 -0.4257  0.2945
20059TIP3    H281669   2.148   2.365   2.211  0.4314 -0.4279  1.7283
20060TIP3   OH281670   0.086   3.783  13.858  0.0830 -0.1745 -0.4012
20060TIP3    H181671   0.072   3.752  13.947  1.1707  1.5893  0.4398
20060TIP3    H281672   0.102   3.877  13.867 -0.4864  0.1886 -2.5390
20061TIP3   OH281673   2.935   4.487  13.803 -0.6017 -0.1457 -0.6665
20061TIP3    H181674   3.010   4.503  13.745 -0.5583 -1.5191 -1.0130
20061TIP3    H281675   2.898   4.574  13.819 -0.6688  0.2773 -2.8251
20062TIP3   OH281676   4.279   2.209  15.014  0.0912 -0.6009 -0.2593
20062TIP3    H181677   4.315   2.131  14.973  0.2796 -0.5079 -0.2727
20062TIP3    H281678   4.301   2.280  14.953  1.4484 -0.2671  0.5818
20063TIP3   OH281679   2.254   0.169  14.527 -0.5041 -0.2680 -0.0561
20063TIP3    H181680   2.228   0.239  14.587  0.5222  1.4134 -1.4398
20063TIP3    H281681   2.316   0.212  14.467  1.4783 -2.7675  0.0209
20064TIP3   OH281682   3.250   1.852  14.918 -0.0874  0.3492 -0.2831
20064TIP3    H181683   3.253   1.944  14.894 -0.6799  0.7055  0.9255
20064TIP3    H281684   3.232   1.852  15.012  0.2807 -0.9938 -0.1900
20065TIP3   OH281685   2.246   5.992   2.418  0.3089  0.2942 -0.2243
20065TIP3    H181686   2.342   5.995   2.417  0.3143  1.8116  1.2528
20065TIP3    H281687   2.219   6.082   2.399 -0.7338  0.5873  2.2554
20066TIP3   OH281688   1.810   6.369   1.406  0.7302 -0.0006 -0.1408
20066TIP3    H181689   1.859   6.410   1.478 -0.6138 -0.8866  1.3591
20066TIP3    H281690   1.865   6.296   1.378  0.7496 -0.3936  0.8562
20067TIP3   OH281691   4.976   4.097  17.204  0.7164 -0.5188  0.6089
20067TIP3    H181692   4.928   4.162  17.256 -1.3478  1.1016 -2.9479
20067TIP3    H281693   4.908   4.042  17.166  2.0934 -1.4334 -0.6276
20068TIP3   OH281694   2.287   1.996   3.862  0.3357  0.0679  0.7509
20068TIP3    H181695   2.279   2.075   3.810 -0.8925  0.2451  1.1816
20068TIP3    H281696   2.226   1.934   3.822  0.9855 -0.5386  0.6634
20069TIP3   OH281697   5.365   6.479  11.705  0.2676 -0.0042  0.1378
20069TIP3    H181698   5.287   6.492  11.759  0.0590  1.2165 -0.4270
20069TIP3    H281699   5.337   6.418  11.637 -0.4481  1.0562 -0.5402
20070TIP3   OH281700   4.753   4.386  11.498  0.2224 -0.2856  0.3801
20070TIP3    H181701   4.770   4.362  11.589 -0.0938  0.4991  0.6523
20070TIP3    H281702   4.823   4.343  11.449  2.0200  1.4212  1.2772
20071TIP3   OH281703   4.415   0.979  14.339  0.0253  0.0602  0.0596
20071TIP3    H181704   4.481   0.958  14.273  0.6616 -0.9468  0.9872
20071TIP3    H281705   4.464   0.989  14.420 -0.9009 -0.0825  0.6472
20072TIP3   OH281706   0.701   2.238   1.192 -0.0124 -0.1320  0.3432
20072TIP3    H181707   0.712   2.147   1.217 -1.4604  0.1864  2.4985
20072TIP3    H281708   0.681   2.283   1.275  1.1158  2.2268 -0.5657
20073TIP3   OH281709   0.185   3.018   2.756 -0.0536 -0.0174 -0.2596
20073TIP3    H181710   0.104   3.042   2.712  0.1109  0.3139 -0.3867
20073TIP3    H281711   0.166   2.934   2.799 -0.6450  0.3448  0.2051
20074TIP3   OH281712   3.786   5.826   4.546  0.1969  0.0538  0.9173
20074TIP3    H181713   3.841   5.786   4.478  0.2707 -0.9074  1.5295
20074TIP3    H281714   3.847   5.880   4.597  0.1391  0.7899  0.2385
20075TIP3   OH281715   4.577   4.334   2.564 -0.0745  0.4851  0.1732
20075TIP3    H181716   4.647   4.398   2.556 -1.1009  1.4629 -1.5457
20075TIP3    H281717   4.499   4.377   2.527 -0.9773 -1.4484 -0.3525
20076TIP3   OH281718   6.101   5.685  10.297  0.2614 -0.1799 -0.0994
20076TIP3    H181719   6.145   5.756  10.343  0.8552 -0.6648  0.0954
20076TIP3    H281720   6.137   5.605  10.335 -2.4091 -0.6773  1.6743
20077TIP3   OH281721   3.042   0.490   2.420  0.1507  0.3133  0.1438
20077TIP3    H181722   3.054   0.430   2.494 -3.2523 -0.0539  0.5746
20077TIP3    H281723   3.020   0.432   2.347  2.9833  0.7151 -1.1679
20078TIP3   OH281724   5.602   0.942  17.083  0.2866 -0.1550  0.4702
20078TIP3    H181725   5.547   1.002  17.033  1.6259  1.3912  0.7952
20078TIP3    H281726   5.680   0.930  17.029 -0.5988 -2.9666 -0.3717
20079TIP3   OH281727   2.383   1.052   3.431  0.0784 -0.6352 -0.0405
20079TIP3    H181728   2.422   0.975   3.471 -2.3276 -2.7031 -1.3596
20079TIP3    H281729   2.406   1.046   3.338  0.3828  0.6045 -0.0654
20080TIP3   OH281730   3.621   2.371   5.479 -0.4191  0.3112 -0.1670
20080TIP3    H181731   3.626   2.458   5.518 -0.2429 -0.1766  0.9423
20080TIP3    H281732   3.581   2.316   5.547  0.6893 -0.7405 -0.3231
20081TIP3   OH281733   4.753   3.472  11.349 -0.8701  0.4048  0.0170
20081TIP3    H181734   4.746   3.568  11.343 -0.4198  0.3921 -1.0088
20081TIP3    H281735   4.751   3.443  11.258  1.5086 -0.3647  0.1498
20082TIP3   OH281736   1.784   1.028   2.136 -0.3238  0.1356  0.3053
20082TIP3    H181737   1.766   0.999   2.225 -0.2181  1.6053  0.8197
20082TIP3    H281738   1.855   0.971   2.106 -0.9372 -0.9322  0.8381
20083TIP3   OH281739   6.715   0.674  12.559  0.1424 -0.3649  0.6534
20083TIP3    H181740   6.749   0.641  12.642  0.3126  3.1362  2.1755
20083TIP3    H281741   6.772   0.748  12.538 -1.2854  0.2422 -1.3806
20084TIP3   OH281742   4.210   3.698  14.825  0.1232  0.3629 -0.3065
20084TIP3    H181743   4.195   3.627  14.888  1.9495  0.6884  0.5770
20084TIP3    H281744   4.181   3.662  14.741  0.2894 -1.1438  0.2455
20085TIP3   OH281745   3.266   1.453  15.252  0.1182 -0.4332  0.3179
20085TIP3    H181746   3.285   1.364  15.281  0.7806 -0.2052  0.6124
20085TIP3    H281747   3.206   1.443  15.178  0.5527 -1.1413  0.0571
20086TIP3   OH281748   2.819   3.919   0.578 -0.3342  0.8224 -0.1327
20086TIP3    H181749   2.749   3.985   0.574  1.1532  2.5067  0.2472
20086TIP3    H281750   2.778   3.839   0.545 -2.4441  1.7171  0.1270
20087TIP3   OH281751   6.453   5.455   1.306 -0.2652  0.5567 -0.0243
20087TIP3    H181752   6.430   5.539   1.268  1.8760  0.4900 -1.6808
20087TIP3    H281753   6.442   5.392   1.235  1.9560  0.1074 -0.0570
20088TIP3   OH281754   3.321   6.213  11.019 -0.0872  0.0517  0.6492
20088TIP3    H181755   3.261   6.254  11.082  0.7414  2.9899 -0.3205
20088TIP3    H281756   3.377   6.285  10.989  0.0874 -1.3762 -2.8647
20089TIP3   OH281757   2.840   5.760  15.364 -0.3008 -0.3430  0.1119
20089TIP3    H181758   2.878   5.677  15.390  0.4312  0.0556  0.3395
20089TIP3    H281759   2.914   5.820  15.356 -0.6492 -0.0755 -1.5044
20090TIP3   OH281760   4.830   0.011   3.182  0.3067  0.0863  0.0783
20090TIP3    H181761   4.815  -0.003   3.275 -0.6128 -2.4323 -0.3775
20090TIP3    H281762   4.746  -0.006   3.141  0.4944  1.9329 -1.2097
20091TIP3   OH281763   0.365   6.096   1.468  0.1344  1.3295 -0.1963
20091TIP3    H181764   0.436   6.060   1.415 -0.0993  1.4548 -0.5925
20091TIP3    H281765   0.296   6.030   1.467  0.1612  1.2946  0.0254
20092TIP3   OH281766   3.993   6.115  17.014  0.0789 -0.3565  0.4579
20092TIP3    H181767   4.046   6.126  16.934  1.3249  2.6204  1.5432
20092TIP3    H281768   4.057   6.119  17.085 -1.3953  1.6658  1.7594
20093TIP3   OH281769   4.881   5.118   4.273 -0.1163  0.2788  0.2230
20093TIP3    H181770   4.889   5.103   4.367 -1.0121  1.1312  0.4534
20093TIP3    H281771   4.799   5.168   4.263 -0.4201 -0.4185 -1.0719
20094TIP3   OH281772   4.573   4.342   4.758 -0.0768 -0.0806  0.2661
20094TIP3    H181773   4.520   4.278   4.711  1.6290 -0.8951 -0.6638
20094TIP3    H281774   4.551   4.426   4.719 -2.2651 -0.0374  1.4266
20095TIP3   OH281775   0.189   6.486  16.270  0.0592 -0.0960  0.0212
20095TIP3    H181776   0.237   6.430  16.209 -1.4951 -2.3900  0.7850
20095TIP3    H281777   0.252   6.505  16.340  0.5233 -1.1769 -0.0883
20096TIP3   OH281778   6.121   3.669  15.281 -0.0556  0.1316 -0.2208
20096TIP3    H181779   6.069   3.677  15.361  0.6399 -0.7112  0.3402
20096TIP3    H281780   6.119   3.576  15.260  0.4738  0.2175 -0.6998
20097TIP3   OH281781   2.017   3.835   1.548  0.0948  0.2775 -0.1016
20097TIP3    H181782   1.958   3.779   1.599 -1.0787 -0.1334 -1.8386
20097TIP3    H281783   1.984   3.923   1.562  0.2621  0.2608  0.4434
20098TIP3   OH281784   2.570   0.846   5.175 -0.1001  0.3903  0.5136
20098TIP3    H181785   2.497   0.813   5.123 -0.3771 -0.5450  1.4791
20098TIP3    H281786   2.635   0.873   5.110 -0.8455  0.1924 -0.3325
20099TIP3   OH281787   3.480   5.404  13.661 -0.0330 -0.4250 -0.1143
20099TIP3    H181788   3.454   5.318  13.627 -0.6739  0.6256 -2.4263
20099TIP3    H281789   3.549   5.434  13.602 -0.3373  0.9931  0.2059
20100TIP3   OH281790   4.123   2.193  11.622 -0.2623  0.0642 -0.0783
20100TIP3    H181791   4.029   2.190  11.602  0.2329  1.7218 -3.2451
20100TIP3    H281792   4.163   2.138  11.555  1.1375  0.2121  0.6073
20101TIP3   OH281793   3.137   4.237  15.074  0.3450  0.2008  0.0408
20101TIP3    H181794   3.186   4.231  14.993  0.0703 -1.3567 -0.0560
20101TIP3    H281795   3.164   4.159  15.124 -1.2689 -0.1881  0.3872
20102TIP3   OH281796   4.424   1.152   5.472  0.6794 -0.1613  0.5212
20102TIP3    H181797   4.460   1.078   5.423  0.3275  0.1852 -0.2798
20102TIP3    H281798   4.473   1.228   5.440 -1.2582  0.4615 -1.2339
20103TIP3   OH281799   3.956   0.900  11.010  0.5720 -0.3276 -0.3088
20103TIP3    H181800   4.040   0.937  11.036  0.9280 -0.6677 -0.9583
20103TIP3    H281801   3.915   0.968  10.956  0.7896 -0.4854 -0.6734
20104TIP3   OH281802   4.076   4.798  11.254  0.1793 -0.1690 -0.2707
20104TIP3    H181803   4.101   4.712  11.287 -1.8149 -0.7489 -0.1879
20104TIP3    H281804   4.054   4.783  11.162 -0.3668  0.2229 -0.2080
20105TIP3   OH281805   2.120   4.761  13.740 -0.0856  0.1372  0.4382
20105TIP3    H181806   2.208   4.750  13.705  0.1806  2.0486  0.4125
20105TIP3    H281807   2.083   4.672  13.742  1.6928 -0.6397  0.1102
20106TIP3   OH281808   0.113   4.424  13.501  0.1765  0.2224 -0.0867
20106TIP3    H181809   0.168   4.346  13.489 -1.1643 -0.7714  0.0155
20106TIP3    H281810   0.031   4.390  13.537 -0.4876  1.6741 -0.1765
20107TIP3   OH281811   3.319   0.212   2.082 -0.4035 -0.6294  0.1778
20107TIP3    H181812   3.352   0.291   2.041 -2.4809  0.7722  1.0283
20107TIP3    H281813   3.396   0.156   2.093  1.0228  1.0188 -0.9612
20108TIP3   OH281814   1.576   1.813   3.830 -0.8981  0.2373  0.4396
20108TIP3    H181815   1.655   1.806   3.884 -0.3593 -1.6014 -0.4941
20108TIP3    H281816   1.609   1.813   3.740 -1.9074  0.5568  0.0583
20109TIP3   OH281817   3.426   4.182  12.869 -0.3063  0.0501 -0.0813
20109TIP3    H181818   3.496   4.233  12.828  0.0918 -0.8174 -0.4999
20109TIP3    H281819   3.415   4.106  12.812  0.4256 -1.3131  1.5335
20110TIP3   OH281820   5.625   5.038  14.726  0.6771 -0.9047 -1.1330
20110TIP3    H181821   5.559   5.093  14.684  1.2679  0.0747 -0.8122
20110TIP3    H281822   5.698   5.098  14.745  0.9010 -1.5670  0.2081
20111TIP3   OH281823   5.814   5.630   0.130  0.2860 -0.3017 -0.0514
20111TIP3    H181824   5.897   5.583   0.140  0.4563 -0.4672 -1.9685
20111TIP3    H281825   5.747   5.562   0.138  0.2072 -0.0381  2.4643
20112TIP3   OH281826   3.386   1.232   2.369  0.0680  0.0457  0.2090
20112TIP3    H181827   3.296   1.204   2.351 -0.1880  1.5266 -1.0431
20112TIP3    H281828   3.420   1.260   2.284  1.8371 -0.7479  0.6055
20113TIP3   OH281829   2.121   5.932   6.153 -0.7035 -0.0920 -0.4741
20113TIP3    H181830   2.168   5.864   6.202 -2.3324 -2.2302 -1.6746
20113TIP3    H281831   2.099   5.998   6.218  1.1033 -0.5812  0.7241
20114TIP3   OH281832   3.130   1.518   6.232  0.1939  0.2737 -0.0176
20114TIP3    H181833   3.183   1.573   6.289 -0.9354  1.1552  0.2115
20114TIP3    H281834   3.143   1.429   6.266 -1.0372  0.8428  2.1612
20115TIP3   OH281835   6.531   0.786  12.137 -0.3629  0.1920 -0.5113
20115TIP3    H181836   6.596   0.843  12.178 -0.8048  1.1262 -1.0666
20115TIP3    H281837   6.449   0.835  12.142 -0.9195 -0.7301 -0.3288
20116TIP3   OH281838   0.418   2.597   4.041 -0.2277 -0.8173 -0.3861
20116TIP3    H181839   0.493   2.538   4.045  1.8486  1.5877 -1.1085
20116TIP3    H281840   0.356   2.554   3.981  0.6948 -2.6720 -0.0828
20117TIP3   OH281841   6.694   2.769  15.460  0.2797 -0.2746  0.0572
20117TIP3    H181842   6.674   2.745  15.370 -0.5066 -0.2530  0.2217
20117TIP3    H281843   6.737   2.692  15.497  1.6266  0.1087 -0.6505
20118TIP3   OH281844   2.073   3.662  13.441  0.3260  0.4544  0.3460
20118TIP3    H181845   2.120   3.707  13.512 -1.2220  0.3586  1.4934
20118TIP3    H281846   2.002   3.616  13.486 -2.1284  2.2362 -1.4647
20119TIP3   OH281847   6.205   4.167  13.174 -0.0638  0.6947 -0.0739
20119TIP3    H181848   6.240   4.151  13.262 -2.0357 -0.5570  0.5510
20119TIP3    H281849   6.274   4.135  13.116  0.2447 -0.9277  1.0856
20120TIP3   OH281850   1.748   0.241  14.232  0.0877 -0.3323  0.6539
20120TIP3    H181851   1.680   0.261  14.297 -0.4090 -0.2340  0.1121
20120TIP3    H281852   1.730   0.300  14.159 -1.1682 -2.3980 -0.8211
20121TIP3   OH281853   3.570   0.573   1.122 -0.0244 -0.1936  0.0989
20121TIP3    H181854   3.568   0.501   1.185 -0.4299 -3.2974 -3.1720
20121TIP3    H281855   3.635   0.546   1.058  0.2284  2.7170 -1.0022
20122TIP3   OH281856   6.520   1.673  16.967 -0.0884  0.1824  0.0850
20122TIP3    H181857   6.479   1.645  16.886  1.8150 -1.6207 -0.3398
20122TIP3    H281858   6.454   1.656  17.034 -0.6346 -1.1379 -0.7436
20123TIP3   OH281859   1.738   3.907   4.462 -0.4795  0.0144  0.5001
20123TIP3    H181860   1.805   3.839   4.455  0.2588  0.7130  0.6694
20123TIP3    H281861   1.659   3.861   4.491 -0.4332 -1.0270 -0.9389
20124TIP3   OH281862   4.147   3.830   3.793 -0.1286 -0.1252  0.3213
20124TIP3    H181863   4.145   3.787   3.708  1.1071 -0.2816  0.3499
20124TIP3    H281864   4.076   3.790   3.842  1.5391 -2.8692  0.6673
20125TIP3   OH281865   4.453   6.523  15.870  0.0309 -0.5207 -0.0114
20125TIP3    H181866   4.483   6.612  15.853  0.4985 -0.3680  1.4040
20125TIP3    H281867   4.398   6.531  15.948 -0.5570 -1.3678 -0.3214
20126TIP3   OH281868   6.288   1.933   4.909 -0.0935  0.1307 -0.9080
20126TIP3    H181869   6.372   1.979   4.914 -1.0797  2.1165 -1.3311
20126TIP3    H281870   6.285   1.879   4.987  0.8593  1.3722  0.0293
20127TIP3   OH281871   1.539   0.505  11.241  0.1177  0.2432 -0.4722
20127TIP3    H181872   1.534   0.477  11.332  1.7299  0.0016 -0.4347
20127TIP3    H281873   1.479   0.446  11.194 -0.5104  0.1953  0.3645
20128TIP3   OH281874   5.579   2.567   1.954 -0.7482  0.3314 -0.1272
20128TIP3    H181875   5.659   2.515   1.965 -0.2968  1.1606  0.6530
20128TIP3    H281876   5.556   2.555   1.862  0.3616  0.1890 -0.4087
20129TIP3   OH281877   1.801   3.087  13.903  0.0500  0.2417 -0.1608
20129TIP3    H181878   1.882   3.046  13.933 -1.1597 -1.7470  0.5610
20129TIP3    H281879   1.749   3.099  13.982 -0.8707  0.3212 -0.7586
20130TIP3   OH281880   5.675   5.577   3.652 -0.1095  0.3759 -0.4650
20130TIP3    H181881   5.656   5.633   3.727  0.9107  0.4443 -0.2385
20130TIP3    H281882   5.619   5.500   3.664 -0.8715  0.9434 -0.3120
20131TIP3   OH281883   4.175   1.476  16.700 -0.4198 -0.4125  0.4008
20131TIP3    H181884   4.183   1.510  16.789 -0.4951 -0.6709  0.5100
20131TIP3    H281885   4.090   1.431  16.700  0.5557 -2.3604  0.8734
20132TIP3   OH281886   2.812   1.271  17.007 -0.0588  0.2896 -0.3984
20132TIP3    H181887   2.780   1.252  17.095 -2.3472 -2.7473 -1.7164
20132TIP3    H281888   2.753   1.338  16.974 -0.4967 -0.0349 -0.2886
20133TIP3   OH281889   3.809   0.651  15.026 -0.0740 -0.2576 -0.0471
20133TIP3    H181890   3.839   0.719  15.087 -1.6612  0.1614  0.3192
20133TIP3    H281891   3.720   0.630  15.056 -0.0515 -1.6758 -0.8672
20134TIP3   OH281892   0.608   6.704  13.336  0.2546 -0.0445 -0.0505
20134TIP3    H181893   0.544   6.725  13.404  1.2525  0.5393  0.7305
20134TIP3    H281894   0.688   6.683  13.384  0.5772 -1.1104 -0.9983
20135TIP3   OH281895   1.571   4.789   2.735 -0.1957  0.4372  0.6360
20135TIP3    H181896   1.524   4.870   2.712  0.5052  0.2202 -1.8845
20135TIP3    H281897   1.527   4.721   2.683  1.0875 -0.2607  0.4414
20136TIP3   OH281898   6.594   4.402   3.003 -0.3362  0.6745 -0.4923
20136TIP3    H181899   6.547   4.485   2.994 -1.1993  0.2732  0.1374
20136TIP3    H281900   6.676   4.416   2.956  0.4117  2.5535  1.2061
20137TIP3   OH281901   1.614   2.354  12.927 -0.1350  0.2164 -0.2962
20137TIP3    H181902   1.625   2.438  12.883 -0.9767  0.1830 -0.5697
20137TIP3    H281903   1.659   2.366  13.011  0.5932  0.6071 -0.7252
20138TIP3   OH281904   4.027   2.486   1.072  0.1514  0.3728 -0.0659
20138TIP3    H181905   4.037   2.396   1.040  2.4442  0.9649 -1.1947
20138TIP3    H281906   4.063   2.484   1.160 -0.5360  0.0427  0.2172
20139TIP3   OH281907   1.256   3.881  16.968  0.6137  0.2943 -0.6086
20139TIP3    H181908   1.268   3.831  17.049  0.5568  1.3765  0.0876
20139TIP3    H281909   1.279   3.970  16.991 -0.4839  0.8380 -1.4973
20140TIP3   OH281910   5.842   2.322  15.749 -0.2727 -0.6855 -0.2288
20140TIP3    H181911   5.817   2.413  15.730  0.2314 -0.7076 -1.0302
20140TIP3    H281912   5.763   2.272  15.730 -0.4919 -0.4403  0.0206
20141TIP3   OH281913   1.009   1.474   2.207  0.1131 -0.4028 -0.1772
20141TIP3    H181914   1.019   1.403   2.145 -0.0327 -0.2026 -0.4322
20141TIP3    H281915   0.924   1.459   2.248  0.8894 -1.4410  1.1435
20142TIP3   OH281916   5.533   0.923  15.637 -0.0280  1.0531 -0.1483
20142TIP3    H181917   5.611   0.978  15.637 -0.0900  1.1471 -0.9271
20142TIP3    H281918   5.566   0.833  15.641  0.1265  1.0841 -0.7605
20143TIP3   OH281919   5.270   0.301   2.801  0.4052 -0.1334 -0.4625
20143TIP3    H181920   5.204   0.311   2.733  1.3591  1.9932 -1.1645
20143TIP3    H281921   5.353   0.323   2.758  1.2684 -0.5245  0.9330
20144TIP3   OH281922   0.231   5.819  13.646 -0.0595 -0.6756  0.2321
20144TIP3    H181923   0.168   5.885  13.617  0.3152 -0.3359  0.1771
20144TIP3    H281924   0.269   5.785  13.565  1.0301  0.3131  0.3020
20145TIP3   OH281925   0.337   1.636   0.830  0.3886  0.0688 -0.6666
20145TIP3    H181926   0.395   1.634   0.754  0.5016 -1.9552 -0.5744
20145TIP3    H281927   0.326   1.545   0.854 -0.2297  0.6260  1.3307
20146TIP3   OH281928   4.991   4.656  15.037  0.4645  0.0986 -0.0466
20146TIP3    H181929   5.016   4.730  14.981  1.2610 -0.0486  0.0969
20146TIP3    H281930   4.955   4.592  14.976  2.0690 -0.3928 -0.5559
20147TIP3   OH281931   0.253   1.708  14.097 -0.0205 -0.1909 -0.2186
20147TIP3    H181932   0.287   1.751  14.175 -1.1265 -0.9128  0.6903
20147TIP3    H281933   0.234   1.618  14.125 -1.8924 -0.0543 -0.8654
20148TIP3   OH281934   0.629   2.639  12.839  0.0149  0.1107  0.1088
20148TIP3    H181935   0.692   2.585  12.792 -0.7161 -1.6787  1.1081
20148TIP3    H281936   0.639   2.613  12.931 -0.8687  1.1660  0.5301
20149TIP3   OH281937   6.206   4.752   4.370 -0.0673  0.3014 -0.4153
20149TIP3    H181938   6.265   4.692   4.415  1.1890  0.7757 -1.3753
20149TIP3    H281939   6.198   4.717   4.282  0.6682  1.4810 -0.9882
20150TIP3   OH281940   3.688   2.575   3.313 -0.6049 -0.3548  1.4020
20150TIP3    H181941   3.644   2.491   3.323 -0.4382 -0.7562 -0.7653
20150TIP3    H281942   3.658   2.608   3.229  1.4903  0.4381  0.9061
20151TIP3   OH281943   1.020   1.915  17.196  0.3909  0.4017  0.3271
20151TIP3    H181944   1.079   1.981  17.232  2.6282 -1.3782  0.1845
20151TIP3    H281945   1.038   1.916  17.102 -2.7739  2.5108 -0.4072
20152TIP3   OH281946   4.863   2.197   5.695  0.2120 -0.0237  0.7608
20152TIP3    H181947   4.937   2.139   5.682 -0.5950 -1.2712  1.5146
20152TIP3    H281948   4.842   2.230   5.608  1.4765  0.1582  0.5075
20153TIP3   OH281949   1.557   5.001   0.831 -0.0458 -0.1049 -0.2349
20153TIP3    H181950   1.477   5.045   0.803 -0.4007 -0.1518  0.6655
20153TIP3    H281951   1.572   4.934   0.765 -0.2273  0.5120 -0.9135
20154TIP3   OH281952   2.756   6.579  12.255  0.7565 -0.2034 -0.2498
20154TIP3    H181953   2.697   6.545  12.188  0.7144 -0.6080 -0.0096
20154TIP3    H281954   2.807   6.504  12.283  0.8754 -0.0066  0.0684
20155TIP3   OH281955   0.217   1.603  12.025  0.1546 -0.2218  0.5874
20155TIP3    H181956   0.216   1.527  12.083 -0.5578  0.0325  0.9121
20155TIP3    H281957   0.130   1.642  12.033 -1.5099 -2.4232 -3.6411
20156TIP3   OH281958   4.805   4.921  11.827 -0.8633 -0.6379  0.2194
20156TIP3    H181959   4.832   4.903  11.917 -0.4850  0.0726  0.2562
20156TIP3    H281960   4.847   4.854  11.774  1.2233  0.5820  0.2406
20157TIP3   OH281961   2.799   1.322   3.689  0.3952  0.2511 -0.1962
20157TIP3    H181962   2.714   1.288   3.664  1.0653 -2.1952  0.6092
20157TIP3    H281963   2.780   1.392   3.752 -1.0115 -0.7746  0.5537
20158TIP3   OH281964   1.504   3.914   3.442 -0.1098 -0.5976  0.1093
20158TIP3    H181965   1.531   3.883   3.528  1.4483  0.1708 -0.0718
20158TIP3    H281966   1.526   3.842   3.383  2.2740  0.2302 -0.1243
20159TIP3   OH281967   5.043   4.821   4.175 -0.2047 -0.0709  0.3150
20159TIP3    H181968   5.015   4.732   4.197  1.7418 -1.0564 -0.9021
20159TIP3    H281969   5.090   4.851   4.252 -1.4752  0.2394  1.0089
20160TIP3   OH281970   0.105   3.945   2.370  0.1659 -0.0611 -0.5187
20160TIP3    H181971   0.096   3.905   2.456  3.0411  0.6479  0.2141
20160TIP3    H281972   0.073   4.034   2.381  0.4954  0.0178 -0.1750
20161TIP3   OH281973   2.883   1.299   5.622  0.3763 -0.0858  0.1642
20161TIP3    H181974   2.837   1.379   5.598  0.7142 -0.2373 -1.0762
20161TIP3    H281975   2.965   1.303   5.573  0.4440 -1.1289  0.1588
20162TIP3   OH281976   4.151   5.208  16.343  0.2497  1.1103 -0.5699
20162TIP3    H181977   4.109   5.292  16.361  0.5738  1.1471  0.0376
20162TIP3    H281978   4.166   5.209  16.248  0.7843  1.9938 -0.4959
20163TIP3   OH281979   4.192   0.182   3.509 -0.2907 -0.1886  0.0614
20163TIP3    H181980   4.172   0.247   3.576 -0.2621 -1.1837  1.0574
20163TIP3    H281981   4.242   0.230   3.443  0.1398  0.6933  1.0036
20164TIP3   OH281982   2.399   2.471  14.271  0.4011  0.4239 -0.0536
20164TIP3    H181983   2.381   2.489  14.179 -1.7529  2.6115  0.6777
20164TIP3    H281984   2.354   2.389  14.289 -0.0036  0.4916 -0.7337
20165TIP3   OH281985   0.909   5.107   2.459 -0.1624  0.7808  0.0403
20165TIP3    H181986   0.899   5.045   2.532 -0.3618  1.2330  0.3987
20165TIP3    H281987   1.003   5.111   2.444 -0.1322  0.5556  0.1596
20166TIP3   OH281988   2.307   4.754   6.777  0.4590  0.1931  0.2465
20166TIP3    H181989   2.219   4.734   6.809  1.0034 -0.0823  1.6618
20166TIP3    H281990   2.329   4.681   6.719  0.0303 -0.1099  0.4638
20167TIP3   OH281991   4.476   4.106  10.611  0.0694  0.9149 -0.0708
20167TIP3    H181992   4.569   4.127  10.617  0.5855 -0.7893 -1.2542
20167TIP3    H281993   4.451   4.133  10.523 -0.0316 -0.3681 -0.4662
20168TIP3   OH281994   1.866   5.901  13.082 -0.1376  0.7908 -0.2273
20168TIP3    H181995   1.902   5.973  13.134  1.8652  0.7849 -1.4788
20168TIP3    H281996   1.855   5.939  12.994 -2.5265  0.5412 -0.0756
20169TIP3   OH281997   4.490   5.539   5.863 -0.1500  0.4495  0.0064
20169TIP3    H181998   4.559   5.542   5.929 -0.1134 -0.6958  0.0317
20169TIP3    H281999   4.497   5.623   5.818  1.8531  0.0124 -0.5942
20170TIP3   OH282000   6.624   1.643   2.271 -0.1397 -0.0221 -0.4060
20170TIP3    H182001   6.704   1.590   2.278  0.6104  0.9702 -1.2166
20170TIP3    H282002   6.655   1.730   2.246 -1.5137  0.2718 -1.1753
20171TIP3   OH282003   3.002   4.015   6.084  0.0769  0.4802  0.2870
20171TIP3    H182004   3.080   3.960   6.096 -0.4264 -0.6269 -1.1032
20171TIP3    H282005   2.949   4.000   6.162 -0.4686 -1.8159 -0.4386
20172TIP3   OH282006   5.701   0.361   2.743 -0.2124 -0.0350 -0.0625
20172TIP3    H182007   5.624   0.357   2.687  0.0934  0.0715 -0.4962
20172TIP3    H282008   5.667   0.353   2.832 -0.9744  2.1781 -0.0769
20173TIP3   OH282009   4.909   6.511  16.250 -0.1782  0.0116 -0.0305
20173TIP3    H182010   4.986   6.492  16.197  0.1051  0.7680  0.1101
20173TIP3    H282011   4.943   6.553  16.329 -0.8454  1.9566 -0.7268
20174TIP3   OH282012   3.818   1.192   4.954 -0.3848 -0.0954 -0.2570
20174TIP3    H182013   3.904   1.169   4.989 -0.3348 -1.0458 -0.9380
20174TIP3    H282014   3.820   1.159   4.864  0.2568  4.0057 -1.9617
20175TIP3   OH282015   3.121   1.285   0.244 -0.4659 -0.4736  0.4193
20175TIP3    H182016   3.125   1.306   0.338 -0.9488  2.7427 -0.1484
20175TIP3    H282017   3.044   1.229   0.236  0.2152 -1.7310  2.0364
20176TIP3   OH282018   1.903   2.963  15.419 -0.6595 -0.1303  0.7914
20176TIP3    H182019   1.955   2.937  15.495  1.0838  0.3467 -0.1729
20176TIP3    H282020   1.861   3.044  15.445  1.2226  0.9145  0.7588
20177TIP3   OH282021   3.283   4.903   1.255 -0.0596  0.3712  0.2740
20177TIP3    H182022   3.240   4.822   1.282  1.2260 -0.5296 -0.2956
20177TIP3    H282023   3.356   4.875   1.200  0.5778  1.9064  0.2744
20178TIP3   OH282024   6.281   1.276  16.450 -0.2373  0.2783  0.1811
20178TIP3    H182025   6.315   1.292  16.362 -0.3645  0.3274  0.1403
20178TIP3    H282026   6.359   1.265  16.505  0.0330  4.0645  0.8137
20179TIP3   OH282027   6.328   3.229  15.387 -0.1944 -0.5411 -0.0185
20179TIP3    H182028   6.245   3.188  15.364 -0.1977 -1.5078  1.5771
20179TIP3    H282029   6.354   3.186  15.469  0.3678  1.8569  1.1489
20180TIP3   OH282030   5.794   1.641   1.279  0.0401  0.1620  0.0254
20180TIP3    H182031   5.788   1.658   1.185  0.7167  1.4307  0.2018
20180TIP3    H282032   5.735   1.567   1.293 -1.2385  0.9179 -1.1476
20181TIP3   OH282033   0.102   6.415   6.131  0.1955  0.1431 -0.1859
20181TIP3    H182034   0.021   6.372   6.158  0.8735 -1.7665 -0.9605
20181TIP3    H282035   0.133   6.460   6.209 -0.5142 -0.9141  0.7322
20182TIP3   OH282036   2.405   4.688  14.140 -0.1359 -0.0852  0.0324
20182TIP3    H182037   2.484   4.687  14.194 -0.9993  0.7172  1.3744
20182TIP3    H282038   2.334   4.665  14.200 -1.4503  2.9807 -0.1593
20183TIP3   OH282039   5.218   5.644  13.455  0.3588  0.0603  0.3974
20183TIP3    H182040   5.171   5.625  13.536 -1.8995  0.1232 -0.8268
20183TIP3    H282041   5.221   5.740  13.451 -0.5925  0.0802 -0.1363
20184TIP3   OH282042   1.562   3.646  14.971  0.6559 -0.1619 -0.7880
20184TIP3    H182043   1.577   3.739  14.988  3.9742 -0.9124  1.4230
20184TIP3    H282044   1.635   3.620  14.915  0.1855 -1.5956 -0.7726
20185TIP3   OH282045   4.436   5.277  14.042 -0.2446 -0.9269  0.5988
20185TIP3    H182046   4.448   5.309  14.132 -2.0394 -3.2567  1.7955
20185TIP3    H282047   4.400   5.351  13.994 -1.3627 -0.2220  2.4213
20186TIP3   OH282048   4.742   1.587   3.312 -0.4259  0.2170  0.4403
20186TIP3    H182049   4.748   1.524   3.241  0.7042  0.1765  0.5558
20186TIP3    H282050   4.743   1.534   3.392 -0.4584  0.3237  0.5122
20187TIP3   OH282051   1.925   2.976  11.220 -0.1761 -0.4746 -0.5580
20187TIP3    H182052   1.984   3.019  11.158  1.6099  0.4013  1.5635
20187TIP3    H282053   1.840   3.015  11.204  0.5850  0.9411 -1.3803
20188TIP3   OH282054   3.040   6.584   2.765  0.4070  0.4127 -0.5127
20188TIP3    H182055   3.032   6.589   2.670 -0.6501  1.1385 -0.4035
20188TIP3    H282056   3.132   6.605   2.782  0.3425  1.4415 -1.3229
20189TIP3   OH282057   4.308   6.749  12.263  0.1402  0.0830 -0.3053
20189TIP3    H182058   4.393   6.719  12.232  0.1042 -0.4340  0.0951
20189TIP3    H282059   4.328   6.827  12.316  0.5294 -0.9275  1.0836
20190TIP3   OH282060   3.894   6.691   1.235 -0.0057 -0.1275  0.7741
20190TIP3    H182061   3.850   6.671   1.153  0.3043  0.0328  0.5662
20190TIP3    H282062   3.964   6.626   1.242  1.7751  1.5368 -0.4957
20191TIP3   OH282063   4.633   4.638  11.803 -0.2281 -0.8139 -0.2384
20191TIP3    H182064   4.580   4.558  11.804 -0.6680 -0.5241  0.7762
20191TIP3    H282065   4.670   4.643  11.891  0.4108 -0.2915 -0.5267
20192TIP3   OH282066   0.724   6.498  17.115 -0.4316  0.1304 -0.2173
20192TIP3    H182067   0.721   6.591  17.135  0.6350  0.7927 -2.7228
20192TIP3    H282068   0.633   6.474  17.094 -0.3506  1.3225 -2.1663
20193TIP3   OH282069   4.051   5.006  11.403  0.2912  0.0224  0.1633
20193TIP3    H182070   3.984   5.057  11.359  0.1607  2.5229  2.9584
20193TIP3    H282071   4.076   4.939  11.339 -3.2553  0.3092 -1.7982
20194TIP3   OH282072   0.050   1.112   5.911 -0.4279 -0.5228  0.6897
20194TIP3    H182073   0.059   1.132   6.004 -0.9818  0.2304  0.5892
20194TIP3    H282074   0.075   1.020   5.904 -2.0113 -1.0878  1.8599
20195TIP3   OH282075   0.917   1.564   5.583  0.1503  0.3927  0.4108
20195TIP3    H182076   0.892   1.474   5.561 -0.8612  0.6376  0.4720
20195TIP3    H282077   0.989   1.584   5.524 -2.7149  1.1817 -3.1665
20196TIP3   OH282078   4.346   3.818   2.028  0.2627  0.3343  0.1990
20196TIP3    H182079   4.286   3.845   2.097 -0.0311 -1.6194  0.7827
20196TIP3    H282080   4.423   3.874   2.038  0.9722 -1.0085  3.2731
20197TIP3   OH282081   1.973   2.266   4.639  0.2251  0.7877  0.3192
20197TIP3    H182082   1.955   2.322   4.714  1.1768  2.0277 -0.3445
20197TIP3    H282083   1.936   2.313   4.564 -0.2872 -0.2019 -0.0702
20198TIP3   OH282084   3.286   4.793   4.392 -0.1015  0.4812  0.4018
20198TIP3    H182085   3.360   4.741   4.361  0.1684  1.5966 -0.9037
20198TIP3    H282086   3.222   4.789   4.321 -0.7000  0.6861  0.9242
20199TIP3   OH282087   3.119   3.159  12.696  0.5026  0.5217 -0.0566
20199TIP3    H182088   3.187   3.093  12.712  1.4063  0.9376 -1.8854
20199TIP3    H282089   3.066   3.123  12.626  0.9176  1.6536 -0.9797
20200TIP3   OH282090   6.275   3.320   3.865  0.4030 -0.0596 -0.4181
20200TIP3    H182091   6.225   3.332   3.785  2.2897 -1.3745 -1.9009
20200TIP3    H282092   6.361   3.359   3.845 -0.1975  3.2022  2.4309
20201TIP3   OH282093   5.985   3.986   0.685  0.2061 -1.2220 -0.2256
20201TIP3    H182094   5.982   4.020   0.774 -0.0626 -1.8770  0.0227
20201TIP3    H282095   6.052   3.918   0.687  1.6038  0.0726 -1.0102
20202TIP3   OH282096   1.605   1.769  12.195  0.3254 -0.1434  0.3676
20202TIP3    H182097   1.552   1.761  12.274  1.1583  0.1247  0.9651
20202TIP3    H282098   1.652   1.686  12.189 -2.3917 -1.6941 -1.8719
20203TIP3   OH282099   0.493   6.211   5.306  0.3755  0.4493  0.1992
20203TIP3    H182100   0.556   6.155   5.353  0.1051  0.1454  0.1997
20203TIP3    H282101   0.408   6.173   5.325  0.1770  0.9185  0.2723
20204TIP3   OH282102   2.465   2.307  13.724  0.0701 -0.0351 -0.1213
20204TIP3    H182103   2.519   2.253  13.666  1.2663 -0.0809  0.9844
20204TIP3    H282104   2.452   2.252  13.802 -3.2702 -0.8398 -1.0657
20205TIP3   OH282105   1.526   0.847   4.853  0.1102  0.4430  0.2343
20205TIP3    H182106   1.573   0.852   4.936  0.5943 -0.8577  0.0650
20205TIP3    H282107   1.481   0.931   4.845  2.4269  1.7619  0.3761
20206TIP3   OH282108   3.455   6.613   3.353  0.0267 -0.1677  0.3223
20206TIP3    H182109   3.495   6.570   3.277 -0.3270 -0.9769  0.5812
20206TIP3    H282110   3.501   6.577   3.428  0.4141  0.6743  0.4986
20207TIP3   OH282111   1.151   5.711   1.844 -0.1637 -0.1054 -0.4404
20207TIP3    H182112   1.184   5.727   1.933  1.3734  1.4530 -1.2237
20207TIP3    H282113   1.079   5.649   1.856 -1.3792  1.6307  2.1214
20208TIP3   OH282114   3.405   2.821   3.874  0.2559 -0.4449  0.6563
20208TIP3    H182115   3.365   2.907   3.863  1.1018  0.2831  2.6508
20208TIP3    H282116   3.475   2.819   3.809 -2.1285 -1.2932 -2.1074
20209TIP3   OH282117   1.727   1.264  12.130  0.2344  0.0916  0.3691
20209TIP3    H182118   1.696   1.184  12.088  2.8505  0.0091 -1.6579
20209TIP3    H282119   1.773   1.311  12.060 -2.6690  4.3305  0.9253
20210TIP3   OH282120   3.266   3.427   2.236 -0.1407  0.1875  0.1710
20210TIP3    H182121   3.361   3.440   2.242  0.0586 -1.5847  2.2788
20210TIP3    H282122   3.229   3.488   2.300 -0.5115  1.2793 -1.0477
20211TIP3   OH282123   5.552   1.041   4.463 -0.3174  0.1251 -0.1995
20211TIP3    H182124   5.488   1.089   4.410  1.2203  1.1554 -1.2119
20211TIP3    H282125   5.582   1.104   4.528 -0.7420 -0.5405  0.6687
20212TIP3   OH282126   0.546   0.587   2.157  0.0399 -0.6009  0.0761
20212TIP3    H182127   0.550   0.514   2.219 -0.3996 -1.4229 -0.8273
20212TIP3    H282128   0.493   0.653   2.201 -0.9128 -1.4763  0.2964
20213TIP3   OH282129   4.852   1.050   0.496 -0.3255 -0.4347 -0.5078
20213TIP3    H182130   4.918   1.084   0.558 -1.4651  0.1846  0.4034
20213TIP3    H282131   4.899   0.984   0.445  0.6347 -1.0680  1.1155
20214TIP3   OH282132   3.374   0.924  10.610 -0.7552 -0.0681  0.5723
20214TIP3    H182133   3.463   0.957  10.598 -0.8674  0.2227  0.5304
20214TIP3    H282134   3.319   0.982  10.558 -0.9113 -0.5707  0.1658
20215TIP3   OH282135   2.049   6.393   5.989 -0.3387  0.3705  0.4630
20215TIP3    H182136   2.142   6.369   5.993 -0.5463 -0.5840 -0.0444
20215TIP3    H282137   2.046   6.483   6.020  0.5587 -0.0860  1.9667
20216TIP3   OH282138   1.808   3.967  12.902 -0.4460  0.4014  0.3263
20216TIP3    H182139   1.834   3.876  12.884 -1.8288  0.1686 -0.6214
20216TIP3    H282140   1.812   3.974  12.997 -0.9114 -0.8551  0.4615
20217TIP3   OH282141   0.732   3.063  16.247 -0.1534 -0.6176 -0.0221
20217TIP3    H182142   0.699   3.013  16.172 -0.9064 -2.5215  1.5101
20217TIP3    H282143   0.749   3.151  16.211 -1.6133 -1.1203 -2.1411
20218TIP3   OH282144   0.974   1.895   3.241  0.2765  0.3136  0.0648
20218TIP3    H182145   1.055   1.883   3.291 -0.2090 -0.4692  0.6873
20218TIP3    H282146   0.908   1.920   3.306 -0.4349 -1.0293 -0.1060
20219TIP3   OH282147   6.801   5.454  12.226  0.0120  0.2261  0.0397
20219TIP3    H182148   6.830   5.469  12.136 -1.4730 -0.4133 -0.5698
20219TIP3    H282149   6.798   5.541  12.265  1.6076  0.4198 -0.2101
20220TIP3   OH282150   3.820   4.476  13.574 -0.0570  0.1834  0.0929
20220TIP3    H182151   3.837   4.454  13.482 -1.0195  1.6676 -0.4749
20220TIP3    H282152   3.802   4.391  13.616  0.1268 -0.4903 -1.1477
20221TIP3   OH282153   0.853   2.711  15.444  0.4414  1.0292  0.0799
20221TIP3    H182154   0.758   2.717  15.434  0.4514  1.6397  0.3072
20221TIP3    H282155   0.867   2.637  15.503  0.0622  1.4457  0.6988
20222TIP3   OH282156   6.749   4.874  15.744  0.0651  0.1211 -0.2678
20222TIP3    H182157   6.750   4.784  15.776  1.1231  0.3264  0.3300
20222TIP3    H282158   6.838   4.906  15.759 -0.8069  1.9599  1.6179
20223TIP3   OH282159   4.468   4.534  16.654 -0.4195  0.4331  0.1096
20223TIP3    H182160   4.531   4.579  16.710 -1.8726  1.6838  0.8087
20223TIP3    H282161   4.443   4.456  16.704 -0.2049  0.4813  0.2924
20224TIP3   OH282162   5.598   1.473  14.703 -0.0163  0.0517  0.0203
20224TIP3    H182163   5.534   1.511  14.643 -0.2325 -0.2775  0.0430
20224TIP3    H282164   5.586   1.520  14.785  1.0940  1.3558 -0.5157
20225TIP3   OH282165   4.022   5.445  16.272 -0.8418  0.3012  0.0123
20225TIP3    H182166   3.953   5.501  16.237 -1.8931 -0.7244  0.3906
20225TIP3    H282167   4.094   5.505  16.291 -2.1700  1.6455  1.0463
20226TIP3   OH282168   4.106   6.172  11.720 -0.1796 -0.8245  0.0686
20226TIP3    H182169   4.051   6.094  11.719  1.3092 -1.9492  1.1962
20226TIP3    H282170   4.184   6.147  11.671 -0.7258  0.8429 -1.7696
20227TIP3   OH282171   5.406   1.900   4.393 -0.5986 -0.5043 -0.0285
20227TIP3    H182172   5.490   1.939   4.419 -0.8044  0.0682 -0.1989
20227TIP3    H282173   5.343   1.938   4.454 -0.8702 -0.2363 -0.4765
20228TIP3   OH282174   1.440   5.011  11.554 -0.4765  0.2147 -0.2030
20228TIP3    H182175   1.365   5.015  11.613 -1.0579  0.8831 -0.9714
20228TIP3    H282176   1.496   4.942  11.591  0.6961  2.5638  2.8829
20229TIP3   OH282177   2.634   1.381  13.844  0.4862  0.7929  0.2825
20229TIP3    H182178   2.688   1.429  13.906  0.4751  1.7980 -0.4448
20229TIP3    H282179   2.635   1.291  13.875 -0.2251  1.4022  2.2361
20230TIP3   OH282180   2.239   3.350   0.804 -0.1756  0.2145  0.3429
20230TIP3    H182181   2.300   3.383   0.739 -2.0096 -0.7852 -2.0041
20230TIP3    H282182   2.153   3.358   0.764 -1.6575  1.2199  3.3652
20231TIP3   OH282183   5.101   4.378  16.415  0.1769 -0.5129  0.3930
20231TIP3    H182184   5.068   4.407  16.330 -0.9300 -2.4579  0.0984
20231TIP3    H282185   5.174   4.320  16.395 -0.2460 -1.1777  0.7501
20232TIP3   OH282186   4.078   3.882   4.561 -0.2548  0.8801 -0.4325
20232TIP3    H182187   3.986   3.879   4.535 -0.7120 -0.6934  1.1792
20232TIP3    H282188   4.105   3.791   4.563  0.5990  1.1339  1.5747
20233TIP3   OH282189   0.417   2.518   4.636 -0.2067  0.2405 -0.2786
20233TIP3    H182190   0.492   2.534   4.694 -0.3580  0.0454 -0.0289
20233TIP3    H282191   0.441   2.562   4.554 -1.2600  3.1320  0.8338
20234TIP3   OH282192   0.342   6.244  14.158 -0.2634  0.6283  0.3492
20234TIP3    H182193   0.254   6.213  14.179 -0.0226 -0.0547  0.3645
20234TIP3    H282194   0.367   6.297  14.233 -0.7249  0.9658  0.2718
20235TIP3   OH282195   3.477   2.562   4.402  0.0012 -0.0841  0.4058
20235TIP3    H182196   3.429   2.548   4.483 -0.8260  1.0003  0.1262
20235TIP3    H282197   3.532   2.639   4.419 -1.8426  1.5990 -0.7077
20236TIP3   OH282198   0.883   4.506   1.719  0.1660  0.1001  0.0111
20236TIP3    H182199   0.812   4.531   1.661  1.1952  0.0663 -1.3020
20236TIP3    H282200   0.899   4.413   1.699 -0.3793 -0.3074  1.3518
20237TIP3   OH282201   6.156   5.950   5.190  0.5360 -0.0948  0.0074
20237TIP3    H182202   6.189   5.879   5.244  0.4452 -0.1267  0.0214
20237TIP3    H282203   6.120   5.907   5.112  0.9069 -0.0311 -0.2002
20238TIP3   OH282204   6.090   6.009  14.938  0.1995  0.3327 -0.1752
20238TIP3    H182205   6.022   5.977  14.997 -1.1084  1.0094 -1.2585
20238TIP3    H282206   6.109   6.098  14.970 -1.4653  1.2194 -1.4785
20239TIP3   OH282207   1.997   2.721   0.598  0.0983  0.1605 -0.0792
20239TIP3    H182208   1.932   2.679   0.654 -0.1278 -0.5397 -0.8515
20239TIP3    H282209   2.021   2.801   0.645 -2.4655  1.2689 -0.4603
20240TIP3   OH282210   2.037   1.634   5.119  0.2796  0.1593  0.1407
20240TIP3    H182211   2.058   1.726   5.137  0.4603 -0.2283  2.0547
20240TIP3    H282212   2.005   1.635   5.029  1.3367  1.9254 -0.2737
20241TIP3   OH282213   3.562   0.917  17.013  0.0672  0.4450  0.2874
20241TIP3    H182214   3.475   0.950  16.994  0.2311  1.3303  1.0245
20241TIP3    H282215   3.621   0.981  16.973  0.3870  0.9755  1.5745
20242TIP3   OH282216   1.710   2.859  12.647  0.5144  0.1523 -0.7043
20242TIP3    H182217   1.726   2.921  12.718 -2.4447 -0.4689  0.6653
20242TIP3    H282218   1.648   2.904  12.589  1.1172 -0.2151 -1.6531
20243TIP3   OH282219   5.813   5.427   0.533  0.0702 -0.0618  0.1525
20243TIP3    H182220   5.830   5.409   0.626 -0.1109  1.4343  0.5010
20243TIP3    H282221   5.721   5.405   0.522 -0.0215  0.1537  0.4464
20244TIP3   OH282222   0.351   3.759   0.968 -0.0712  0.0290  0.4422
20244TIP3    H182223   0.286   3.689   0.978 -1.3272  1.0119 -0.4568
20244TIP3    H282224   0.332   3.820   1.039 -0.2625  0.4229  0.0529
20245TIP3   OH282225   0.906   3.994  10.406  0.5876 -0.2149  0.3995
20245TIP3    H182226   0.908   4.060  10.475  0.4968 -0.5223  0.6950
20245TIP3    H282227   0.955   3.920  10.442 -0.0677 -0.6465  0.4042
20246TIP3   OH282228   5.154   1.876  14.174 -0.1990 -0.0331 -0.6947
20246TIP3    H182229   5.120   1.807  14.230  0.0010 -0.3367 -0.9392
20246TIP3    H282230   5.110   1.956  14.203  0.0109 -0.1609 -0.0186
20247TIP3   OH282231   2.481   3.861   2.856  0.6728 -0.1254 -0.0426
20247TIP3    H182232   2.544   3.807   2.808  0.2313  0.5176 -1.3592
20247TIP3    H282233   2.517   3.950   2.852 -0.8049  0.4309 -1.6982
20248TIP3   OH282234   2.891   1.917  13.284  0.4976  0.3990  0.3552
20248TIP3    H182235   2.970   1.885  13.241  1.0631  0.3614  1.4031
20248TIP3    H282236   2.819   1.876  13.235  1.1710 -1.3703  0.7775
20249TIP3   OH282237   6.588   6.373  15.312 -0.2947  0.0339  0.6231
20249TIP3    H182238   6.682   6.369  15.330  0.1054  1.9023 -0.7114
20249TIP3    H282239   6.563   6.283  15.295  1.3249 -0.4588  0.6734
20250TIP3   OH282240   4.769   2.469   2.852  0.1616 -0.3445 -0.4845
20250TIP3    H182241   4.803   2.415   2.924  0.2657  0.1902 -0.1282
20250TIP3    H282242   4.676   2.476   2.871  0.4811  1.3590  0.6628
20251TIP3   OH282243   1.981   5.027   4.539 -0.7966  0.2383  0.7588
20251TIP3    H182244   1.971   4.952   4.479 -0.8999 -0.2897  1.4247
20251TIP3    H282245   1.901   5.079   4.526 -1.5125 -0.6381  1.4717
20252TIP3   OH282246   4.702   1.164  13.868  0.0316 -0.3641  0.1373
20252TIP3    H182247   4.739   1.242  13.828 -0.2848 -0.4447 -0.3199
20252TIP3    H282248   4.634   1.136  13.807  1.1187 -1.8355 -0.4548
20253TIP3   OH282249   0.308   3.916  14.650 -0.2965  0.2490  0.1086
20253TIP3    H182250   0.368   3.852  14.612  1.1188  0.8434  1.2466
20253TIP3    H282251   0.262   3.867  14.719 -0.8258 -0.0964 -0.4806
20254TIP3   OH282252   4.547   6.203   2.192 -0.3795  0.1735  0.1610
20254TIP3    H182253   4.622   6.262   2.203  0.0983 -0.5667  0.9587
20254TIP3    H282254   4.586   6.116   2.181 -1.0777 -0.0236 -0.9675
20255LIG     O182255   3.034   3.528  16.382  0.7855  0.2084  0.9529
20255LIG     O282256   3.603   3.330  16.241 -0.1924 -0.2498 -0.5239
20255LIG     O382257   3.355   3.303  16.100  0.4816 -0.4782  0.5925
20255LIG     O482258   3.788   3.313  16.402 -0.5321  0.0937  0.4602
20255LIG     O582259   2.996   3.266  16.290 -0.4490 -0.3692 -0.9780
20255LIG     O682260   3.974   3.308  16.591 -0.2245 -0.1618  0.6090
20255LIG      N82261   3.228   3.681  16.153  0.0509 -0.3755 -0.2265
20255LIG     C182262   3.369   3.593  16.330  0.6198 -0.3083  0.1978
20255LIG     C282263   3.427   3.488  16.236 -0.1242  0.2136  0.2160
20255LIG     C382264   3.377   3.560  16.479 -0.0540 -0.5571  0.6085
20255LIG     C482265   3.229   3.624  16.295  0.7559 -0.1800 -0.0596
20255LIG     C582266   3.513   3.534  16.523  0.0907 -0.1206  0.6939
20255LIG     C682267   3.546   3.421  16.299  0.3162  0.3898 -0.0240
20255LIG     C782268   3.595   3.458  16.434  0.3365  0.0510  0.6541
20255LIG     C882269   3.329   3.383  16.191 -0.8657 -0.1972 -0.5149
20255LIG     C982270   3.146   3.497  16.309  0.7253  0.0634 -0.4869
20255LIG    C1082271   3.192   3.382  16.253 -0.1192 -0.2122  0.2216
20255LIG    C1182272   3.563   3.578  16.651  0.4403 -0.6455  0.7976
20255LIG    C1282273   3.715   3.406  16.480 -0.6556 -0.0214  0.0321
20255LIG    C1382274   3.697   3.547  16.681 -0.4109 -0.4970  0.8917
20255LIG    C1482275   3.777   3.454  16.600  0.8407  0.4310 -0.9483
20255LIG    C1582276   3.470   3.660  16.743 -0.4646  0.5962  0.6305
20255LIG    C1682277   3.110   3.258  16.246  0.2068  0.1949 -0.4186
20255LIG    C1782278   3.908   3.422  16.650  0.3827  0.1913  0.6762
20255LIG    C1882279   3.754   3.601  16.795  0.4650  0.2129 -0.2263
20255LIG    C1982280   3.965   3.487  16.758  0.1952  0.6082 -0.4420
20255LIG    C2082281   3.884   3.571  16.829  0.0357  0.1098 -0.3551
20255LIG    C2182282   3.166   3.119  16.213 -0.4376 -0.0645  1.1187
20255LIG    C2282283   3.026   3.467  16.508 -0.2839 -0.3567 -0.4468
20255LIG    C2382284   4.106   3.479  16.808 -0.6914 -0.1882  0.3764
20255LIG     H182285   3.428   3.685  16.310  0.0257  0.2423  0.8977
20255LIG     H282286   3.461   3.529  16.138  2.0827  1.5094  1.4176
20255LIG     H382287   3.328   3.461  16.496  3.0273 -2.3833 -0.3277
20255LIG     H482288   3.332   3.644  16.536  1.5731  2.2370 -1.9462
20255LIG     H582289   3.191   3.704  16.362 -4.2984 -1.2844 -1.2068
20255LIG     H682290   3.133   3.705  16.128 -0.4802 -0.3589  1.6124
20255LIG     H782291   3.277   3.770  16.143 -1.3183  0.1729 -2.7908
20255LIG     H882292   3.369   3.614  16.749 -1.4402  2.6217  0.8733
20255LIG     H982293   3.462   3.766  16.709  0.1552 -0.5912 -3.7054
20255LIG    H1082294   3.506   3.654  16.848 -0.7895 -2.1683  0.6497
20255LIG    H1182295   3.708   3.675  16.859  1.5674  0.8700 -0.1736
20255LIG    H1282296   3.750   3.312  16.314 -2.0556 -3.2102  1.0264
20255LIG    H1382297   3.922   3.601  16.926  2.4534 -3.7416  0.1163
20255LIG    H1482298   3.096   3.041  16.248  0.2916 -1.9283 -1.3456
20255LIG    H1582299   3.268   3.111  16.257 -0.3862  1.8357  1.4667
20255LIG    H1682300   3.175   3.104  16.104  2.5316 -1.3439  1.4346
20255LIG    H1782301   3.016   3.358  16.490 -4.2830  0.0809 -1.7223
20255LIG    H1882302   2.927   3.497  16.547  0.1800 -1.1355  1.5020
20255LIG    H1982303   3.097   3.480  16.593 -3.1328  1.7575  1.8022
20255LIG    H2082304   4.167   3.571  16.794 -0.7055 -0.3555 -0.9130
20255LIG    H2182305   4.161   3.390  16.769  0.9576  0.6739  0.6260
20255LIG    H2282306   4.093   3.462  16.917 -0.2008 -1.5719  0.2449
20255LIG    H2382307   3.912   3.262  16.534  0.7342  0.0838 -0.6915
   6.80277   6.80277  17.39334
